40
Lattice="5.4418359884165115 8.813107545856303e-43 0.0 -9.1262200341673e-43 5.6351737865141365 0.0 0.0 0.0 15.169194050644503" Properties=species:S:1:pos:R:3:spacegroup_kinds:I:1:forces:R:3 spacegroup="P 1" unit_cell=conventional occupancy="_JSON {\"0\": {\"In\": 1}, \"1\": {\"In\": 1}, \"2\": {\"In\": 1}, \"3\": {\"In\": 1}, \"4\": {\"In\": 1}, \"5\": {\"In\": 1}, \"6\": {\"In\": 1}, \"7\": {\"In\": 1}, \"8\": {\"In\": 1}, \"9\": {\"In\": 1}, \"10\": {\"In\": 1}, \"11\": {\"In\": 1}, \"12\": {\"In\": 1}, \"13\": {\"In\": 1}, \"14\": {\"In\": 1}, \"15\": {\"In\": 1}, \"16\": {\"O\": 1}, \"17\": {\"O\": 1}, \"18\": {\"O\": 1}, \"19\": {\"O\": 1}, \"20\": {\"O\": 1}, \"21\": {\"O\": 1}, \"22\": {\"O\": 1}, \"23\": {\"O\": 1}, \"24\": {\"O\": 1}, \"25\": {\"O\": 1}, \"26\": {\"O\": 1}, \"27\": {\"O\": 1}, \"28\": {\"O\": 1}, \"29\": {\"O\": 1}, \"30\": {\"O\": 1}, \"31\": {\"O\": 1}, \"32\": {\"O\": 1}, \"33\": {\"O\": 1}, \"34\": {\"O\": 1}, \"35\": {\"O\": 1}, \"36\": {\"O\": 1}, \"37\": {\"O\": 1}, \"38\": {\"O\": 1}, \"39\": {\"O\": 1}}" n_minim_iter=1 energy=-45150.394467904596 stress="0.008054334642313563 -2.593332877968251e-13 -6.187370225851608e-13 -2.593332877968251e-13 0.0051373483532757 -1.8345745074464092e-12 -6.187370225851608e-13 -1.8345745074464092e-12 0.007153022315189393" free_energy=-45150.394467904596 pbc="T T T"
In       2.74890844       4.51707590       8.67855099        0      -0.01772602      -0.08759147       0.02494196
In       0.02799044       3.93568478       6.49064306        1      -0.01772602       0.08759147      -0.02494196
In       2.69292755       1.69948901      14.07524009        2       0.01772602      -0.08759147      -0.02494196
In       5.41384554       1.11809788       1.09395396        3       0.01772602       0.08759147       0.02494196
In       2.69292755       1.11809788       6.49064306        4       0.01772602       0.08759147      -0.02494196
In       5.41384554       1.69948901       8.67855099        5       0.01772602      -0.08759147       0.02494196
In       2.74890844       3.93568478       1.09395396        6      -0.01772602       0.08759147       0.02494196
In       0.02799044       4.51707590      14.07524009        7      -0.01772602      -0.08759147      -0.02494196
In       2.74472310       4.21782351      12.35882825        8       0.01373031       0.05583112      -0.10123513
In       5.46564110       4.23493716       2.81036580        9       0.01373031      -0.05583112       0.10123513
In       2.69711289       1.40023662      10.39496283       10      -0.01373031       0.05583112       0.10123513
In      -0.02380511       1.41735027       4.77423122       11      -0.01373031      -0.05583112      -0.10123513
In       2.69711289       1.41735027       2.81036580       12      -0.01373031      -0.05583112       0.10123513
In      -0.02380511       1.40023662      12.35882825       13      -0.01373031       0.05583112      -0.10123513
In       2.74472310       4.23493716       4.77423122       14       0.01373031      -0.05583112      -0.10123513
In       5.46564110       4.21782351      10.39496283       15       0.01373031       0.05583112       0.10123513
O        4.68407039       5.01249029      12.13159608       16       0.06011578       0.01382439      -0.04109427
O        1.96315240       3.44027039       3.03759797       17       0.06011578      -0.01382439       0.04109427
O        0.75776559       2.19490339      10.62219499       18      -0.06011578       0.01382439       0.04109427
O        3.47868359       0.62268350       4.54699906       19      -0.06011578      -0.01382439      -0.04109427
O        0.75776559       0.62268350       3.03759797       20      -0.06011578      -0.01382439       0.04109427
O        3.47868359       2.19490339      12.13159608       21      -0.06011578       0.01382439      -0.04109427
O        4.68407039       3.44027039       4.54699906       22       0.06011578      -0.01382439      -0.04109427
O        1.96315240       5.01249029      10.62219499       23       0.06011578       0.01382439       0.04109427
O        3.84908205       3.00144615       9.58269768       24       0.04145938       0.02544672       0.10401529
O        1.12816406       5.45131453       5.58649637       25       0.04145938      -0.02544672      -0.10401529
O        1.59275394       0.18385926      13.17109339       26      -0.04145938       0.02544672      -0.10401529
O        4.31367193       2.63372764       1.99810066       27      -0.04145938      -0.02544672       0.10401529
O        1.59275394       2.63372764       5.58649637       28      -0.04145938      -0.02544672      -0.10401529
O        4.31367193       0.18385926       9.58269768       29      -0.04145938       0.02544672       0.10401529
O        3.84908205       5.45131453       1.99810066       30       0.04145938      -0.02544672       0.10401529
O        1.12816406       3.00144615      13.17109339       31       0.04145938       0.02544672      -0.10401529
O        3.53571267       3.71339644      14.34822250       32      -0.02216250      -0.04058109      -0.09340524
O        0.81479467       4.73936424       0.82097155       33      -0.02216250       0.04058109       0.09340524
O        1.90612332       0.89580955       8.40556858       34       0.02216250      -0.04058109       0.09340524
O        4.62704132       1.92177734       6.76362547       35       0.02216250       0.04058109      -0.09340524
O        1.90612332       1.92177734       0.82097155       36       0.02216250       0.04058109       0.09340524
O        4.62704132       0.89580955      14.34822250       37       0.02216250      -0.04058109      -0.09340524
O        3.53571267       4.73936424       6.76362547       38      -0.02216250       0.04058109      -0.09340524
O        0.81479467       3.71339644       8.40556858       39      -0.02216250      -0.04058109       0.09340524
40
Lattice="5.434079106592362 8.80786221548767e-43 0.0 -9.135337301510265e-43 5.645567488715399 0.0 0.0 0.0 15.16288041073182" Properties=species:S:1:pos:R:3:spacegroup_kinds:I:1:forces:R:3 spacegroup="P 1" unit_cell=conventional occupancy="_JSON {\"0\": {\"In\": 1}, \"1\": {\"In\": 1}, \"2\": {\"In\": 1}, \"3\": {\"In\": 1}, \"4\": {\"In\": 1}, \"5\": {\"In\": 1}, \"6\": {\"In\": 1}, \"7\": {\"In\": 1}, \"8\": {\"In\": 1}, \"9\": {\"In\": 1}, \"10\": {\"In\": 1}, \"11\": {\"In\": 1}, \"12\": {\"In\": 1}, \"13\": {\"In\": 1}, \"14\": {\"In\": 1}, \"15\": {\"In\": 1}, \"16\": {\"O\": 1}, \"17\": {\"O\": 1}, \"18\": {\"O\": 1}, \"19\": {\"O\": 1}, \"20\": {\"O\": 1}, \"21\": {\"O\": 1}, \"22\": {\"O\": 1}, \"23\": {\"O\": 1}, \"24\": {\"O\": 1}, \"25\": {\"O\": 1}, \"26\": {\"O\": 1}, \"27\": {\"O\": 1}, \"28\": {\"O\": 1}, \"29\": {\"O\": 1}, \"30\": {\"O\": 1}, \"31\": {\"O\": 1}, \"32\": {\"O\": 1}, \"33\": {\"O\": 1}, \"34\": {\"O\": 1}, \"35\": {\"O\": 1}, \"36\": {\"O\": 1}, \"37\": {\"O\": 1}, \"38\": {\"O\": 1}, \"39\": {\"O\": 1}}" n_minim_iter=2 energy=-45150.39613328393 stress="0.0062495681849060675 1.899185345676715e-12 -1.2653089884628718e-12 1.899185345676715e-12 0.0074062117684296404 -1.7682246117649252e-12 -1.2653089884628718e-12 -1.7682246117649252e-12 0.0067194683221718085" free_energy=-45150.39613328393 pbc="T T T"
In       2.74494745       4.52519593       8.67499892        0      -0.01175921      -0.06132619       0.02598234
In       0.02790790       3.94315530       6.48788149        1      -0.01175921       0.06132619      -0.02598234
In       2.68913165       1.70241218      14.06932170        2       0.01175921      -0.06132619      -0.02598234
In       5.40617121       1.12037156       1.09355871        3       0.01175921       0.06132619       0.02598234
In       2.68913165       1.12037156       6.48788149        4       0.01175921       0.06132619      -0.02598234
In       5.40617121       1.70241218       8.67499892        5       0.01175921      -0.06132619       0.02598234
In       2.74494745       3.94315530       1.09355871        6      -0.01175921       0.06132619       0.02598234
In       0.02790790       4.52519593      14.06932170        7      -0.01175921      -0.06132619      -0.02598234
In       2.74084376       4.22573777      12.35344052        8       0.00649199       0.02660950      -0.08455043
In       5.45788332       4.24261346       2.80943989        9       0.00649200      -0.02660950       0.08455043
In       2.69323534       1.40295403      10.39088009       10      -0.00649200       0.02660950       0.08455043
In      -0.02380421       1.41982972       4.77200032       11      -0.00649199      -0.02660950      -0.08455043
In       2.69323534       1.41982972       2.80943989       12      -0.00649199      -0.02660950       0.08455043
In      -0.02380421       1.40295403      12.35344052       13      -0.00649199       0.02660950      -0.08455043
In       2.74084376       4.24261346       4.77200032       14       0.00649200      -0.02660950      -0.08455043
In       5.45788332       4.22573777      10.39088009       15       0.00649199       0.02660950       0.08455043
O        4.67753827       5.02176886      12.12644777       16       0.07071368       0.02518852      -0.03468419
O        1.96049872       3.44658237       3.03643264       17       0.07071368      -0.02518852       0.03468419
O        0.75654083       2.19898512      10.61787285       18      -0.07071368       0.02518852       0.03468419
O        3.47358039       0.62379863       4.54500757       19      -0.07071368      -0.02518852      -0.03468419
O        0.75654083       0.62379863       3.03643264       20      -0.07071368      -0.02518852       0.03468419
O        3.47358039       2.19898512      12.12644777       21      -0.07071368       0.02518852      -0.03468419
O        4.67753827       3.44658237       4.54500757       22       0.07071368      -0.02518852      -0.03468419
O        1.96049872       5.02176886      10.61787285       23       0.07071368       0.02518852       0.03468419
O        3.84369525       3.00704354       9.57895972       24       0.03225285       0.02685347       0.09593325
O        1.12665570       5.46130770       5.58392069       25       0.03225285      -0.02685347      -0.09593325
O        1.59038385       0.18425979      13.16536089       26      -0.03225285       0.02685347      -0.09593325
O        4.30742341       2.63852395       1.99751952       27      -0.03225285      -0.02685347       0.09593325
O        1.59038385       2.63852395       5.58392069       28      -0.03225285      -0.02685347      -0.09593325
O        4.30742341       0.18425979       9.57895972       29      -0.03225285       0.02685347       0.09593325
O        3.84369525       5.46130770       1.99751952       30       0.03225285      -0.02685347       0.09593325
O        1.12665570       3.00704354      13.16536089       31       0.03225285       0.02685347      -0.09593325
O        3.53061949       3.72014760      14.34202561       32      -0.03142153      -0.05309696      -0.09612716
O        0.81357993       4.74820363       0.82085480       33      -0.03142153       0.05309696       0.09612716
O        1.90345962       0.89736386       8.40229500       34       0.03142153      -0.05309696       0.09612716
O        4.62049917       1.92541989       6.76058541       35       0.03142153       0.05309696      -0.09612716
O        1.90345962       1.92541989       0.82085480       36       0.03142153       0.05309696       0.09612716
O        4.62049917       0.89736386      14.34202561       37       0.03142153      -0.05309696      -0.09612716
O        3.53061949       4.74820363       6.76058541       38      -0.03142153       0.05309696      -0.09612716
O        0.81357993       3.72014760       8.40229500       39      -0.03142153      -0.05309696       0.09612716
40
Lattice="5.445115297964414 8.826394044901987e-43 0.0 -9.129324502439501e-43 5.642290578967995 0.0 0.0 0.0 15.140936592474258" Properties=species:S:1:pos:R:3:spacegroup_kinds:I:1:forces:R:3 spacegroup="P 1" unit_cell=conventional occupancy="_JSON {\"0\": {\"In\": 1}, \"1\": {\"In\": 1}, \"2\": {\"In\": 1}, \"3\": {\"In\": 1}, \"4\": {\"In\": 1}, \"5\": {\"In\": 1}, \"6\": {\"In\": 1}, \"7\": {\"In\": 1}, \"8\": {\"In\": 1}, \"9\": {\"In\": 1}, \"10\": {\"In\": 1}, \"11\": {\"In\": 1}, \"12\": {\"In\": 1}, \"13\": {\"In\": 1}, \"14\": {\"In\": 1}, \"15\": {\"In\": 1}, \"16\": {\"O\": 1}, \"17\": {\"O\": 1}, \"18\": {\"O\": 1}, \"19\": {\"O\": 1}, \"20\": {\"O\": 1}, \"21\": {\"O\": 1}, \"22\": {\"O\": 1}, \"23\": {\"O\": 1}, \"24\": {\"O\": 1}, \"25\": {\"O\": 1}, \"26\": {\"O\": 1}, \"27\": {\"O\": 1}, \"28\": {\"O\": 1}, \"29\": {\"O\": 1}, \"30\": {\"O\": 1}, \"31\": {\"O\": 1}, \"32\": {\"O\": 1}, \"33\": {\"O\": 1}, \"34\": {\"O\": 1}, \"35\": {\"O\": 1}, \"36\": {\"O\": 1}, \"37\": {\"O\": 1}, \"38\": {\"O\": 1}, \"39\": {\"O\": 1}}" n_minim_iter=3 energy=-45150.408739518905 stress="0.009922037481735486 7.692330949424281e-14 1.1802606899052272e-12 7.692330949424281e-14 0.009280707310424257 -6.531441036088103e-13 1.1802606899052272e-12 -6.531441036088103e-13 0.006384108149799034" free_energy=-45150.408739518905 pbc="T T T"
In       2.74959785       4.51782410       8.66422316        0       0.00781704      -0.01641652      -0.02313840
In       0.02704020       3.94561176       6.47671343        1       0.00781704       0.01641652       0.02313840
In       2.69551744       1.69667881      14.04718173        2      -0.00781704      -0.01641652       0.02313840
In       5.41807509       1.12446647       1.09375486        3      -0.00781704       0.01641652      -0.02313840
In       2.69551744       1.12446647       6.47671343        4      -0.00781704       0.01641652       0.02313840
In       5.41807509       1.69667881       8.66422316        5      -0.00781704      -0.01641652      -0.02313840
In       2.74959785       3.94561176       1.09375486        6       0.00781704       0.01641652      -0.02313840
In       0.02704020       4.51782410      14.04718173        7       0.00781704      -0.01641652       0.02313840
In       2.74699280       4.22567076      12.32940737        8       0.07043580      -0.00640739       0.02075200
In       5.46955045       4.23776511       2.81152922        9       0.07043580       0.00640739      -0.02075200
In       2.69812250       1.40452547      10.38199751       10      -0.07043580      -0.00640739      -0.02075200
In      -0.02443515       1.41661982       4.75893908       11      -0.07043580       0.00640739       0.02075200
In       2.69812250       1.41661982       2.81152922       12      -0.07043580       0.00640739      -0.02075200
In      -0.02443515       1.40452547      12.32940737       13      -0.07043580      -0.00640739       0.02075200
In       2.74699280       4.23776511       4.75893908       14       0.07043580       0.00640739       0.02075200
In       5.46955045       4.22567076      10.38199751       15       0.07043580      -0.00640739      -0.02075200
O        4.69174507       5.02039688      12.10638127       16      -0.04179442       0.02777644       0.03889456
O        1.96918742       3.44303899       3.03455532       17      -0.04179442      -0.02777644      -0.03889456
O        0.75337023       2.19925159      10.60502362       18       0.04179442       0.02777644      -0.03889456
O        3.47592787       0.62189370       4.53591297       19       0.04179442      -0.02777644       0.03889456
O        0.75337023       0.62189370       3.03455532       20       0.04179442      -0.02777644      -0.03889456
O        3.47592787       2.19925159      12.10638127       21       0.04179442       0.02777644       0.03889456
O        4.69174507       3.44303899       4.53591297       22      -0.04179442      -0.02777644       0.03889456
O        1.96918742       5.02039688      10.60502362       23      -0.04179442       0.02777644      -0.03889456
O        3.85390568       3.00713931       9.57188253       24       0.03014583       0.00189955       0.05523006
O        1.13134803       5.45629656       5.56905407       25       0.03014583      -0.00189955      -0.05523006
O        1.59120962       0.18599402      13.13952236       26      -0.03014583       0.00189955      -0.05523006
O        4.31376727       2.63515127       2.00141423       27      -0.03014583      -0.00189955       0.05523006
O        1.59120962       2.63515127       5.56905407       28      -0.03014583      -0.00189955      -0.05523006
O        4.31376727       0.18599402       9.57188253       29      -0.03014583       0.00189955       0.05523006
O        3.85390568       5.45629656       2.00141423       30       0.03014583      -0.00189955       0.05523006
O        1.13134803       3.00713931      13.13952236       31       0.03014583       0.00189955      -0.05523006
O        3.53578168       3.71452623      14.31466826       32      -0.02378665      -0.01941250      -0.02169822
O        0.81322403       4.74890964       0.82626834       33      -0.02378665       0.01941250       0.02169822
O        1.90933362       0.89338094       8.39673663       34       0.02378665      -0.01941250       0.02169822
O        4.63189127       1.92776435       6.74419996       35       0.02378665       0.01941250      -0.02169822
O        1.90933362       1.92776435       0.82626834       36       0.02378665       0.01941250       0.02169822
O        4.63189127       0.89338094      14.31466826       37       0.02378665      -0.01941250      -0.02169822
O        3.53578168       4.74890964       6.74419996       38      -0.02378665       0.01941250      -0.02169822
O        0.81322403       3.71452623       8.39673663       39      -0.02378665      -0.01941250       0.02169822
40
Lattice="5.438868273378341 8.816538819892049e-43 0.0 -9.204335659472239e-43 5.637565609565035 0.0 0.0 0.0 15.171031838576653" Properties=species:S:1:pos:R:3:spacegroup_kinds:I:1:forces:R:3 spacegroup="P 1" unit_cell=conventional occupancy="_JSON {\"0\": {\"In\": 1}, \"1\": {\"In\": 1}, \"2\": {\"In\": 1}, \"3\": {\"In\": 1}, \"4\": {\"In\": 1}, \"5\": {\"In\": 1}, \"6\": {\"In\": 1}, \"7\": {\"In\": 1}, \"8\": {\"In\": 1}, \"9\": {\"In\": 1}, \"10\": {\"In\": 1}, \"11\": {\"In\": 1}, \"12\": {\"In\": 1}, \"13\": {\"In\": 1}, \"14\": {\"In\": 1}, \"15\": {\"In\": 1}, \"16\": {\"O\": 1}, \"17\": {\"O\": 1}, \"18\": {\"O\": 1}, \"19\": {\"O\": 1}, \"20\": {\"O\": 1}, \"21\": {\"O\": 1}, \"22\": {\"O\": 1}, \"23\": {\"O\": 1}, \"24\": {\"O\": 1}, \"25\": {\"O\": 1}, \"26\": {\"O\": 1}, \"27\": {\"O\": 1}, \"28\": {\"O\": 1}, \"29\": {\"O\": 1}, \"30\": {\"O\": 1}, \"31\": {\"O\": 1}, \"32\": {\"O\": 1}, \"33\": {\"O\": 1}, \"34\": {\"O\": 1}, \"35\": {\"O\": 1}, \"36\": {\"O\": 1}, \"37\": {\"O\": 1}, \"38\": {\"O\": 1}, \"39\": {\"O\": 1}}" n_minim_iter=4 energy=-45150.41067862677 stress="0.008733489751988932 2.610784312927448e-13 1.357971048325677e-12 2.610784312927448e-13 0.008937313811831084 -3.753204572152422e-13 1.357971048325677e-12 -3.753204572152422e-13 0.00891464901745073" free_energy=-45150.41067862677 pbc="T T T"
In       2.74631958       4.51328005       8.68166560        0       0.04206650       0.00178370      -0.04325453
In       0.02688544       3.94306837       6.48936624        1       0.04206650      -0.00178370       0.04325453
In       2.69254869       1.69449724      14.07488216        2      -0.04206650       0.00178370       0.04325453
In       5.41198283       1.12428556       1.09614968        3      -0.04206650      -0.00178370      -0.04325453
In       2.69254869       1.12428556       6.48936624        4      -0.04206650      -0.00178370       0.04325453
In       5.41198283       1.69449724       8.68166560        5      -0.04206650       0.00178370      -0.04325453
In       2.74631958       3.94306837       1.09614968        6       0.04206650      -0.00178370      -0.04325453
In       0.02688544       4.51328005      14.07488216        7       0.04206650       0.00178370       0.04325453
In       2.74408641       4.22248242      12.35301843        8       0.05360619      -0.00151947       0.03324683
In       5.46352054       4.23386600       2.81801341        9       0.05360619       0.00151947      -0.03324683
In       2.69478187       1.40369961      10.40352933       10      -0.05360619      -0.00151947      -0.03324683
In      -0.02465227       1.41508319       4.76750251       11      -0.05360619       0.00151947       0.03324683
In       2.69478187       1.41508319       2.81801341       12      -0.05360619       0.00151947      -0.03324683
In      -0.02465227       1.40369961      12.35301843       13      -0.05360619      -0.00151947       0.03324683
In       2.74408641       4.23386600       4.76750251       14       0.05360619       0.00151947       0.03324683
In       5.46352054       4.22248242      10.40352933       15       0.05360619      -0.00151947      -0.03324683
O        4.68698704       5.01648938      12.13014580       16      -0.02623772       0.01652214       0.03530662
O        1.96755290       3.43985904       3.04088604       17      -0.02623772      -0.01652214      -0.03530662
O        0.75188123       2.19770657      10.62640196       18       0.02623772       0.01652214      -0.03530662
O        3.47131537       0.62107623       4.54462988       19       0.02623772      -0.01652214       0.03530662
O        0.75188123       0.62107623       3.04088604       20       0.02623772      -0.01652214      -0.03530662
O        3.47131537       2.19770657      12.13014580       21       0.02623772       0.01652214       0.03530662
O        4.68698704       3.43985904       4.54462988       22      -0.02623772      -0.01652214       0.03530662
O        1.96755290       5.01648938      10.62640196       23      -0.02623772       0.01652214      -0.03530662
O        3.84991778       3.00490602       9.59206844       24       0.03223702      -0.00537948       0.04062859
O        1.13048365       5.45144239       5.57896340       25       0.03223702       0.00537948      -0.04062859
O        1.58895049       0.18612322      13.16447932       26      -0.03223702      -0.00537948      -0.04062859
O        4.30838463       2.63265959       2.00655252       27      -0.03223702       0.00537948       0.04062859
O        1.58895049       2.63265959       5.57896340       28      -0.03223702       0.00537948      -0.04062859
O        4.30838463       0.18612322       9.59206844       29      -0.03223702      -0.00537948       0.04062859
O        3.84991778       5.45144239       2.00655252       30       0.03223702       0.00537948       0.04062859
O        1.13048365       3.00490602      13.16447932       31       0.03223702      -0.00537948      -0.04062859
O        3.53136652       3.71084486      14.34206364       32      -0.05308147      -0.01529900       0.00519749
O        0.81193238       4.74550355       0.82896819       33      -0.05308147       0.01529900      -0.00519749
O        1.90750176       0.89206206       8.41448411       34       0.05308147      -0.01529900      -0.00519749
O        4.62693589       1.92672074       6.75654773       35       0.05308147       0.01529900       0.00519749
O        1.90750176       1.92672074       0.82896819       36       0.05308147       0.01529900      -0.00519749
O        4.62693589       0.89206206      14.34206364       37       0.05308147      -0.01529900       0.00519749
O        3.53136652       4.74550355       6.75654773       38      -0.05308147       0.01529900       0.00519749
O        0.81193238       3.71084486       8.41448411       39      -0.05308147      -0.01529900      -0.00519749
40
Lattice="5.440343611969689 8.824413814675721e-43 0.0 -9.195082278226443e-43 5.633760499329002 0.0 0.0 0.0 15.1771616054046" Properties=species:S:1:pos:R:3:spacegroup_kinds:I:1:forces:R:3 spacegroup="P 1" unit_cell=conventional occupancy="_JSON {\"0\": {\"In\": 1}, \"1\": {\"In\": 1}, \"2\": {\"In\": 1}, \"3\": {\"In\": 1}, \"4\": {\"In\": 1}, \"5\": {\"In\": 1}, \"6\": {\"In\": 1}, \"7\": {\"In\": 1}, \"8\": {\"In\": 1}, \"9\": {\"In\": 1}, \"10\": {\"In\": 1}, \"11\": {\"In\": 1}, \"12\": {\"In\": 1}, \"13\": {\"In\": 1}, \"14\": {\"In\": 1}, \"15\": {\"In\": 1}, \"16\": {\"O\": 1}, \"17\": {\"O\": 1}, \"18\": {\"O\": 1}, \"19\": {\"O\": 1}, \"20\": {\"O\": 1}, \"21\": {\"O\": 1}, \"22\": {\"O\": 1}, \"23\": {\"O\": 1}, \"24\": {\"O\": 1}, \"25\": {\"O\": 1}, \"26\": {\"O\": 1}, \"27\": {\"O\": 1}, \"28\": {\"O\": 1}, \"29\": {\"O\": 1}, \"30\": {\"O\": 1}, \"31\": {\"O\": 1}, \"32\": {\"O\": 1}, \"33\": {\"O\": 1}, \"34\": {\"O\": 1}, \"35\": {\"O\": 1}, \"36\": {\"O\": 1}, \"37\": {\"O\": 1}, \"38\": {\"O\": 1}, \"39\": {\"O\": 1}}" n_minim_iter=5 energy=-45150.414371334205 stress="0.009562154192597773 1.975248494180901e-13 -8.085232871137953e-13 1.975248494180901e-13 0.009150447363502671 -1.745103220623596e-12 -8.085232871137953e-13 -1.745103220623596e-12 0.009758723217914286" free_energy=-45150.414371334205 pbc="T T T"
In       2.74918344       4.50874649       8.68319335        0       0.02263688      -0.02915331       0.01382357
In       0.02901163       3.94189426       6.49396826        1       0.02263688       0.02915331      -0.01382357
In       2.69116017       1.69186624      14.08254906        2      -0.02263688      -0.02915331      -0.01382357
In       5.41133198       1.12501401       1.09461255        3      -0.02263688       0.02915331       0.01382357
In       2.69116017       1.12501401       6.49396826        4      -0.02263688       0.02915331      -0.01382357
In       5.41133198       1.69186624       8.68319335        5      -0.02263688      -0.02915331       0.01382357
In       2.74918344       3.94189426       1.09461255        6       0.02263688       0.02915331       0.01382357
In       0.02901163       4.50874649      14.08254906        7       0.02263688      -0.02915331      -0.01382357
In       2.74828280       4.22034196      12.35799685        8       0.00435721       0.02278241      -0.00740737
In       5.46845460       4.23029879       2.81916476        9       0.00435721      -0.02278241       0.00740737
In       2.69206081       1.40346171      10.40774556       10      -0.00435721       0.02278241       0.00740737
In      -0.02811099       1.41341854       4.76941605       11      -0.00435721      -0.02278241      -0.00740737
In       2.69206081       1.41341854       2.81916476       12      -0.00435721      -0.02278241       0.00740737
In      -0.02811099       1.40346171      12.35799685       13      -0.00435721       0.02278241      -0.00740737
In       2.74828280       4.23029879       4.76941605       14       0.00435721      -0.02278241      -0.00740737
In       5.46845460       4.22034196      10.40774556       15       0.00435721       0.02278241       0.00740737
O        4.68809280       5.01457884      12.13636697       16      -0.00276876      -0.01896044       0.01909448
O        1.96792099       3.43606191       3.04079463       17      -0.00276876       0.01896044      -0.01909448
O        0.75225082       2.19769859      10.62937544       18       0.00276876      -0.01896044      -0.01909448
O        3.47242262       0.61918166       4.54778617       19       0.00276876       0.01896044       0.01909448
O        0.75225082       0.61918166       3.04079463       20       0.00276876       0.01896044      -0.01909448
O        3.47242262       2.19769859      12.13636697       21       0.00276876      -0.01896044       0.01909448
O        4.68809280       3.43606191       4.54778617       22      -0.00276876       0.01896044       0.01909448
O        1.96792099       5.01457884      10.62937544       23      -0.00276876      -0.01896044      -0.01909448
O        3.85365794       3.00314754       9.60056480       24       0.00749448      -0.00392395       0.00232801
O        1.13348613       5.44749321       5.57659680       25       0.00749448       0.00392395      -0.00232801
O        1.58668568       0.18626729      13.16517761       26      -0.00749448      -0.00392395      -0.00232801
O        4.30685748       2.63061296       2.01198400       27      -0.00749448       0.00392395       0.00232801
O        1.58668568       2.63061296       5.57659680       28      -0.00749448       0.00392395      -0.00232801
O        4.30685748       0.18626729       9.60056480       29      -0.00749448      -0.00392395       0.00232801
O        3.85365794       5.44749321       2.01198400       30       0.00749448       0.00392395       0.00232801
O        1.13348613       3.00314754      13.16517761       31       0.00749448      -0.00392395      -0.00232801
O        3.52862394       3.70636105      14.34603187       32       0.00823667       0.02106151       0.01816553
O        0.80845213       4.74427970       0.83112973       33       0.00823667      -0.02106151      -0.01816552
O        1.91171967       0.88948080       8.41971054       34      -0.00823667       0.02106151      -0.01816552
O        4.63189148       1.92739945       6.75745107       35      -0.00823667      -0.02106151       0.01816553
O        1.91171967       1.92739945       0.83112973       36      -0.00823667      -0.02106151      -0.01816553
O        4.63189148       0.88948080      14.34603187       37      -0.00823667       0.02106151       0.01816553
O        3.52862394       4.74427970       6.75745107       38       0.00823667      -0.02106151       0.01816552
O        0.80845213       3.70636105       8.41971054       39       0.00823667       0.02106151      -0.01816552
40