40
Lattice="5.936589287307885 -7.187526330899811e-42 0.0 4.20147035101526e-42 6.331158078401198 0.0 0.0 0.0 17.18947496438738" Properties=species:S:1:pos:R:3:spacegroup_kinds:I:1:forces:R:3 spacegroup="P 1" unit_cell=conventional occupancy="_JSON {\"0\": {\"In\": 1}, \"1\": {\"In\": 1}, \"2\": {\"In\": 1}, \"3\": {\"In\": 1}, \"4\": {\"In\": 1}, \"5\": {\"In\": 1}, \"6\": {\"In\": 1}, \"7\": {\"In\": 1}, \"8\": {\"In\": 1}, \"9\": {\"In\": 1}, \"10\": {\"In\": 1}, \"11\": {\"In\": 1}, \"12\": {\"In\": 1}, \"13\": {\"In\": 1}, \"14\": {\"In\": 1}, \"15\": {\"In\": 1}, \"16\": {\"O\": 1}, \"17\": {\"O\": 1}, \"18\": {\"O\": 1}, \"19\": {\"O\": 1}, \"20\": {\"O\": 1}, \"21\": {\"O\": 1}, \"22\": {\"O\": 1}, \"23\": {\"O\": 1}, \"24\": {\"O\": 1}, \"25\": {\"O\": 1}, \"26\": {\"O\": 1}, \"27\": {\"O\": 1}, \"28\": {\"O\": 1}, \"29\": {\"O\": 1}, \"30\": {\"O\": 1}, \"31\": {\"O\": 1}, \"32\": {\"O\": 1}, \"33\": {\"O\": 1}, \"34\": {\"O\": 1}, \"35\": {\"O\": 1}, \"36\": {\"O\": 1}, \"37\": {\"O\": 1}, \"38\": {\"O\": 1}, \"39\": {\"O\": 1}}" n_minim_iter=12 energy=-45149.25766492009 stress="0.014678635249210084 7.277903666002351e-13 -3.296087270865628e-14 7.277903666002351e-13 0.01463251620464805 1.6892408598902109e-13 -3.296087270865628e-14 1.6892408598902109e-13 0.014658214388580997" free_energy=-45149.25766492009 pbc="T T T"
In       2.68219938       5.30895625       9.93309543        0      -0.00202240      -0.00041327       0.00039851
In      -0.28609527       4.18778087       7.25637953        1      -0.00202240       0.00041327      -0.00039851
In       3.25438991       2.14337721      15.85111701        2       0.00202240      -0.00041327      -0.00039851
In       6.22268455       1.02220183       1.33835795        3       0.00202240       0.00041327       0.00039851
In       3.25438991       1.02220183       7.25637953        4       0.00202240       0.00041327      -0.00039851
In       6.22268455       2.14337721       9.93309543        5       0.00202240      -0.00041327       0.00039851
In       2.68219938       4.18778087       1.33835795        6      -0.00202240       0.00041327       0.00039851
In      -0.28609527       5.30895625      15.85111701        7      -0.00202240      -0.00041327      -0.00039851
In       2.68530468       5.15296547      13.93043355        8      -0.00075238      -0.00100617       0.00169552
In       5.65359932       4.34377165       3.25904142        9      -0.00075238       0.00100617      -0.00169552
In       3.25128461       1.98738643      11.85377890       10       0.00075238      -0.00100617      -0.00169552
In       0.28298997       1.17819261       5.33569607       11       0.00075238       0.00100617       0.00169552
In       3.25128461       1.17819261       3.25904142       12       0.00075238       0.00100617      -0.00169552
In       0.28298997       1.98738643      13.93043355       13       0.00075238      -0.00100617       0.00169552
In       2.68530468       4.34377165       5.33569607       14      -0.00075238       0.00100617       0.00169552
In       5.65359932       5.15296547      11.85377890       15      -0.00075238      -0.00100617      -0.00169552
O        4.79562536       5.83690099      13.77849368       16       0.00181850      -0.00476415      -0.00259660
O        1.82733071       3.65983613       3.41098129       17       0.00181850       0.00476415       0.00259660
O        1.14096393       2.67132195      12.00571877       18      -0.00181850      -0.00476415       0.00259660
O        4.10925857       0.49425709       5.18375620       19      -0.00181850       0.00476415      -0.00259660
O        1.14096393       0.49425709       3.41098129       20      -0.00181850       0.00476415       0.00259660
O        4.10925857       2.67132195      13.77849368       21      -0.00181850      -0.00476415      -0.00259660
O        4.79562536       3.65983613       5.18375620       22       0.00181850       0.00476415      -0.00259660
O        1.82733071       5.83690099      12.00571877       23       0.00181850      -0.00476415       0.00259660
O        4.09698759       3.87083578      10.97021377       24       0.00019010      -0.00120550      -0.00046400
O        1.12869294       5.62590134       6.21926120       25       0.00019010       0.00120550       0.00046400
O        1.83960170       0.70525674      14.81399868       26      -0.00019010      -0.00120550       0.00046400
O        4.80789634       2.46032230       2.37547629       27      -0.00019010       0.00120550      -0.00046400
O        1.83960170       2.46032230       6.21926120       28      -0.00019010       0.00120550       0.00046400
O        4.80789634       0.70525674      10.97021377       29      -0.00019010      -0.00120550      -0.00046400
O        4.09698759       5.62590134       2.37547629       30       0.00019010       0.00120550      -0.00046400
O        1.12869294       3.87083578      14.81399868       31       0.00019010      -0.00120550       0.00046400
O        3.71437408       4.23346981      16.46954293       32       0.00156937       0.00180405      -0.00135733
O        0.74607944       5.26326731       0.71993204       33       0.00156937      -0.00180405       0.00135733
O        2.22221520       1.06789077       9.31466952       34      -0.00156937       0.00180405       0.00135733
O        5.19050985       2.09768827       7.87480545       35      -0.00156937      -0.00180405      -0.00135733
O        2.22221520       2.09768827       0.71993204       36      -0.00156937      -0.00180405       0.00135733
O        5.19050985       1.06789077      16.46954293       37      -0.00156937       0.00180405      -0.00135733
O        3.71437408       5.26326731       7.87480545       38       0.00156937      -0.00180405      -0.00135733
O        0.74607944       4.23346981       9.31466952       39       0.00156937       0.00180405       0.00135733
