40
Lattice="5.442427618966196 7.0428463452545e-43 0.0 -7.316574206838858e-43 5.653953471006267 0.0 0.0 0.0 15.53708711460733" Properties=species:S:1:pos:R:3:spacegroup_kinds:I:1:forces:R:3 spacegroup="P 1" unit_cell=conventional occupancy="_JSON {\"0\": {\"In\": 1}, \"1\": {\"In\": 1}, \"2\": {\"In\": 1}, \"3\": {\"In\": 1}, \"4\": {\"In\": 1}, \"5\": {\"In\": 1}, \"6\": {\"In\": 1}, \"7\": {\"In\": 1}, \"8\": {\"In\": 1}, \"9\": {\"In\": 1}, \"10\": {\"In\": 1}, \"11\": {\"In\": 1}, \"12\": {\"In\": 1}, \"13\": {\"In\": 1}, \"14\": {\"In\": 1}, \"15\": {\"In\": 1}, \"16\": {\"O\": 1}, \"17\": {\"O\": 1}, \"18\": {\"O\": 1}, \"19\": {\"O\": 1}, \"20\": {\"O\": 1}, \"21\": {\"O\": 1}, \"22\": {\"O\": 1}, \"23\": {\"O\": 1}, \"24\": {\"O\": 1}, \"25\": {\"O\": 1}, \"26\": {\"O\": 1}, \"27\": {\"O\": 1}, \"28\": {\"O\": 1}, \"29\": {\"O\": 1}, \"30\": {\"O\": 1}, \"31\": {\"O\": 1}, \"32\": {\"O\": 1}, \"33\": {\"O\": 1}, \"34\": {\"O\": 1}, \"35\": {\"O\": 1}, \"36\": {\"O\": 1}, \"37\": {\"O\": 1}, \"38\": {\"O\": 1}, \"39\": {\"O\": 1}}" n_minim_iter=1 energy=-45150.19572085651 stress="-0.0031577120135384265 2.800794306524227e-13 -9.374675881344062e-13 2.800794306524227e-13 -0.006797454960164951 1.339815851147795e-13 -9.374675881344062e-13 1.339815851147795e-13 -0.00040215689258131667" free_energy=-45150.19572085651 pbc="T T T"
In       2.73139766       4.53394904       8.88027111        0      -0.00908592      -0.00687528       0.08217730
In       0.01018385       3.94698117       6.65681601        1      -0.00908592       0.00687528      -0.08217730
In       2.71102996       1.70697231      14.42535957        2       0.00908592      -0.00687528      -0.08217730
In       5.43224377       1.12000443       1.11172755        3       0.00908592       0.00687528       0.08217730
In       2.71102996       1.12000443       6.65681601        4       0.00908592       0.00687528      -0.08217730
In       5.43224377       1.70697231       8.88027111        5       0.00908592      -0.00687528       0.08217730
In       2.73139766       3.94698117       1.11172755        6      -0.00908592       0.00687528       0.08217730
In       0.01018385       4.53394904      14.42535957        7      -0.00908592      -0.00687528      -0.08217730
In       2.72370264       4.23225302      12.69151098        8       0.00438991       0.00915886      -0.10332254
In       5.44491645       4.24867718       2.84557613        9       0.00438991      -0.00915886       0.10332254
In       2.71872498       1.40527629      10.61411969       10      -0.00438991       0.00915886       0.10332254
In      -0.00248883       1.42170045       4.92296742       11      -0.00438991      -0.00915886      -0.10332254
In       2.71872498       1.42170045       2.84557613       12      -0.00438991      -0.00915886       0.10332254
In      -0.00248883       1.40527629      12.69151098       13      -0.00438991       0.00915886      -0.10332254
In       2.72370264       4.24867718       4.92296742       14       0.00438991      -0.00915886      -0.10332254
In       5.44491645       4.23225302      10.61411969       15       0.00438991       0.00915886       0.10332254
O        4.68500449       5.00699972      12.41447599       16       0.08121015       0.03606692      -0.00849470
O        1.96379068       3.47393049       3.12261112       17       0.08121015      -0.03606692       0.00849470
O        0.75742313       2.18002298      10.89115468       18      -0.08121015       0.03606692       0.00849470
O        3.47863694       0.64695376       4.64593243       19      -0.08121015      -0.03606692      -0.00849470
O        0.75742313       0.64695376       3.12261112       20      -0.08121015      -0.03606692       0.00849470
O        3.47863694       2.18002298      12.41447599       21      -0.08121015       0.03606692      -0.00849470
O        4.68500449       3.47393049       4.64593243       22       0.08121015      -0.03606692      -0.00849470
O        1.96379068       5.00699972      10.89115468       23       0.08121015       0.03606692       0.00849470
O        3.84845819       3.00467811       9.75377668       24       0.06383960       0.02155617       0.13335902
O        1.12724438       5.47625210       5.78331044       25       0.06383960      -0.02155617      -0.13335902
O        1.59396943       0.17770137      13.55185400       26      -0.06383960       0.02155617      -0.13335902
O        4.31518324       2.64927537       1.98523312       27      -0.06383960      -0.02155617       0.13335902
O        1.59396943       2.64927537       5.78331044       28      -0.06383960      -0.02155617      -0.13335902
O        4.31518324       0.17770137       9.75377668       29      -0.06383960       0.02155617       0.13335902
O        3.84845819       5.47625210       1.98523312       30       0.06383960      -0.02155617       0.13335902
O        1.12724438       3.00467811      13.55185400       31       0.06383960       0.02155617      -0.13335902
O        3.51960845       3.73517892      14.71586395       32      -0.03424043      -0.04356301      -0.11006122
O        0.79839464       4.74575129       0.82122316       33      -0.03424043       0.04356301       0.11006122
O        1.92281917       0.90820218       8.58976672       34       0.03424043      -0.04356301       0.11006122
O        4.64403298       1.91877455       6.94732040       35       0.03424043       0.04356301      -0.11006122
O        1.92281917       1.91877455       0.82122316       36       0.03424043       0.04356301       0.11006122
O        4.64403298       0.90820218      14.71586395       37       0.03424043      -0.04356301      -0.11006122
O        3.51960845       4.74575129       6.94732040       38      -0.03424043       0.04356301      -0.11006122
O        0.79839464       3.73517892       8.58976672       39      -0.03424043      -0.04356301       0.11006122
40
Lattice="5.440404263179002 7.136261506933195e-43 0.0 -7.247360168828278e-43 5.677864811214793 0.0 0.0 0.0 15.477409480411636" Properties=species:S:1:pos:R:3:spacegroup_kinds:I:1:forces:R:3 spacegroup="P 1" unit_cell=conventional occupancy="_JSON {\"0\": {\"In\": 1}, \"1\": {\"In\": 1}, \"2\": {\"In\": 1}, \"3\": {\"In\": 1}, \"4\": {\"In\": 1}, \"5\": {\"In\": 1}, \"6\": {\"In\": 1}, \"7\": {\"In\": 1}, \"8\": {\"In\": 1}, \"9\": {\"In\": 1}, \"10\": {\"In\": 1}, \"11\": {\"In\": 1}, \"12\": {\"In\": 1}, \"13\": {\"In\": 1}, \"14\": {\"In\": 1}, \"15\": {\"In\": 1}, \"16\": {\"O\": 1}, \"17\": {\"O\": 1}, \"18\": {\"O\": 1}, \"19\": {\"O\": 1}, \"20\": {\"O\": 1}, \"21\": {\"O\": 1}, \"22\": {\"O\": 1}, \"23\": {\"O\": 1}, \"24\": {\"O\": 1}, \"25\": {\"O\": 1}, \"26\": {\"O\": 1}, \"27\": {\"O\": 1}, \"28\": {\"O\": 1}, \"29\": {\"O\": 1}, \"30\": {\"O\": 1}, \"31\": {\"O\": 1}, \"32\": {\"O\": 1}, \"33\": {\"O\": 1}, \"34\": {\"O\": 1}, \"35\": {\"O\": 1}, \"36\": {\"O\": 1}, \"37\": {\"O\": 1}, \"38\": {\"O\": 1}, \"39\": {\"O\": 1}}" n_minim_iter=2 energy=-45150.20283441072 stress="-0.0023564290291035257 3.6094560697010605e-14 4.966957928163119e-13 3.6094560697010605e-14 -0.001674446746770388 9.729400660420194e-13 4.966957928163119e-13 9.729400660420194e-13 -0.0022463474832602917" free_energy=-45150.20283441072 pbc="T T T"
In       2.73035822       4.55310551       8.84637819        0      -0.04676031       0.02064075       0.13015834
In       0.01015609       3.96369171       6.63103129        1      -0.04676031      -0.02064075      -0.13015834
In       2.71004604       1.71417310      14.36973603        2       0.04676031       0.02064075      -0.13015834
In       5.43024817       1.12475930       1.10767345        3       0.04676031      -0.02064075       0.13015834
In       2.71004604       1.12475930       6.63103129        4       0.04676031      -0.02064075      -0.13015834
In       5.43024817       1.71417310       8.84637819        5       0.04676031       0.02064075       0.13015834
In       2.73035822       3.96369171       1.10767345        6      -0.04676031      -0.02064075       0.13015834
In       0.01015609       4.55310551      14.36973603        7      -0.04676031       0.02064075      -0.13015834
In       2.72270161       4.25017607      12.64249154        8       0.02488778      -0.03488327      -0.08931017
In       5.44290375       4.26662115       2.83491794        9       0.02488778       0.03488327       0.08931017
In       2.71770265       1.41124366      10.57362268       10      -0.02488778      -0.03488327       0.08931017
In      -0.00249948       1.42768874       4.90378680       11      -0.02488778       0.03488327      -0.08931017
In       2.71770265       1.42768874       2.83491794       12      -0.02488778       0.03488327       0.08931017
In      -0.00249948       1.41124366      12.64249154       13      -0.02488778      -0.03488327      -0.08931017
In       2.72270161       4.26662115       4.90378680       14       0.02488778       0.03488327      -0.08931017
In       5.44290375       4.25017607      10.57362268       15       0.02488778      -0.03488327       0.08931017
O        4.68347695       5.02827058      12.36676991       16       0.06685673       0.06224129       0.00998347
O        1.96327482       3.48852664       3.11063957       17       0.06685673      -0.06224129      -0.00998347
O        0.75692731       2.18933817      10.84934431       18      -0.06685673       0.06224129      -0.00998347
O        3.47712944       0.64959423       4.62806517       19      -0.06685673      -0.06224129       0.00998347
O        0.75692731       0.64959423       3.11063957       20      -0.06685673      -0.06224129      -0.00998347
O        3.47712944       2.18933817      12.36676991       21      -0.06685673       0.06224129       0.00998347
O        4.68347695       3.48852664       4.62806517       22       0.06685673      -0.06224129       0.00998347
O        1.96327482       5.02827058      10.84934431       23       0.06685673       0.06224129      -0.00998347
O        3.84719583       3.01744242       9.71666319       24       0.03613298       0.02755130       0.13830952
O        1.12699370       5.49935479       5.76074629       25       0.03613298      -0.02755130      -0.13830952
O        1.59320843       0.17851002      13.49945103       26      -0.03613298       0.02755130      -0.13830952
O        4.31341056       2.66042239       1.97795845       27      -0.03613298      -0.02755130       0.13830952
O        1.59320843       2.66042239       5.76074629       28      -0.03613298      -0.02755130      -0.13830952
O        4.31341056       0.17851002       9.71666319       29      -0.03613298       0.02755130       0.13830952
O        3.84719583       5.49935479       1.97795845       30       0.03613298      -0.02755130       0.13830952
O        1.12699370       3.01744242      13.49945103       31       0.03613298       0.02755130      -0.13830952
O        3.51820963       3.75086006      14.65905130       32      -0.00312604      -0.06571967      -0.15099354
O        0.79800749       4.76593716       0.81835819       33      -0.00312604       0.06571967       0.15099354
O        1.92219464       0.91192765       8.55706293       34       0.00312604      -0.06571967       0.15099354
O        4.64239677       1.92700476       6.92034655       35       0.00312604       0.06571967      -0.15099354
O        1.92219464       1.92700476       0.81835819       36       0.00312604       0.06571967       0.15099354
O        4.64239677       0.91192765      14.65905130       37       0.00312604      -0.06571967      -0.15099354
O        3.51820963       4.76593716       6.92034655       38      -0.00312604       0.06571967      -0.15099354
O        0.79800749       3.75086006       8.55706293       39      -0.00312604      -0.06571967       0.15099354
40
Lattice="5.473842876940516 7.238860040099664e-43 0.0 -7.250236583527624e-43 5.680415094771564 0.0 0.0 0.0 15.375954773394007" Properties=species:S:1:pos:R:3:spacegroup_kinds:I:1:forces:R:3 spacegroup="P 1" unit_cell=conventional occupancy="_JSON {\"0\": {\"In\": 1}, \"1\": {\"In\": 1}, \"2\": {\"In\": 1}, \"3\": {\"In\": 1}, \"4\": {\"In\": 1}, \"5\": {\"In\": 1}, \"6\": {\"In\": 1}, \"7\": {\"In\": 1}, \"8\": {\"In\": 1}, \"9\": {\"In\": 1}, \"10\": {\"In\": 1}, \"11\": {\"In\": 1}, \"12\": {\"In\": 1}, \"13\": {\"In\": 1}, \"14\": {\"In\": 1}, \"15\": {\"In\": 1}, \"16\": {\"O\": 1}, \"17\": {\"O\": 1}, \"18\": {\"O\": 1}, \"19\": {\"O\": 1}, \"20\": {\"O\": 1}, \"21\": {\"O\": 1}, \"22\": {\"O\": 1}, \"23\": {\"O\": 1}, \"24\": {\"O\": 1}, \"25\": {\"O\": 1}, \"26\": {\"O\": 1}, \"27\": {\"O\": 1}, \"28\": {\"O\": 1}, \"29\": {\"O\": 1}, \"30\": {\"O\": 1}, \"31\": {\"O\": 1}, \"32\": {\"O\": 1}, \"33\": {\"O\": 1}, \"34\": {\"O\": 1}, \"35\": {\"O\": 1}, \"36\": {\"O\": 1}, \"37\": {\"O\": 1}, \"38\": {\"O\": 1}, \"39\": {\"O\": 1}}" n_minim_iter=3 energy=-45150.221931641616 stress="0.006775646939135581 -9.137039152759098e-13 -2.301716190032332e-13 -9.137039152759098e-13 0.0004649989914114152 8.520516821536108e-14 -2.301716190032332e-13 8.520516821536108e-14 -0.0014641485310731004" free_energy=-45150.221931641616 pbc="T T T"
In       2.74440334       4.55628202       8.79627500        0      -0.01476779      -0.06390659      -0.02249972
In       0.00748190       3.96434062       6.57967978        1      -0.01476779       0.06390659       0.02249972
In       2.72943954       1.71607448      14.26765716        2       0.01476779      -0.06390659       0.02249972
In       5.46636098       1.12413307       1.10829761        3       0.01476779       0.06390659      -0.02249972
In       2.72943954       1.12413307       6.57967978        4       0.01476779       0.06390659       0.02249972
In       5.46636098       1.71607448       8.79627500        5       0.01476779      -0.06390659      -0.02249972
In       2.74440334       3.96434062       1.10829761        6      -0.01476779       0.06390659      -0.02249972
In       0.00748190       4.55628202      14.26765716        7      -0.01476779      -0.06390659       0.02249972
In       2.74088952       4.25015472      12.55386681        8       0.10430714       0.02685853      -0.09465456
In       5.47781095       4.27046792       2.82208796        9       0.10430714      -0.02685853       0.09465456
In       2.73295336       1.40994717      10.51006535       10      -0.10430714       0.02685853       0.09465456
In      -0.00396808       1.43026038       4.86588942       11      -0.10430714      -0.02685853      -0.09465456
In       2.73295336       1.43026038       2.82208796       12      -0.10430714      -0.02685853       0.09465456
In      -0.00396808       1.40994717      12.55386681       13      -0.10430714       0.02685853      -0.09465456
In       2.74088952       4.27046792       4.86588942       14       0.10430714      -0.02685853      -0.09465456
In       5.47781095       4.25015472      10.51006535       15       0.10430714       0.02685853       0.09465456
O        4.71668200       5.03436173      12.28620230       16      -0.08356648       0.07176692      -0.01265550
O        1.97976056       3.48626092       3.08975247       17      -0.08356648      -0.07176692       0.01265550
O        0.75716088       2.19415418      10.77772986       18       0.08356648       0.07176692       0.01265550
O        3.49408232       0.64605337       4.59822491       19       0.08356648      -0.07176692      -0.01265550
O        0.75716088       0.64605337       3.08975247       20       0.08356648      -0.07176692       0.01265550
O        3.49408232       2.19415418      12.28620230       21       0.08356648       0.07176692      -0.01265550
O        4.71668200       3.48626092       4.59822491       22      -0.08356648      -0.07176692      -0.01265550
O        1.97976056       5.03436173      10.77772986       23      -0.08356648       0.07176692       0.01265550
O        3.87337815       3.02053570       9.66168505       24      -0.02236605       0.00843441       0.15853143
O        1.13645671       5.50008694       5.71426973       25      -0.02236605      -0.00843441      -0.15853143
O        1.60046473       0.18032815      13.40224711       26       0.02236605       0.00843441      -0.15853143
O        4.33738617       2.65987939       1.97370766       27       0.02236605      -0.00843441       0.15853143
O        1.60046473       2.65987939       5.71426973       28       0.02236605      -0.00843441      -0.15853143
O        4.33738617       0.18032815       9.66168505       29       0.02236605       0.00843441       0.15853143
O        3.87337815       5.50008694       1.97370766       30      -0.02236605      -0.00843441       0.15853143
O        1.13645671       3.02053570      13.40224711       31      -0.02236605       0.00843441      -0.15853143
O        3.53940134       3.74845737      14.55370627       32       0.04689216      -0.02809510      -0.06414252
O        0.80247990       4.77216527       0.82224851       33       0.04689216       0.02809510       0.06414252
O        1.93444154       0.90824982       8.51022589       34      -0.04689216      -0.02809510       0.06414252
O        4.67136298       1.93195772       6.86572888       35      -0.04689216       0.02809510      -0.06414252
O        1.93444154       1.93195772       0.82224851       36      -0.04689216       0.02809510       0.06414252
O        4.67136298       0.90824982      14.55370627       37      -0.04689216      -0.02809510      -0.06414252
O        3.53940134       4.77216527       6.86572888       38       0.04689216       0.02809510      -0.06414252
O        0.80247990       3.74845737       8.51022589       39       0.04689216      -0.02809510       0.06414252
40
Lattice="5.452324960549819 6.438416622360695e-43 0.0 -7.339505714427124e-43 5.697181957228831 0.0 0.0 0.0 15.391206695938765" Properties=species:S:1:pos:R:3:spacegroup_kinds:I:1:forces:R:3 spacegroup="P 1" unit_cell=conventional occupancy="_JSON {\"0\": {\"In\": 1}, \"1\": {\"In\": 1}, \"2\": {\"In\": 1}, \"3\": {\"In\": 1}, \"4\": {\"In\": 1}, \"5\": {\"In\": 1}, \"6\": {\"In\": 1}, \"7\": {\"In\": 1}, \"8\": {\"In\": 1}, \"9\": {\"In\": 1}, \"10\": {\"In\": 1}, \"11\": {\"In\": 1}, \"12\": {\"In\": 1}, \"13\": {\"In\": 1}, \"14\": {\"In\": 1}, \"15\": {\"In\": 1}, \"16\": {\"O\": 1}, \"17\": {\"O\": 1}, \"18\": {\"O\": 1}, \"19\": {\"O\": 1}, \"20\": {\"O\": 1}, \"21\": {\"O\": 1}, \"22\": {\"O\": 1}, \"23\": {\"O\": 1}, \"24\": {\"O\": 1}, \"25\": {\"O\": 1}, \"26\": {\"O\": 1}, \"27\": {\"O\": 1}, \"28\": {\"O\": 1}, \"29\": {\"O\": 1}, \"30\": {\"O\": 1}, \"31\": {\"O\": 1}, \"32\": {\"O\": 1}, \"33\": {\"O\": 1}, \"34\": {\"O\": 1}, \"35\": {\"O\": 1}, \"36\": {\"O\": 1}, \"37\": {\"O\": 1}, \"38\": {\"O\": 1}, \"39\": {\"O\": 1}}" n_minim_iter=4 energy=-45150.234409610224 stress="0.003969668418443384 -6.871328351741207e-13 -1.2211157438327745e-12 -6.871328351741207e-13 0.004751162324081214 4.783491835646161e-13 -1.2211157438327745e-12 4.783491835646161e-13 0.0028635908842654127" free_energy=-45150.234409610224 pbc="T T T"
In       2.73207834       4.57014576       8.80926440        0       0.07160773      -0.03316682      -0.12955057
In       0.00591586       3.97562717       6.58194229        1       0.07160773       0.03316682       0.12955057
In       2.72024662       1.72155478      14.27754564        2      -0.07160773      -0.03316682       0.12955057
In       5.44640910       1.12703620       1.11366105        3      -0.07160773       0.03316682      -0.12955057
In       2.72024662       1.12703620       6.58194229        4      -0.07160773       0.03316682       0.12955057
In       5.44640910       1.72155478       8.80926440        5      -0.07160773      -0.03316682      -0.12955057
In       2.73207834       3.97562717       1.11366105        6       0.07160773       0.03316682      -0.12955057
In       0.00591586       4.57014576      14.27754564        7       0.07160773      -0.03316682       0.12955057
In       2.73123412       4.26173144      12.56285445        8       0.06579515       0.02578698      -0.05928780
In       5.45739660       4.28404149       2.82835225        9       0.06579515      -0.02578698       0.05928780
In       2.72109084       1.41314046      10.52395559       10      -0.06579515       0.02578698       0.05928780
In      -0.00507164       1.43545051       4.86725110       11      -0.06579515      -0.02578698      -0.05928780
In       2.72109084       1.43545051       2.82835225       12      -0.06579515      -0.02578698       0.05928780
In      -0.00507164       1.41314046      12.56285445       13      -0.06579515       0.02578698      -0.05928780
In       2.73123412       4.28404149       4.86725110       14       0.06579515      -0.02578698      -0.05928780
In       5.45739660       4.26173144      10.52395559       15       0.06579515       0.02578698       0.05928780
O        4.70030577       5.05155748      12.29861924       16      -0.07370193       0.06386454      -0.04333068
O        1.97414329       3.49421545       3.09258745       17      -0.07370193      -0.06386454       0.04333068
O        0.75201919       2.20296650      10.78819080       18       0.07370193       0.06386454       0.04333068
O        3.47818167       0.64562447       4.60301589       19       0.07370193      -0.06386454      -0.04333068
O        0.75201919       0.64562447       3.09258745       20       0.07370193      -0.06386454       0.04333068
O        3.47818167       2.20296650      12.29861924       21       0.07370193       0.06386454      -0.04333068
O        4.70030577       3.49421545       4.60301589       22      -0.07370193      -0.06386454      -0.04333068
O        1.97414329       5.05155748      10.78819080       23      -0.07370193       0.06386454       0.04333068
O        3.85948059       3.03043618       9.67655645       24      -0.05174547       0.00469030       0.12588562
O        1.13331811       5.51533676       5.71465025       25      -0.05174547      -0.00469030      -0.12588562
O        1.59284437       0.18184520      13.41025360       26       0.05174547       0.00469030      -0.12588561
O        4.31900685       2.66674578       1.98095310       27       0.05174547      -0.00469030       0.12588561
O        1.59284437       2.66674578       5.71465025       28       0.05174547      -0.00469030      -0.12588561
O        4.31900685       0.18184520       9.67655645       29       0.05174547       0.00469030       0.12588561
O        3.85948059       5.51533676       1.98095310       30      -0.05174547      -0.00469030       0.12588561
O        1.13331811       3.03043618      13.41025360       31      -0.05174547       0.00469030      -0.12588562
O        3.52538900       3.75718189      14.56285636       32      -0.00954217      -0.03335121       0.03098154
O        0.79922652       4.78859104       0.82835034       33      -0.00954217       0.03335121      -0.03098154
O        1.92693596       0.90859091       8.52395369       34       0.00954217      -0.03335121      -0.03098154
O        4.65309844       1.94000006       6.86725301       35       0.00954217       0.03335121       0.03098154
O        1.92693596       1.94000006       0.82835034       36       0.00954217       0.03335121      -0.03098154
O        4.65309844       0.90859091      14.56285636       37       0.00954217      -0.03335121       0.03098154
O        3.52538900       4.78859104       6.86725301       38      -0.00954217       0.03335121       0.03098154
O        0.79922652       3.75718189       8.52395369       39      -0.00954217      -0.03335121      -0.03098154
40
Lattice="5.449946585561107 9.610644262524757e-43 0.0 -2.6974763266303637e-43 5.677174754682903 0.0 0.0 0.0 15.452188027320803" Properties=species:S:1:pos:R:3:spacegroup_kinds:I:1:forces:R:3 spacegroup="P 1" unit_cell=conventional occupancy="_JSON {\"0\": {\"In\": 1}, \"1\": {\"In\": 1}, \"2\": {\"In\": 1}, \"3\": {\"In\": 1}, \"4\": {\"In\": 1}, \"5\": {\"In\": 1}, \"6\": {\"In\": 1}, \"7\": {\"In\": 1}, \"8\": {\"In\": 1}, \"9\": {\"In\": 1}, \"10\": {\"In\": 1}, \"11\": {\"In\": 1}, \"12\": {\"In\": 1}, \"13\": {\"In\": 1}, \"14\": {\"In\": 1}, \"15\": {\"In\": 1}, \"16\": {\"O\": 1}, \"17\": {\"O\": 1}, \"18\": {\"O\": 1}, \"19\": {\"O\": 1}, \"20\": {\"O\": 1}, \"21\": {\"O\": 1}, \"22\": {\"O\": 1}, \"23\": {\"O\": 1}, \"24\": {\"O\": 1}, \"25\": {\"O\": 1}, \"26\": {\"O\": 1}, \"27\": {\"O\": 1}, \"28\": {\"O\": 1}, \"29\": {\"O\": 1}, \"30\": {\"O\": 1}, \"31\": {\"O\": 1}, \"32\": {\"O\": 1}, \"33\": {\"O\": 1}, \"34\": {\"O\": 1}, \"35\": {\"O\": 1}, \"36\": {\"O\": 1}, \"37\": {\"O\": 1}, \"38\": {\"O\": 1}, \"39\": {\"O\": 1}}" n_minim_iter=5 energy=-45150.24744414376 stress="0.002950942588393255 6.662787367861602e-13 -9.206509466706611e-13 6.662787367861602e-13 0.001854703862825546 1.7771634770772242e-13 -9.206509466706611e-13 1.7771634770772242e-13 0.007223145567665452" free_energy=-45150.24744414376 pbc="T T T"
In       2.73382986       4.55267573       8.84000226        0       0.08104595      -0.04366663      -0.02602595
In       0.00885657       3.96308640       6.61218576        1       0.08104595       0.04366663       0.02602595
In       2.71611673       1.71408835      14.33827978        2      -0.08104595      -0.04366663       0.02602595
In       5.44109002       1.12449903       1.11390825        3      -0.08104595       0.04366663      -0.02602595
In       2.71611673       1.12449903       6.61218576        4      -0.08104595       0.04366663       0.02602595
In       5.44109002       1.71408835       8.84000226        5      -0.08104595      -0.04366663      -0.02602595
In       2.73382986       3.96308640       1.11390825        6       0.08104595       0.04366663      -0.02602595
In       0.00885657       4.55267573      14.33827978        7       0.08104595      -0.04366663       0.02602595
In       2.73314315       4.24783019      12.60838498        8       0.02711648       0.02595798      -0.02922647
In       5.45811644       4.26793194       2.84380305        9       0.02711648      -0.02595798       0.02922647
In       2.71680343       1.40924281      10.56989706       10      -0.02711648       0.02595798       0.02922647
In      -0.00816986       1.42934456       4.88229097       11      -0.02711648      -0.02595798      -0.02922647
In       2.71680343       1.42934456       2.84380305       12      -0.02711648      -0.02595798       0.02922647
In      -0.00816986       1.40924281      12.60838498       13      -0.02711648       0.02595798      -0.02922647
In       2.73314315       4.26793194       4.88229097       14       0.02711648      -0.02595798      -0.02922647
In       5.45811644       4.24783019      10.56989706       15       0.02711648       0.02595798       0.02922647
O        4.69626623       5.03747253      12.34536356       16      -0.01650621       0.02351725       0.02468029
O        1.97129294       3.47828961       3.10682447       17      -0.01650621      -0.02351725      -0.02468029
O        0.75368035       2.19888515      10.83291848       18       0.01650621       0.02351725      -0.02468029
O        3.47865365       0.63970223       4.61926955       19       0.01650621      -0.02351725       0.02468029
O        0.75368035       0.63970223       3.10682447       20       0.01650621      -0.02351725      -0.02468029
O        3.47865365       2.19888515      12.34536356       21       0.01650621       0.02351725       0.02468029
O        4.69626623       3.47828961       4.61926955       22      -0.01650621      -0.02351725       0.02468029
O        1.97129294       5.03747253      10.83291848       23      -0.01650621       0.02351725      -0.02468029
O        3.85637043       3.02040744       9.72269835       24      -0.01411499       0.00779427       0.06935506
O        1.13139714       5.49535469       5.72948968       25      -0.01411499      -0.00779427      -0.06935506
O        1.59357615       0.18182007      13.45558369       26       0.01411499       0.00779427      -0.06935506
O        4.31854944       2.65676731       1.99660434       27       0.01411499      -0.00779427       0.06935506
O        1.59357615       2.65676731       5.72948968       28       0.01411499      -0.00779427      -0.06935506
O        4.31854944       0.18182007       9.72269835       29       0.01411499       0.00779427       0.06935506
O        3.85637043       5.49535469       1.99660434       30      -0.01411499      -0.00779427       0.06935506
O        1.13139714       3.02040744      13.45558369       31      -0.01411499       0.00779427      -0.06935506
O        3.52294975       3.74159259      14.61992945       32      -0.01005250       0.01389059       0.03500208
O        0.79797645       4.77416954       0.83225858       33      -0.01005250      -0.01389059      -0.03500208
O        1.92699684       0.90300521       8.55835259       34       0.01005250       0.01389059      -0.03500207
O        4.65197013       1.93558216       6.89383544       35       0.01005250      -0.01389059       0.03500208
O        1.92699684       1.93558216       0.83225858       36       0.01005250      -0.01389059      -0.03500208
O        4.65197013       0.90300521      14.61992945       37       0.01005250       0.01389059       0.03500207
O        3.52294975       4.77416954       6.89383544       38      -0.01005250      -0.01389059       0.03500208
O        0.79797645       3.74159259       8.55835259       39      -0.01005250       0.01389059      -0.03500208
40