40
Lattice="5.715250750107483 -2.071832286268681e-42 0.0 1.947264857784491e-42 5.881543664279099 0.0 0.0 0.0 16.529305612701037" Properties=species:S:1:pos:R:3:spacegroup_kinds:I:1:forces:R:3 spacegroup="P 1" unit_cell=conventional occupancy="_JSON {\"0\": {\"In\": 1}, \"1\": {\"In\": 1}, \"2\": {\"In\": 1}, \"3\": {\"In\": 1}, \"4\": {\"In\": 1}, \"5\": {\"In\": 1}, \"6\": {\"In\": 1}, \"7\": {\"In\": 1}, \"8\": {\"In\": 1}, \"9\": {\"In\": 1}, \"10\": {\"In\": 1}, \"11\": {\"In\": 1}, \"12\": {\"In\": 1}, \"13\": {\"In\": 1}, \"14\": {\"In\": 1}, \"15\": {\"In\": 1}, \"16\": {\"O\": 1}, \"17\": {\"O\": 1}, \"18\": {\"O\": 1}, \"19\": {\"O\": 1}, \"20\": {\"O\": 1}, \"21\": {\"O\": 1}, \"22\": {\"O\": 1}, \"23\": {\"O\": 1}, \"24\": {\"O\": 1}, \"25\": {\"O\": 1}, \"26\": {\"O\": 1}, \"27\": {\"O\": 1}, \"28\": {\"O\": 1}, \"29\": {\"O\": 1}, \"30\": {\"O\": 1}, \"31\": {\"O\": 1}, \"32\": {\"O\": 1}, \"33\": {\"O\": 1}, \"34\": {\"O\": 1}, \"35\": {\"O\": 1}, \"36\": {\"O\": 1}, \"37\": {\"O\": 1}, \"38\": {\"O\": 1}, \"39\": {\"O\": 1}}" n_minim_iter=13 energy=-45150.17068220751 stress="0.011305787793517643 1.5807863969977622e-12 -6.552406586523884e-13 1.5807863969977622e-12 0.011321711790616685 3.095648757361368e-14 -6.552406586523884e-13 3.095648757361368e-14 0.011300172456748395" free_energy=-45150.17068220751 pbc="T T T"
In       2.85974933       4.70121906       9.42869213        0      -0.00731029      -0.00343129       0.00011838
In       0.00212396       4.12109644       7.10061348        1      -0.00731029       0.00343129      -0.00011838
In       2.85550142       1.76044722      15.36526629        2       0.00731029      -0.00343129      -0.00011838
In       5.71312679       1.18032461       1.16403932        3       0.00731029       0.00343129       0.00011838
In       2.85550142       1.18032461       7.10061348        4       0.00731029       0.00343129      -0.00011838
In       5.71312679       1.76044722       9.42869213        5       0.00731029      -0.00343129       0.00011838
In       2.85974933       4.12109644       1.16403932        6      -0.00731029       0.00343129       0.00011838
In       0.00212396       4.70121906      15.36526629        7      -0.00731029      -0.00343129      -0.00011838
In       2.84368271       4.39301654      13.53270536        8      -0.00773118      -0.00186777      -0.00269758
In       5.70130808       4.42929896       2.99660026        9      -0.00773118       0.00186777       0.00269758
In       2.87156804       1.45224471      11.26125306       10       0.00773118      -0.00186777       0.00269758
In       0.01394267       1.48852712       5.26805255       11       0.00773118       0.00186777      -0.00269758
In       2.87156804       1.48852712       2.99660026       12       0.00773118       0.00186777       0.00269758
In       0.01394267       1.45224471      13.53270536       13       0.00773118      -0.00186777      -0.00269758
In       2.84368271       4.42929896       5.26805255       14      -0.00773118       0.00186777      -0.00269758
In       5.70130808       4.39301654      11.26125306       15      -0.00773118      -0.00186777       0.00269758
O        4.91676113       5.16196786      13.18898442       16       0.00440767      -0.00303314      -0.00251545
O        2.05913576       3.66034764       3.34032120       17       0.00440767       0.00303314       0.00251545
O        0.79848962       2.22119603      11.60497400       18      -0.00440767      -0.00303314       0.00251545
O        3.65611499       0.71957580       4.92433161       19      -0.00440767       0.00303314      -0.00251545
O        0.79848962       0.71957580       3.34032120       20      -0.00440767       0.00303314       0.00251545
O        3.65611499       2.22119603      13.18898442       21      -0.00440767      -0.00303314      -0.00251545
O        4.91676113       3.66034764       4.92433161       22       0.00440767       0.00303314      -0.00251545
O        2.05913576       5.16196786      11.60497400       23       0.00440767      -0.00303314       0.00251545
O        4.03137782       3.09623747      10.30495455       24       0.00057651      -0.00196725       0.00106124
O        1.17375245       5.72607803       6.22435106       25       0.00057651       0.00196725      -0.00106124
O        1.68387293       0.15546564      14.48900387       26      -0.00057651      -0.00196725      -0.00106124
O        4.54149830       2.78530619       2.04030175       27      -0.00057651       0.00196725       0.00106124
O        1.68387293       2.78530619       6.22435106       28      -0.00057651       0.00196725      -0.00106124
O        4.54149830       0.15546564      10.30495455       29      -0.00057651      -0.00196725       0.00106124
O        4.03137782       5.72607803       2.04030175       30       0.00057651       0.00196725       0.00106124
O        1.17375245       3.09623747      14.48900387       31       0.00057651      -0.00196725      -0.00106124
O        3.70588118       3.88309894      15.66863823       32      -0.00127696       0.00259444       0.00256996
O        0.84825581       4.93921655       0.86066738       33      -0.00127696      -0.00259444      -0.00256996
O        2.00936957       0.94232711       9.12532018       34       0.00127696       0.00259444      -0.00256996
O        4.86699494       1.99844472       7.40398543       35       0.00127696      -0.00259444       0.00256996
O        2.00936957       1.99844472       0.86066738       36       0.00127696      -0.00259444      -0.00256996
O        4.86699494       0.94232711      15.66863823       37       0.00127696       0.00259444       0.00256996
O        3.70588118       4.93921655       7.40398543       38      -0.00127696      -0.00259444       0.00256996
O        0.84825581       3.88309894       9.12532018       39      -0.00127696       0.00259444      -0.00256996
