40
Lattice="8.994599478794633 7.049740190391756e-10 -1.8417597342058358e-15 -2.9981998269295334 8.480189713781902 -1.2210478259341677e-09 -2.998199825932548 -4.240094856185978 7.344059721860648" Properties=species:S:1:pos:R:3:spacegroup_kinds:I:1:forces:R:3 spacegroup="P 1" unit_cell=conventional occupancy="_JSON {\"0\": {\"In\": 1}, \"1\": {\"In\": 1}, \"2\": {\"In\": 1}, \"3\": {\"In\": 1}, \"4\": {\"In\": 1}, \"5\": {\"In\": 1}, \"6\": {\"In\": 1}, \"7\": {\"In\": 1}, \"8\": {\"In\": 1}, \"9\": {\"In\": 1}, \"10\": {\"In\": 1}, \"11\": {\"In\": 1}, \"12\": {\"In\": 1}, \"13\": {\"In\": 1}, \"14\": {\"In\": 1}, \"15\": {\"In\": 1}, \"16\": {\"O\": 1}, \"17\": {\"O\": 1}, \"18\": {\"O\": 1}, \"19\": {\"O\": 1}, \"20\": {\"O\": 1}, \"21\": {\"O\": 1}, \"22\": {\"O\": 1}, \"23\": {\"O\": 1}, \"24\": {\"O\": 1}, \"25\": {\"O\": 1}, \"26\": {\"O\": 1}, \"27\": {\"O\": 1}, \"28\": {\"O\": 1}, \"29\": {\"O\": 1}, \"30\": {\"O\": 1}, \"31\": {\"O\": 1}, \"32\": {\"O\": 1}, \"33\": {\"O\": 1}, \"34\": {\"O\": 1}, \"35\": {\"O\": 1}, \"36\": {\"O\": 1}, \"37\": {\"O\": 1}, \"38\": {\"O\": 1}, \"39\": {\"O\": 1}}" n_minim_iter=1 energy=-45151.092940251394 stress="0.017162232036352584 -2.630362138248112e-12 1.239518409205987e-12 -2.630362138248112e-12 0.01716223203582654 -9.450156009065657e-13 1.239518409205987e-12 -9.450156009065657e-13 0.017162232032615347" free_energy=-45151.092940251394 pbc="T T T"
In      -4.29346910       3.03594112       5.75768532        0       0.00418763      -0.00296110       0.00512878
In       7.29166892       1.20415375       1.58637439        1      -0.00418763       0.00296110      -0.00512878
In       1.29526927      -0.91589368       5.25840425        2      -0.00418763       0.00296110      -0.00512878
In      -1.49909991      -2.12004743       3.67202986        3       0.00000000       0.00000000      -0.00000000
In      -1.29526927       4.09596483       3.42238932        4       0.00418763      -0.00296110      -0.00512878
In       4.70113038      -2.89181108       5.50804479        5       0.00418763       0.00592220       0.00000000
In      -1.29526927       1.34828378       5.50804479        6       0.00418763       0.00592220      -0.00000000
In      -1.70293056       7.13190594       1.83601493        7      -0.00418763      -0.00592220       0.00000000
In       4.29346910       0.14413003       3.92167039        8      -0.00418763       0.00296110       0.00512878
In      -1.49909991       4.24009486      -0.00000000        9       0.00000000      -0.00000000       0.00000000
In       4.29346909       6.50427232       0.24964053       10      -0.00418763       0.00296110       0.00512878
In      -1.29526927      -2.26417746       7.09441919       11       0.00418763      -0.00296110      -0.00512878
In       4.29346910       2.89181109       1.83601493       12      -0.00418763      -0.00592220       0.00000000
In       1.70293055       5.15598854       2.08565546       13       0.00418763      -0.00296110       0.00512878
In       4.49729974       0.00000000      -0.00000000       14       0.00000000       0.00000000       0.00000000
In       1.49909991       2.12004743       3.67202986       15      -0.00000000      -0.00000000      -0.00000000
O        0.88392833       4.24035671       3.99682256       16      -0.04081255       0.00917129       0.05544029
O       -2.11427149       3.46121895       5.34542167       17      -0.04081255       0.04342705      -0.03566271
O       -0.43944160       2.27693537       0.05260127       18       0.03598601      -0.01087773       0.05839593
O       -0.88392833      -0.77861406       1.99818451       19       0.04081255       0.05259834       0.01977758
O        3.96802568       5.04907828       1.94558323       20       0.05454760      -0.01888343      -0.03861835
O        2.02837397       2.95966206       1.67339181       21      -0.05454760       0.02400276      -0.03566271
O        2.02837397       6.32951108       0.27219142       22      -0.05454760      -0.04288619      -0.00295564
O       -2.29319579       6.01547334       3.72463113       23       0.02225096      -0.03030202       0.05839593
O        3.43764142       1.96315949       7.29145844       24      -0.03598601       0.01087773      -0.05839593
O        5.29139561      -1.77537848       3.61942858       25      -0.02225096       0.03030202      -0.05839593
O        6.43584125       3.30406915       1.72644662       26      -0.03598601       0.04513349       0.03861835
O        3.70320387       2.33793594       3.94422128       27       0.02225096       0.06572337      -0.00295564
O        0.70500404       4.36687529       7.01926702       28       0.02225096      -0.03542135      -0.05544029
O        2.29319578      -0.12678043       0.32479270       29      -0.02225096       0.03542135       0.05544029
O       -3.43764143       0.93602571       5.61761309       30       0.03598601      -0.04513349      -0.03861835
O        5.11247132       0.77887591       1.99863805       31       0.04081255      -0.04342705       0.03566271
O        0.96982585       1.28043280       5.67066791       32       0.05454760      -0.02400276       0.03566271
O        3.43764142      -1.02713378       5.67021437       33      -0.03598601      -0.05601122       0.01977758
O        2.11427149      -0.00026185       3.34723716       34       0.04081255      -0.00917129      -0.05544029
O        0.96982585      -2.08941621       7.07186829       35       0.05454760       0.04288619       0.00295564
O       -0.70500404       1.90215892       3.39983843       36      -0.02225096      -0.06572337       0.00295564
O       -0.96982586      -0.80898342       5.39847648       37      -0.05454760       0.01888343       0.03861835
O       -0.43944160       5.26722864       1.67384535       38       0.03598601       0.05601122      -0.01977758
O        3.88212816       5.01870892       5.34587521       39      -0.04081255      -0.05259834      -0.01977758
40
Lattice="8.994599478794632 7.049740190391755e-10 -1.8417597342058354e-15 -2.998199826929533 8.4801897137819 -1.2210478259341675e-09 -2.9981998259325477 -4.240094856185977 7.344059721860647" Properties=species:S:1:pos:R:3:spacegroup_kinds:I:1:forces:R:3 spacegroup="P 1" unit_cell=conventional occupancy="_JSON {\"0\": {\"In\": 1}, \"1\": {\"In\": 1}, \"2\": {\"In\": 1}, \"3\": {\"In\": 1}, \"4\": {\"In\": 1}, \"5\": {\"In\": 1}, \"6\": {\"In\": 1}, \"7\": {\"In\": 1}, \"8\": {\"In\": 1}, \"9\": {\"In\": 1}, \"10\": {\"In\": 1}, \"11\": {\"In\": 1}, \"12\": {\"In\": 1}, \"13\": {\"In\": 1}, \"14\": {\"In\": 1}, \"15\": {\"In\": 1}, \"16\": {\"O\": 1}, \"17\": {\"O\": 1}, \"18\": {\"O\": 1}, \"19\": {\"O\": 1}, \"20\": {\"O\": 1}, \"21\": {\"O\": 1}, \"22\": {\"O\": 1}, \"23\": {\"O\": 1}, \"24\": {\"O\": 1}, \"25\": {\"O\": 1}, \"26\": {\"O\": 1}, \"27\": {\"O\": 1}, \"28\": {\"O\": 1}, \"29\": {\"O\": 1}, \"30\": {\"O\": 1}, \"31\": {\"O\": 1}, \"32\": {\"O\": 1}, \"33\": {\"O\": 1}, \"34\": {\"O\": 1}, \"35\": {\"O\": 1}, \"36\": {\"O\": 1}, \"37\": {\"O\": 1}, \"38\": {\"O\": 1}, \"39\": {\"O\": 1}}" n_minim_iter=2 energy=-45151.09804413121 stress="0.016722070219790323 1.1315058219371805e-12 6.400770796361574e-13 1.1315058219371805e-12 0.01672207021942584 -8.175866655277793e-13 6.400770796361574e-13 -8.175866655277793e-13 0.01672207021861419" free_energy=-45151.09804413121 pbc="T T T"
In      -4.29316998       3.03572961       5.75805166        0       0.00767709      -0.00542852       0.00940247
In       7.29136981       1.20436525       1.58600805        1      -0.00767709       0.00542852      -0.00940247
In       1.29497015      -0.91568218       5.25803791        2      -0.00767709       0.00542852      -0.00940247
In      -1.49909991      -2.12004743       3.67202986        3       0.00000000      -0.00000000       0.00000000
In      -1.29497016       4.09575332       3.42202298        4       0.00767709      -0.00542852      -0.00940247
In       4.70142950      -2.89138807       5.50804479        5       0.00767709       0.01085704      -0.00000000
In      -1.29497016       1.34870679       5.50804479        6       0.00767709       0.01085704      -0.00000000
In      -1.70322967       7.13148293       1.83601493        7      -0.00767709      -0.01085704       0.00000000
In       4.29316998       0.14434154       3.92203673        8      -0.00767709       0.00542852       0.00940247
In      -1.49909991       4.24009486      -0.00000000        9      -0.00000000      -0.00000000       0.00000000
In       4.29316998       6.50448382       0.25000687       10      -0.00767709       0.00542852       0.00940247
In      -1.29497016      -2.26438896       7.09405284       11       0.00767709      -0.00542852      -0.00940247
In       4.29316998       2.89138807       1.83601493       12      -0.00767709      -0.01085704       0.00000000
In       1.70322967       5.15577704       2.08602180       13       0.00767709      -0.00542852       0.00940247
In       4.49729974       0.00000000      -0.00000000       14       0.00000000       0.00000000      -0.00000000
In       1.49909991       2.12004743       3.67202986       15      -0.00000000       0.00000000      -0.00000000
O        0.88101315       4.24101180       4.00078258       16      -0.02751477      -0.01166571       0.00058910
O       -2.11718668       3.46432088       5.34287433       17      -0.02751477       0.00634303       0.00980825
O       -0.43687117       2.27615839       0.05677241       18      -0.01418986      -0.00307910       0.02612787
O       -0.88101315      -0.77485703       1.99959719       19       0.02751477      -0.00532268       0.01039735
O        3.97192194       5.04772946       1.94282478       20       0.01515186       0.02040761      -0.01573052
O        2.02447771       2.96137654       1.67084447       21      -0.01515186       0.02382683       0.00980825
O        2.02447771       6.32644778       0.27198030       22      -0.01515186      -0.00341922      -0.02553877
O       -2.29160643       6.01330891       3.72880227       23      -0.00182695       0.01440470       0.02612787
O        3.43507099       1.96393647       7.28728731       24       0.01418986       0.00307910      -0.02612787
O        5.28980626      -1.77321405       3.61525745       25       0.00182695      -0.01440470      -0.02612787
O        6.43327082       3.30729298       1.72920508       26       0.01418986       0.02108785       0.01573052
O        3.70479322       2.34263047       3.94401016       27      -0.00182695       0.01542505      -0.02553877
O        0.70659339       4.36434520       7.01530700       28      -0.00182695      -0.02982975      -0.00058910
O        2.29160643      -0.12425033       0.32875272       29       0.00182695       0.02982975       0.00058910
O       -3.43507100       0.93280189       5.61485464       30      -0.01418986      -0.02108785      -0.01573052
O        5.11538650       0.77577398       2.00118538       31       0.02751477      -0.00634303      -0.00980825
O        0.97372211       1.27871832       5.67321524       32       0.01515186      -0.02382683      -0.00980825
O        3.43507099      -1.03113458       5.67162705       33       0.01418986      -0.02416695       0.01039735
O        2.11718667      -0.00091694       3.34327714       34       0.02751477       0.01166571      -0.00058910
O        0.97372211      -2.08635292       7.07207941       35       0.01515186       0.00341922       0.02553877
O       -0.70659340       1.89746439       3.40004955       36       0.00182695      -0.01542505       0.02553877
O       -0.97372211      -0.80763460       5.40123494       37      -0.01515186      -0.02040761       0.01573052
O       -0.43687117       5.27122944       1.67243266       38      -0.01418986       0.02416695      -0.01039735
O        3.87921298       5.01495190       5.34446252       39      -0.02751477       0.00532268      -0.01039735
40
Lattice="8.99459947879463 7.049740190391751e-10 -1.841759734205836e-15 -2.998199826929533 8.480189713781899 -1.2210478259341675e-09 -2.9981998259325477 -4.240094856185976 7.344059721860646" Properties=species:S:1:pos:R:3:spacegroup_kinds:I:1:forces:R:3 spacegroup="P 1" unit_cell=conventional occupancy="_JSON {\"0\": {\"In\": 1}, \"1\": {\"In\": 1}, \"2\": {\"In\": 1}, \"3\": {\"In\": 1}, \"4\": {\"In\": 1}, \"5\": {\"In\": 1}, \"6\": {\"In\": 1}, \"7\": {\"In\": 1}, \"8\": {\"In\": 1}, \"9\": {\"In\": 1}, \"10\": {\"In\": 1}, \"11\": {\"In\": 1}, \"12\": {\"In\": 1}, \"13\": {\"In\": 1}, \"14\": {\"In\": 1}, \"15\": {\"In\": 1}, \"16\": {\"O\": 1}, \"17\": {\"O\": 1}, \"18\": {\"O\": 1}, \"19\": {\"O\": 1}, \"20\": {\"O\": 1}, \"21\": {\"O\": 1}, \"22\": {\"O\": 1}, \"23\": {\"O\": 1}, \"24\": {\"O\": 1}, \"25\": {\"O\": 1}, \"26\": {\"O\": 1}, \"27\": {\"O\": 1}, \"28\": {\"O\": 1}, \"29\": {\"O\": 1}, \"30\": {\"O\": 1}, \"31\": {\"O\": 1}, \"32\": {\"O\": 1}, \"33\": {\"O\": 1}, \"34\": {\"O\": 1}, \"35\": {\"O\": 1}, \"36\": {\"O\": 1}, \"37\": {\"O\": 1}, \"38\": {\"O\": 1}, \"39\": {\"O\": 1}}" n_minim_iter=3 energy=-45151.09869821469 stress="0.01656834634470639 1.2982043187671308e-12 -2.2363377439054488e-13 1.2982043187671308e-12 0.016568346342850333 5.860326835448204e-13 -2.2363377439054488e-13 5.860326835448204e-13 0.01656834634268807" free_energy=-45151.09869821469 pbc="T T T"
In      -4.29294320       3.03556925       5.75832941        0       0.00524074      -0.00370577       0.00641857
In       7.29114302       1.20452561       1.58573030        1      -0.00524074       0.00370577      -0.00641857
In       1.29474337      -0.91552182       5.25776017        2      -0.00524074       0.00370577      -0.00641857
In      -1.49909991      -2.12004743       3.67202986        3      -0.00000000      -0.00000000       0.00000000
In      -1.29474338       4.09559296       3.42174523        4       0.00524074      -0.00370577      -0.00641857
In       4.70165628      -2.89106735       5.50804479        5       0.00524074       0.00741153      -0.00000000
In      -1.29474338       1.34902751       5.50804479        6       0.00524074       0.00741153       0.00000000
In      -1.70345645       7.13116221       1.83601493        7      -0.00524074      -0.00741153       0.00000000
In       4.29294320       0.14450190       3.92231448        8      -0.00524074       0.00370577       0.00641857
In      -1.49909991       4.24009486      -0.00000000        9      -0.00000000      -0.00000000       0.00000000
In       4.29294320       6.50464418       0.25028462       10      -0.00524074       0.00370577       0.00641857
In      -1.29474338      -2.26454932       7.09377510       11       0.00524074      -0.00370577      -0.00641857
In       4.29294320       2.89106736       1.83601493       12      -0.00524074      -0.00741153      -0.00000000
In       1.70345645       5.15561668       2.08629955       13       0.00524074      -0.00370577       0.00641857
In       4.49729974       0.00000000      -0.00000000       14       0.00000000      -0.00000000       0.00000000
In       1.49909991       2.12004743       3.67202986       15       0.00000000      -0.00000000      -0.00000000
O        0.87967626       4.24098272       4.00191949       16      -0.02025724      -0.01402944      -0.01336552
O       -2.11852357       3.46532002       5.34233106       17      -0.02025724      -0.00456016       0.01883261
O       -0.43640222       2.27588061       0.05844083       18      -0.02427886      -0.00171645       0.01390715
O       -0.87967626      -0.77388698       2.00019084       19       0.02025724      -0.01858960       0.00546709
O        3.97330956       5.04772267       1.94175001       20       0.00245305       0.02661890      -0.00844007
O        2.02309009       2.96230393       1.67030120       21      -0.00245305       0.02061876       0.01883261
O        2.02309009       6.32551360       0.27144880       22      -0.00245305       0.00600014      -0.02727268
O       -2.29118822       6.01295938       3.73047069       23      -0.00647467       0.02346248       0.01390715
O        3.43460205       1.96421425       7.28561889       24       0.02427886       0.00171645      -0.01390715
O        5.28938805      -1.77286452       3.61358903       25       0.00647467      -0.02346248      -0.01390715
O        6.43280187       3.30859898       1.73027985       26       0.02427886       0.01118572       0.00844007
O        3.70521143       2.34425013       3.94347866       27      -0.00647467       0.00031271      -0.02727268
O        0.70701160       4.36307507       7.01417008       28      -0.00647467      -0.02377519       0.01336552
O        2.29118822      -0.12298021       0.32988963       29       0.00647467       0.02377519      -0.01336552
O       -3.43460205       0.93149588       5.61377987       30      -0.02427886      -0.01118572      -0.00844007
O        5.11672339       0.77477484       2.00172865       31       0.02025724       0.00456017      -0.01883261
O        0.97510974       1.27779093       5.67375852       32       0.00245305      -0.02061876      -0.01883261
O        3.43460205      -1.03271836       5.67222070       33       0.02427886      -0.01290217       0.00546709
O        2.11852356      -0.00088786       3.34214022       34       0.02025724       0.01402944       0.01336552
O        0.97510974      -2.08541874       7.07261091       35       0.00245305      -0.00600014       0.02727268
O       -0.70701161       1.89584473       3.40058105       36       0.00647467      -0.00031271       0.02727268
O       -0.97510974      -0.80762781       5.40230971       37      -0.00245305      -0.02661890       0.00844007
O       -0.43640222       5.27281323       1.67183902       38      -0.02427886       0.01290217      -0.00546709
O        3.87787609       5.01398184       5.34386888       39      -0.02025724       0.01858960      -0.00546709
40
Lattice="8.994599478794628 7.049740190391752e-10 -1.841759734205827e-15 -2.9981998269295325 8.480189713781897 -1.2210478259341675e-09 -2.9981998259325473 -4.2400948561859755 7.344059721860646" Properties=species:S:1:pos:R:3:spacegroup_kinds:I:1:forces:R:3 spacegroup="P 1" unit_cell=conventional occupancy="_JSON {\"0\": {\"In\": 1}, \"1\": {\"In\": 1}, \"2\": {\"In\": 1}, \"3\": {\"In\": 1}, \"4\": {\"In\": 1}, \"5\": {\"In\": 1}, \"6\": {\"In\": 1}, \"7\": {\"In\": 1}, \"8\": {\"In\": 1}, \"9\": {\"In\": 1}, \"10\": {\"In\": 1}, \"11\": {\"In\": 1}, \"12\": {\"In\": 1}, \"13\": {\"In\": 1}, \"14\": {\"In\": 1}, \"15\": {\"In\": 1}, \"16\": {\"O\": 1}, \"17\": {\"O\": 1}, \"18\": {\"O\": 1}, \"19\": {\"O\": 1}, \"20\": {\"O\": 1}, \"21\": {\"O\": 1}, \"22\": {\"O\": 1}, \"23\": {\"O\": 1}, \"24\": {\"O\": 1}, \"25\": {\"O\": 1}, \"26\": {\"O\": 1}, \"27\": {\"O\": 1}, \"28\": {\"O\": 1}, \"29\": {\"O\": 1}, \"30\": {\"O\": 1}, \"31\": {\"O\": 1}, \"32\": {\"O\": 1}, \"33\": {\"O\": 1}, \"34\": {\"O\": 1}, \"35\": {\"O\": 1}, \"36\": {\"O\": 1}, \"37\": {\"O\": 1}, \"38\": {\"O\": 1}, \"39\": {\"O\": 1}}" n_minim_iter=4 energy=-45151.09926579711 stress="0.016399995982988802 1.2144403531030746e-12 -9.316761239711292e-13 1.2144403531030746e-12 0.016399995980997385 1.0901305670987458e-12 -9.316761239711292e-13 1.0901305670987458e-12 0.016399995981590303" free_energy=-45151.09926579711 pbc="T T T"
In      -4.29249702       3.03525375       5.75887587        0      -0.00435758       0.00308128      -0.00533693
In       7.29069685       1.20484111       1.58518385        1       0.00435758      -0.00308128       0.00533693
In       1.29429719      -0.91520632       5.25721371        2       0.00435758      -0.00308128       0.00533693
In      -1.49909991      -2.12004743       3.67202986        3      -0.00000000      -0.00000000       0.00000000
In      -1.29429720       4.09527747       3.42119878        4      -0.00435758       0.00308128       0.00533693
In       4.70210246      -2.89043636       5.50804479        5      -0.00435758      -0.00616255      -0.00000000
In      -1.29429720       1.34965850       5.50804479        6      -0.00435758      -0.00616255       0.00000000
In      -1.70390263       7.13053122       1.83601493        7       0.00435758       0.00616255      -0.00000000
In       4.29249702       0.14481739       3.92286094        8       0.00435758      -0.00308128      -0.00533693
In      -1.49909991       4.24009486      -0.00000000        9      -0.00000000       0.00000000       0.00000000
In       4.29249702       6.50495968       0.25083107       10       0.00435758      -0.00308128      -0.00533693
In      -1.29429720      -2.26486482       7.09322864       11      -0.00435758       0.00308128       0.00533693
In       4.29249702       2.89043636       1.83601493       12       0.00435758       0.00616255       0.00000000
In       1.70390263       5.15530118       2.08684600       13      -0.00435758       0.00308128      -0.00533693
In       4.49729974       0.00000000      -0.00000000       14       0.00000000       0.00000000      -0.00000000
In       1.49909991       2.12004743       3.67202986       15       0.00000000       0.00000000      -0.00000000
O        0.87737223       4.24042408       4.00271739       16      -0.00594213      -0.00687223      -0.01852326
O       -2.12082759       3.46629034       5.34241591       17      -0.00594213      -0.01260550       0.01521316
O       -0.43678210       2.27549035       0.06088227       18      -0.02034449      -0.00242149      -0.00242606
O       -0.87737224      -0.77347530       2.00107358       19       0.00594213      -0.01947773      -0.00331010
O        3.97499240       5.04872056       1.94019130       20      -0.00990387       0.01807704      -0.00088404
O        2.02140725       2.96415275       1.67038605       21       0.00990387       0.00980413       0.01521316
O        2.02140725       6.32466267       0.26980525       22       0.00990387       0.00827292      -0.01609720
O       -2.29094690       6.01344762       3.73291213       23      -0.00449849       0.01998813      -0.00242606
O        3.43498192       1.96460452       7.28317745       24       0.02034449       0.00242149       0.00242606
O        5.28914673      -1.77335275       3.61114759       25       0.00449849      -0.01998813       0.00242606
O        6.43318175       3.31051820       1.73183855       26       0.02034449      -0.00331178       0.00088404
O        3.70545275       2.34612036       3.94183511       27      -0.00449849      -0.01209510      -0.01609720
O        0.70725292       4.36071660       7.01337219       28      -0.00449849      -0.00789304       0.01852326
O        2.29094690      -0.12062174       0.33068753       29       0.00449849       0.00789304      -0.01852326
O       -3.43498192       0.92957666       5.61222117       30      -0.02034449       0.00331178      -0.00088404
O        5.11902742       0.77380453       2.00164381       31       0.00594213       0.01260550      -0.01521316
O        0.97679257       1.27594211       5.67367367       32      -0.00990387      -0.00980413      -0.01521316
O        3.43498192      -1.03502785       5.67310344       33       0.02034449       0.00089028      -0.00331010
O        2.12082759      -0.00032922       3.34134233       34       0.00594213       0.00687223       0.01852326
O        0.97679257      -2.08456781       7.07425446       35      -0.00990387      -0.00827292       0.01609720
O       -0.70725293       1.89397450       3.40222460       36       0.00449849       0.01209510       0.01609720
O       -0.97679257      -0.80862570       5.40386841       37       0.00990387      -0.01807704       0.00088404
O       -0.43678210       5.27512271       1.67095628       38      -0.02034449      -0.00089028       0.00331010
O        3.87557206       5.01357016       5.34298614       39      -0.00594213       0.01947773       0.00331010
40
Lattice="8.99459947879463 7.049740190391756e-10 -1.8417597342058212e-15 -2.9981998269295334 8.480189713781899 -1.221047825934168e-09 -2.998199825932548 -4.240094856185976 7.344059721860648" Properties=species:S:1:pos:R:3:spacegroup_kinds:I:1:forces:R:3 spacegroup="P 1" unit_cell=conventional occupancy="_JSON {\"0\": {\"In\": 1}, \"1\": {\"In\": 1}, \"2\": {\"In\": 1}, \"3\": {\"In\": 1}, \"4\": {\"In\": 1}, \"5\": {\"In\": 1}, \"6\": {\"In\": 1}, \"7\": {\"In\": 1}, \"8\": {\"In\": 1}, \"9\": {\"In\": 1}, \"10\": {\"In\": 1}, \"11\": {\"In\": 1}, \"12\": {\"In\": 1}, \"13\": {\"In\": 1}, \"14\": {\"In\": 1}, \"15\": {\"In\": 1}, \"16\": {\"O\": 1}, \"17\": {\"O\": 1}, \"18\": {\"O\": 1}, \"19\": {\"O\": 1}, \"20\": {\"O\": 1}, \"21\": {\"O\": 1}, \"22\": {\"O\": 1}, \"23\": {\"O\": 1}, \"24\": {\"O\": 1}, \"25\": {\"O\": 1}, \"26\": {\"O\": 1}, \"27\": {\"O\": 1}, \"28\": {\"O\": 1}, \"29\": {\"O\": 1}, \"30\": {\"O\": 1}, \"31\": {\"O\": 1}, \"32\": {\"O\": 1}, \"33\": {\"O\": 1}, \"34\": {\"O\": 1}, \"35\": {\"O\": 1}, \"36\": {\"O\": 1}, \"37\": {\"O\": 1}, \"38\": {\"O\": 1}, \"39\": {\"O\": 1}}" n_minim_iter=5 energy=-45151.09958084902 stress="0.016486838046484664 -8.872063451432757e-13 -3.163544434813711e-14 -8.872063451432757e-13 0.016486838041544133 -1.5008312028239462e-12 -3.163544434813711e-14 -1.5008312028239462e-12 0.016486838045195646" free_energy=-45151.09958084902 pbc="T T T"
In      -4.29256640       3.03530281       5.75879090        0      -0.00801121       0.00566478      -0.00981169
In       7.29076622       1.20479205       1.58526882        1       0.00801121      -0.00566478       0.00981169
In       1.29436657      -0.91525538       5.25729868        2       0.00801121      -0.00566478       0.00981169
In      -1.49909991      -2.12004743       3.67202986        3       0.00000000       0.00000000       0.00000000
In      -1.29436657       4.09532653       3.42128375        4      -0.00801121       0.00566478       0.00981169
In       4.70203308      -2.89053447       5.50804479        5      -0.00801121      -0.01132956       0.00000000
In      -1.29436657       1.34956038       5.50804479        6      -0.00801121      -0.01132956      -0.00000000
In      -1.70383326       7.13062934       1.83601493        7       0.00801121       0.01132956      -0.00000000
In       4.29256640       0.14476834       3.92277597        8       0.00801121      -0.00566478      -0.00981169
In      -1.49909991       4.24009486      -0.00000000        9       0.00000000      -0.00000000      -0.00000000
In       4.29256640       6.50491062       0.25074610       10       0.00801121      -0.00566478      -0.00981169
In      -1.29436657      -2.26481576       7.09331361       11      -0.00801121       0.00566478       0.00981169
In       4.29256640       2.89053448       1.83601493       12       0.00801121       0.01132956      -0.00000000
In       1.70383325       5.15535024       2.08676104       13      -0.00801121       0.00566478      -0.00981169
In       4.49729974       0.00000000      -0.00000000       14      -0.00000000       0.00000000       0.00000000
In       1.49909991       2.12004743       3.67202986       15       0.00000000      -0.00000000      -0.00000000
O        0.87716145       4.23993277       4.00157387       16      -0.00335350       0.00359434      -0.00020530
O       -2.12103838       3.46554568       5.34341315       17      -0.00335350      -0.00197497      -0.00301013
O       -0.43801764       2.27547030       0.06062445       18       0.00040892      -0.00463540       0.00159788
O       -0.87716145      -0.77471127       2.00092731       19       0.00335350       0.00161937      -0.00321544
O        3.97436059       5.04980767       1.94030286       20      -0.00074418      -0.00069684      -0.00481331
O        2.02203906       2.96459970       1.67138329       21       0.00074418       0.00382003      -0.00301013
O        2.02203906       6.32530283       0.26891956       22       0.00074418      -0.00451687      -0.00180318
O       -2.29133985       6.01461918       3.73265431       23       0.00450661       0.00115960       0.00159788
O        3.43621746       1.96462456       7.28343527       24      -0.00040892       0.00463540      -0.00159788
O        5.28953968      -1.77452432       3.61140541       25      -0.00450661      -0.00115960      -0.00159788
O        6.43441729       3.31028489       1.73172700       26      -0.00040892      -0.00093390       0.00481331
O        3.70505980       2.34531130       3.94094942       27       0.00450661       0.00080400      -0.00180318
O        0.70685997       4.36035410       7.01451570       28       0.00450661      -0.00196360       0.00020530
O        2.29133985      -0.12025924       0.32954401       29      -0.00450661       0.00196360      -0.00020530
O       -3.43621747       0.92980997       5.61233272       30       0.00040892       0.00093390      -0.00481331
O        5.11923820       0.77454918       2.00064656       31       0.00335350       0.00197497       0.00301013
O        0.97616076       1.27549516       5.67267643       32      -0.00074418      -0.00382003       0.00301013
O        3.43621746      -1.03481459       5.67295717       33      -0.00040892      -0.00370150      -0.00321544
O        2.12103837       0.00016209       3.34248584       34       0.00335350      -0.00359434       0.00020530
O        0.97616076      -2.08520797       7.07514015       35      -0.00074418       0.00451687       0.00180318
O       -0.70685998       1.89478356       3.40311029       36      -0.00450661      -0.00080400       0.00180318
O       -0.97616076      -0.80971281       5.40375686       37       0.00074418       0.00069684       0.00481331
O       -0.43801764       5.27490945       1.67110255       38       0.00040892       0.00370150       0.00321544
O        3.87536127       5.01480613       5.34313241       39      -0.00335350      -0.00161937       0.00321544
40