40
Lattice="9.138537444487408 7.162534638391687e-10 2.7240592227139513e-16 -3.0461791488377656 8.615895729260219 -1.2405902332287756e-09 -3.0461791478248252 -4.307947863913853 7.461584578724264" Properties=species:S:1:pos:R:3:spacegroup_kinds:I:1:forces:R:3 spacegroup="P 1" unit_cell=conventional occupancy="_JSON {\"0\": {\"In\": 1}, \"1\": {\"In\": 1}, \"2\": {\"In\": 1}, \"3\": {\"In\": 1}, \"4\": {\"In\": 1}, \"5\": {\"In\": 1}, \"6\": {\"In\": 1}, \"7\": {\"In\": 1}, \"8\": {\"In\": 1}, \"9\": {\"In\": 1}, \"10\": {\"In\": 1}, \"11\": {\"In\": 1}, \"12\": {\"In\": 1}, \"13\": {\"In\": 1}, \"14\": {\"In\": 1}, \"15\": {\"In\": 1}, \"16\": {\"O\": 1}, \"17\": {\"O\": 1}, \"18\": {\"O\": 1}, \"19\": {\"O\": 1}, \"20\": {\"O\": 1}, \"21\": {\"O\": 1}, \"22\": {\"O\": 1}, \"23\": {\"O\": 1}, \"24\": {\"O\": 1}, \"25\": {\"O\": 1}, \"26\": {\"O\": 1}, \"27\": {\"O\": 1}, \"28\": {\"O\": 1}, \"29\": {\"O\": 1}, \"30\": {\"O\": 1}, \"31\": {\"O\": 1}, \"32\": {\"O\": 1}, \"33\": {\"O\": 1}, \"34\": {\"O\": 1}, \"35\": {\"O\": 1}, \"36\": {\"O\": 1}, \"37\": {\"O\": 1}, \"38\": {\"O\": 1}, \"39\": {\"O\": 1}}" n_minim_iter=4 energy=-45150.475526749324 stress="0.02456853790972511 -8.136641761977402e-13 -1.2004521710932981e-12 -8.136641761977402e-13 0.024568537913659386 1.360212010825224e-12 -1.2004521710932981e-12 1.360212010825224e-12 0.024568537910493096" free_energy=-45150.475526749324 pbc="T T T"
In      -4.37349094       3.09252510       5.83596626        0       0.00092764      -0.00065594       0.00113613
In       7.41967009       1.21542276       1.62561831        1      -0.00092764       0.00065594      -0.00113613
In       1.32731179      -0.93855117       5.35641060        2      -0.00092764       0.00065594      -0.00113613
In      -1.52308958      -2.15397393       3.73079229        3       0.00000000      -0.00000000      -0.00000000
In      -1.32731180       4.16951207       3.49101445        4       0.00092764      -0.00065594      -0.00113613
In       4.76504650      -2.95408930       5.59618843        5       0.00092764       0.00131189      -0.00000000
In      -1.32731180       1.35385856       5.59618843        6       0.00092764       0.00131189       0.00000000
In      -1.71886736       7.26203717       1.86539614        7      -0.00092764      -0.00131189       0.00000000
In       4.37349094       0.13843580       3.97057012        8      -0.00092764       0.00065594       0.00113613
In      -1.52308958       4.30794787      -0.00000000        9       0.00000000       0.00000000      -0.00000000
In       4.37349094       6.60035760       0.23977783       10      -0.00092764       0.00065594       0.00113613
In      -1.32731180      -2.29240973       7.22180674       11       0.00092764      -0.00065594      -0.00113613
In       4.37349094       2.95408931       1.86539614       12      -0.00092764      -0.00131189       0.00000000
In       1.71886735       5.24649904       2.10517397       13       0.00092764      -0.00065594       0.00113613
In       4.56926872       0.00000000      -0.00000000       14       0.00000000       0.00000000      -0.00000000
In       1.52308957       2.15397393       3.73079229       15       0.00000000       0.00000000      -0.00000000
O        0.88161184       4.30820606       4.06701512       16      -0.00438049       0.00251783      -0.00500914
O       -2.16456731       3.52200932       5.42785341       17      -0.00438049      -0.00559695       0.00032406
O       -0.44687593       2.30741809       0.07000254       18      -0.00436319      -0.00560919       0.00034525
O       -0.88161184      -0.78568035       2.03328396       19       0.00438049      -0.00307912      -0.00468507
O        4.04210466       5.13404421       1.96328141       20      -0.00381669       0.00327846      -0.00503033
O        2.05025363       3.02074446       1.69706112       21       0.00381669       0.00599562       0.00032406
O        2.05025363       6.42124762       0.26622029       22       0.00381669      -0.00271716      -0.00535439
O       -2.32441328       6.11410110       3.80079483       23       0.00383400       0.00598338       0.00034525
O        3.49305507       2.00052977       7.39158203       24       0.00436319       0.00560919      -0.00034525
O        5.37059243      -1.80615323       3.66078974       25      -0.00383400      -0.00598338      -0.00034525
O        6.53923422       3.36830696       1.76751087       26       0.00436319      -0.00250559       0.00503033
O        3.76794501       2.38850827       3.99701258       27       0.00383400      -0.00269269      -0.00535439
O        0.72176586       4.42123424       7.12536174       28       0.00383400      -0.00329069       0.00500914
O        2.32441328      -0.11328637       0.33622283       29      -0.00383400       0.00329069      -0.00500914
O       -3.49305507       0.93964091       5.69407370       30      -0.00436319       0.00250559      -0.00503033
O        5.21074645       0.78593855       2.03373116       31       0.00438049       0.00559695      -0.00032406
O        0.99592552       1.28720341       5.76452345       32      -0.00381669      -0.00599562      -0.00032406
O        3.49305507      -1.06088886       5.76407625       33       0.00436319      -0.00310359      -0.00468507
O        2.16456731      -0.00025819       3.39456945       34       0.00438049      -0.00251783       0.00500914
O        0.99592552      -2.11329975       7.19536428       35      -0.00381669       0.00271716       0.00535439
O       -0.72176587       1.91943960       3.46457199       36      -0.00383400       0.00269269       0.00535439
O       -0.99592552      -0.82609634       5.49830316       37       0.00381669      -0.00327846       0.00503033
O       -0.44687593       5.36883673       1.69750833       38      -0.00436319       0.00310359       0.00468507
O        3.92779099       5.09362822       5.42830062       39      -0.00438049       0.00307912       0.00468507
