40
Lattice="8.769639536503774 6.873395030477804e-10 -2.1403082922384143e-15 -2.923213179482622 8.268095446202182 -1.1905131016361753e-09 -2.9232131785105757 -4.134047722413745 7.160380698119198" Properties=species:S:1:pos:R:3:spacegroup_kinds:I:1:forces:R:3 spacegroup="P 1" unit_cell=conventional occupancy="_JSON {\"0\": {\"In\": 1}, \"1\": {\"In\": 1}, \"2\": {\"In\": 1}, \"3\": {\"In\": 1}, \"4\": {\"In\": 1}, \"5\": {\"In\": 1}, \"6\": {\"In\": 1}, \"7\": {\"In\": 1}, \"8\": {\"In\": 1}, \"9\": {\"In\": 1}, \"10\": {\"In\": 1}, \"11\": {\"In\": 1}, \"12\": {\"In\": 1}, \"13\": {\"In\": 1}, \"14\": {\"In\": 1}, \"15\": {\"In\": 1}, \"16\": {\"O\": 1}, \"17\": {\"O\": 1}, \"18\": {\"O\": 1}, \"19\": {\"O\": 1}, \"20\": {\"O\": 1}, \"21\": {\"O\": 1}, \"22\": {\"O\": 1}, \"23\": {\"O\": 1}, \"24\": {\"O\": 1}, \"25\": {\"O\": 1}, \"26\": {\"O\": 1}, \"27\": {\"O\": 1}, \"28\": {\"O\": 1}, \"29\": {\"O\": 1}, \"30\": {\"O\": 1}, \"31\": {\"O\": 1}, \"32\": {\"O\": 1}, \"33\": {\"O\": 1}, \"34\": {\"O\": 1}, \"35\": {\"O\": 1}, \"36\": {\"O\": 1}, \"37\": {\"O\": 1}, \"38\": {\"O\": 1}, \"39\": {\"O\": 1}}" n_minim_iter=1 energy=-45150.62666882861 stress="-0.042280278973502235 8.726953043661935e-13 -2.835804369062999e-14 8.726953043661935e-13 -0.042280278973937706 1.32957091143852e-13 -2.835804369062999e-14 1.32957091143852e-13 -0.042280278974076775" free_energy=-45150.62666882861 pbc="T T T"
In      -4.18832324       2.96159177       5.61094364        0      -0.03746612       0.02649255      -0.04588644
In       7.11153642       1.17245596       1.54943706        1       0.03746612      -0.02649255       0.04588644
In       1.26511006      -0.89456790       5.12962741        2       0.03746612      -0.02649255       0.04588644
In      -1.46160659      -2.06702386       3.58019035        3       0.00000000       0.00000000      -0.00000000
In      -1.26511006       3.99510370       3.33953223        4      -0.03746612       0.02649255       0.04588644
In       4.58131630      -2.82264773       5.37028552        5      -0.03746612      -0.05298510      -0.00000000
In      -1.26511006       1.31139999       5.37028552        6      -0.03746612      -0.05298510       0.00000000
In      -1.65810312       6.95669546       1.79009517        7       0.03746612       0.05298510      -0.00000000
In       4.18832324       0.13894403       3.82084846        8       0.03746612      -0.02649255      -0.04588644
In      -1.46160659       4.13404772      -0.00000000        9       0.00000000       0.00000000       0.00000000
In       4.18832324       6.34001561       0.24065811       10       0.03746612      -0.02649255      -0.04588644
In      -1.26511006      -2.20596789       6.91972258       11      -0.03746612       0.02649255       0.04588644
In       4.18832324       2.82264774       1.79009517       12       0.03746612       0.05298510       0.00000000
In       1.65810312       5.02861563       2.03075329       13      -0.03746612       0.02649255      -0.04588644
In       4.38481977       0.00000000      -0.00000000       14      -0.00000000       0.00000000       0.00000000
In       1.46160659       2.06702386       3.58019035       15      -0.00000000      -0.00000000       0.00000000
O        0.87376208       4.13570121       3.88925679       16       0.10607049       0.04064113      -0.07337456
O       -2.04945110       3.36736845       5.21432033       17       0.10607049      -0.08386480       0.00149103
O       -0.43001921       2.22225718       0.03733054       18      -0.00539483      -0.00504691      -0.13502556
O       -0.87376209      -0.76502579       1.94319643       19      -0.10607049      -0.04322367      -0.07188353
O        3.85793578       4.92062631       1.90586589       20      -0.11442532      -0.03473337       0.06314202
O        1.98849058       2.87680874       1.63412999       21       0.11442532      -0.07204928       0.00149103
O        1.98849057       6.17786530       0.27173590       22       0.11442532       0.03731591       0.06165099
O       -2.23850389       5.86574519       3.61752089       23       0.00296000       0.00676860      -0.13502556
O        3.35323238       1.91179055       7.12305015       24       0.00539484       0.00504691       0.13502556
O        5.16171707      -1.73169746       3.54285981       25      -0.00296000      -0.00676860       0.13502556
O        6.27644556       3.21048165       1.67432445       26       0.00539484      -0.11945902      -0.06314202
O        3.60792246       2.26701626       3.85192625       27       0.00296000      -0.12031986       0.06165100
O        0.68470929       4.26938173       6.85131425       28       0.00296000       0.11355126       0.07337456
O        2.23850389      -0.13533400       0.30906645       29      -0.00296000      -0.11355126      -0.07337456
O       -3.35323239       0.92356608       5.48605624       30      -0.00539483       0.11945902       0.06314202
O        4.97266427       0.76667928       1.94606036       31      -0.10607049       0.08386480      -0.00149103
O        0.93472260       1.25723899       5.52625071       32      -0.11442532       0.07204928      -0.00149103
O        3.35323238      -0.98822447       5.52338678       33       0.00539483       0.11441210      -0.07188353
O        2.04945109      -0.00165349       3.27112390       34      -0.10607049      -0.04064113       0.07337456
O        0.93472260      -2.04381757       6.88864479       35      -0.11442532      -0.03731591      -0.06165099
O       -0.68470929       1.86703147       3.30845444       36      -0.00296000       0.12031986      -0.06165100
O       -0.93472260      -0.78657859       5.25451480       37       0.11442532       0.03473337      -0.06314202
O       -0.43001921       5.12227220       1.63699391       38      -0.00539483      -0.11441210       0.07188353
O        3.79697526       4.89907352       5.21718426       39       0.10607049       0.04322367       0.07188353
40
Lattice="8.769639536503778 6.873395030477804e-10 -2.140308292238417e-15 -2.923213179482623 8.268095446202182 -1.1905131016361757e-09 -2.9232131785105766 -4.134047722413745 7.160380698119202" Properties=species:S:1:pos:R:3:spacegroup_kinds:I:1:forces:R:3 spacegroup="P 1" unit_cell=conventional occupancy="_JSON {\"0\": {\"In\": 1}, \"1\": {\"In\": 1}, \"2\": {\"In\": 1}, \"3\": {\"In\": 1}, \"4\": {\"In\": 1}, \"5\": {\"In\": 1}, \"6\": {\"In\": 1}, \"7\": {\"In\": 1}, \"8\": {\"In\": 1}, \"9\": {\"In\": 1}, \"10\": {\"In\": 1}, \"11\": {\"In\": 1}, \"12\": {\"In\": 1}, \"13\": {\"In\": 1}, \"14\": {\"In\": 1}, \"15\": {\"In\": 1}, \"16\": {\"O\": 1}, \"17\": {\"O\": 1}, \"18\": {\"O\": 1}, \"19\": {\"O\": 1}, \"20\": {\"O\": 1}, \"21\": {\"O\": 1}, \"22\": {\"O\": 1}, \"23\": {\"O\": 1}, \"24\": {\"O\": 1}, \"25\": {\"O\": 1}, \"26\": {\"O\": 1}, \"27\": {\"O\": 1}, \"28\": {\"O\": 1}, \"29\": {\"O\": 1}, \"30\": {\"O\": 1}, \"31\": {\"O\": 1}, \"32\": {\"O\": 1}, \"33\": {\"O\": 1}, \"34\": {\"O\": 1}, \"35\": {\"O\": 1}, \"36\": {\"O\": 1}, \"37\": {\"O\": 1}, \"38\": {\"O\": 1}, \"39\": {\"O\": 1}}" n_minim_iter=2 energy=-45150.650478406205 stress="-0.0399179691613371 3.865939484455179e-13 -6.35134300932118e-13 3.865939484455179e-13 -0.039917969163372424 -2.3061279731536453e-12 -6.35134300932118e-13 -2.3061279731536453e-12 -0.039917969165523676" free_energy=-45150.650478406205 pbc="T T T"
In      -4.19099939       2.96348409       5.60766603        0       0.00619762      -0.00438238       0.00759050
In       7.11421257       1.17056364       1.55271466        1      -0.00619762       0.00438238      -0.00759050
In       1.26778621      -0.89646023       5.13290501        2      -0.00619762       0.00438238      -0.00759050
In      -1.46160659      -2.06702386       3.58019035        3      -0.00000000       0.00000000      -0.00000000
In      -1.26778621       3.99699602       3.34280983        4       0.00619762      -0.00438238      -0.00759050
In       4.57864014      -2.82643238       5.37028552        5       0.00619762       0.00876476       0.00000000
In      -1.26778621       1.30761534       5.37028552        6       0.00619762       0.00876476       0.00000000
In      -1.65542697       6.96048011       1.79009517        7      -0.00619762      -0.00876476      -0.00000000
In       4.19099939       0.13705171       3.81757086        8      -0.00619762       0.00438238       0.00759050
In      -1.46160659       4.13404772      -0.00000000        9       0.00000000       0.00000000      -0.00000000
In       4.19099939       6.33812329       0.23738051       10      -0.00619762       0.00438238       0.00759050
In      -1.26778621      -2.20407556       6.92300018       11       0.00619762      -0.00438238      -0.00759050
In       4.19099939       2.82643239       1.79009517       12      -0.00619762      -0.00876476       0.00000000
In       1.65542696       5.03050795       2.02747568       13       0.00619762      -0.00438238       0.00759050
In       4.38481977       0.00000000      -0.00000000       14      -0.00000000      -0.00000000       0.00000000
In       1.46160659       2.06702386       3.58019035       15      -0.00000000      -0.00000000       0.00000000
O        0.88133855       4.13860415       3.88401575       16       0.05620029      -0.01130209      -0.03183579
O       -2.04187463       3.36137810       5.21442684       17       0.05620029      -0.02191956       0.02570579
O       -0.43040455       2.22189668       0.02768586       18      -0.01258824       0.02672128      -0.05854261
O       -0.88133855      -0.76811319       1.93806190       19      -0.05620029      -0.03322164      -0.00613000
O        3.84976254       4.91814536       1.91037604       20      -0.03939938      -0.00057794       0.05241261
O        1.99666381       2.87166236       1.63423649       21       0.03939938      -0.04567962       0.02570579
O        1.99666381       6.18053072       0.27613955       22       0.03939938       0.04510168       0.02670682
O       -2.23829246       5.86622866       3.60787620       23      -0.02938914       0.00296121      -0.05854261
O        3.35361773       1.91215105       7.13269484       24       0.01258824      -0.02672128       0.05854260
O        5.16150564      -1.73218093       3.55250449       25       0.02938914      -0.00296121       0.05854261
O        6.27683091       3.20194886       1.66981431       26       0.01258824      -0.03733874      -0.05241261
O        3.60813389       2.25842198       3.85632990       27      -0.02938914      -0.05217999       0.02670682
O        0.68492071       4.27749253       6.85655529       28      -0.02938914       0.04921878       0.03183579
O        2.23829246      -0.14344480       0.30382541       29       0.02938914      -0.04921878      -0.03183579
O       -3.35361773       0.93209887       5.49056639       30      -0.01258824       0.03733874       0.05241261
O        4.96508781       0.77266962       1.94595386       31      -0.05620029       0.02191955      -0.02570579
O        0.92654936       1.26238537       5.52614421       32      -0.03939938       0.04567962      -0.02570579
O        3.35361773      -0.98005218       5.51825225       33       0.01258824       0.06406002      -0.00613000
O        2.04187463      -0.00455642       3.27636494       34      -0.05620029       0.01130209       0.03183579
O        0.92654936      -2.04648300       6.88424114       35      -0.03939938      -0.04510168      -0.02670682
O       -0.68492072       1.87562574       3.30405080       36       0.02938914       0.05217999      -0.02670682
O       -0.92654937      -0.78409763       5.25000465       37       0.03939938       0.00057794      -0.05241261
O       -0.43040455       5.11409990       1.64212845       38      -0.01258824      -0.06406002       0.00613000
O        3.80455172       4.90216092       5.22231880       39       0.05620029       0.03322164       0.00613000
40
Lattice="8.769639536503778 6.873395030477804e-10 -2.140308292238417e-15 -2.923213179482623 8.268095446202182 -1.1905131016361757e-09 -2.9232131785105766 -4.134047722413745 7.160380698119202" Properties=species:S:1:pos:R:3:spacegroup_kinds:I:1:forces:R:3 spacegroup="P 1" unit_cell=conventional occupancy="_JSON {\"0\": {\"In\": 1}, \"1\": {\"In\": 1}, \"2\": {\"In\": 1}, \"3\": {\"In\": 1}, \"4\": {\"In\": 1}, \"5\": {\"In\": 1}, \"6\": {\"In\": 1}, \"7\": {\"In\": 1}, \"8\": {\"In\": 1}, \"9\": {\"In\": 1}, \"10\": {\"In\": 1}, \"11\": {\"In\": 1}, \"12\": {\"In\": 1}, \"13\": {\"In\": 1}, \"14\": {\"In\": 1}, \"15\": {\"In\": 1}, \"16\": {\"O\": 1}, \"17\": {\"O\": 1}, \"18\": {\"O\": 1}, \"19\": {\"O\": 1}, \"20\": {\"O\": 1}, \"21\": {\"O\": 1}, \"22\": {\"O\": 1}, \"23\": {\"O\": 1}, \"24\": {\"O\": 1}, \"25\": {\"O\": 1}, \"26\": {\"O\": 1}, \"27\": {\"O\": 1}, \"28\": {\"O\": 1}, \"29\": {\"O\": 1}, \"30\": {\"O\": 1}, \"31\": {\"O\": 1}, \"32\": {\"O\": 1}, \"33\": {\"O\": 1}, \"34\": {\"O\": 1}, \"35\": {\"O\": 1}, \"36\": {\"O\": 1}, \"37\": {\"O\": 1}, \"38\": {\"O\": 1}, \"39\": {\"O\": 1}}" n_minim_iter=3 energy=-45150.655527734285 stress="-0.038589196396697084 1.566517715836363e-12 -1.7761017366582506e-13 1.566517715836363e-12 -0.03858919639926376 1.1445517781303047e-12 -1.7761017366582506e-13 1.1445517781303047e-12 -0.03858919639528434" free_energy=-45150.655527734285 pbc="T T T"
In      -4.19220753       2.96433837       5.60618637        0       0.02080041      -0.01470811       0.02547520
In       7.11542071       1.16970935       1.55419432        1      -0.02080041       0.01470811      -0.02547520
In       1.26899435      -0.89731451       5.13438467        2      -0.02080041       0.01470811      -0.02547520
In      -1.46160659      -2.06702386       3.58019035        3       0.00000000      -0.00000000       0.00000000
In      -1.26899435       3.99785030       3.34428949        4       0.02080041      -0.01470811      -0.02547520
In       4.57743201      -2.82814095       5.37028552        5       0.02080041       0.02941623       0.00000000
In      -1.26899435       1.30590677       5.37028552        6       0.02080041       0.02941623       0.00000000
In      -1.65421883       6.96218868       1.79009517        7      -0.02080041      -0.02941623      -0.00000000
In       4.19220753       0.13619742       3.81609120        8      -0.02080041       0.01470811       0.02547520
In      -1.46160659       4.13404772      -0.00000000        9      -0.00000000       0.00000000      -0.00000000
In       4.19220753       6.33726901       0.23590085       10      -0.02080041       0.01470811       0.02547520
In      -1.26899435      -2.20322128       6.92447984       11       0.02080041      -0.01470811      -0.02547520
In       4.19220753       2.82814095       1.79009517       12      -0.02080041      -0.02941623      -0.00000000
In       1.65421883       5.03136223       2.02599602       13       0.02080041      -0.01470811       0.02547520
In       4.38481977       0.00000000      -0.00000000       14       0.00000000      -0.00000000       0.00000000
In       1.46160659       2.06702386       3.58019035       15       0.00000000      -0.00000000       0.00000000
O        0.88642396       4.13981128       3.88065688       16       0.02531514      -0.02978987       0.00028175
O       -2.03678922       3.35786567       5.21506087       17       0.02531514       0.01513894       0.02565791
O       -0.43088288       2.22231840       0.02150572       18      -0.00537465       0.03683989      -0.01192926
O       -0.88642396      -0.77041851       1.93533705       19      -0.02531514      -0.01465093       0.02593966
O        3.84475584       4.91688257       1.91383133       20       0.00583475       0.00776357       0.03786891
O        2.00167051       2.86803860       1.63487052       21      -0.00583475      -0.02891365       0.02565791
O        2.00167051       6.18289170       0.27896080       22      -0.00583475       0.03667723       0.01221101
O       -2.23884951       5.86653906       3.60169607       23      -0.03652454      -0.00721270      -0.01192926
O        3.35409606       1.91172932       7.13887497       24       0.00537465      -0.03683989       0.01192926
O        5.16206269      -1.73249133       3.55868462       25       0.03652454       0.00721270       0.01192926
O        6.27730924       3.19680757       1.66635902       26       0.00537465       0.00808891      -0.03786891
O        3.60757685       2.25291463       3.85915115       27      -0.03652454      -0.00672469       0.01221101
O        0.68436367       4.28268948       6.85991417       28      -0.03652454       0.01393739      -0.00028175
O        2.23884951      -0.14864176       0.30046653       29       0.03652454      -0.01393739       0.00028175
O       -3.35409606       0.93724016       5.49402167       30      -0.00537465      -0.00808891       0.03786891
O        4.96000239       0.77618206       1.94531982       31      -0.02531514      -0.01513894      -0.02565791
O        0.92154267       1.26600913       5.52551017       32       0.00583475       0.02891365      -0.02565791
O        3.35409606      -0.97448916       5.51552740       33       0.00537465       0.02875099       0.02593966
O        2.03678921      -0.00576355       3.27972382       34      -0.02531514       0.02978987      -0.00028175
O        0.92154267      -2.04884397       6.88141989       35       0.00583475      -0.03667723      -0.01221101
O       -0.68436367       1.88113309       3.30122954       36       0.03652454       0.00672469      -0.01221101
O       -0.92154267      -0.78283484       5.24654937       37      -0.00583475      -0.00776357      -0.03786891
O       -0.43088288       5.10853689       1.64485329       38      -0.00537465      -0.02875099      -0.02593966
O        3.80963714       4.90446623       5.22504364       39       0.02531514       0.01465093      -0.02593966
40
Lattice="8.769639536503778 6.873395030477804e-10 -2.1403082922384234e-15 -2.923213179482623 8.268095446202182 -1.1905131016361757e-09 -2.9232131785105766 -4.134047722413745 7.160380698119202" Properties=species:S:1:pos:R:3:spacegroup_kinds:I:1:forces:R:3 spacegroup="P 1" unit_cell=conventional occupancy="_JSON {\"0\": {\"In\": 1}, \"1\": {\"In\": 1}, \"2\": {\"In\": 1}, \"3\": {\"In\": 1}, \"4\": {\"In\": 1}, \"5\": {\"In\": 1}, \"6\": {\"In\": 1}, \"7\": {\"In\": 1}, \"8\": {\"In\": 1}, \"9\": {\"In\": 1}, \"10\": {\"In\": 1}, \"11\": {\"In\": 1}, \"12\": {\"In\": 1}, \"13\": {\"In\": 1}, \"14\": {\"In\": 1}, \"15\": {\"In\": 1}, \"16\": {\"O\": 1}, \"17\": {\"O\": 1}, \"18\": {\"O\": 1}, \"19\": {\"O\": 1}, \"20\": {\"O\": 1}, \"21\": {\"O\": 1}, \"22\": {\"O\": 1}, \"23\": {\"O\": 1}, \"24\": {\"O\": 1}, \"25\": {\"O\": 1}, \"26\": {\"O\": 1}, \"27\": {\"O\": 1}, \"28\": {\"O\": 1}, \"29\": {\"O\": 1}, \"30\": {\"O\": 1}, \"31\": {\"O\": 1}, \"32\": {\"O\": 1}, \"33\": {\"O\": 1}, \"34\": {\"O\": 1}, \"35\": {\"O\": 1}, \"36\": {\"O\": 1}, \"37\": {\"O\": 1}, \"38\": {\"O\": 1}, \"39\": {\"O\": 1}}" n_minim_iter=4 energy=-45150.65679626372 stress="-0.03801252060410676 -5.901592570822932e-14 1.7021282013456644e-12 -5.901592570822932e-14 -0.038012520599848845 -1.270994264473494e-13 1.7021282013456644e-12 -1.270994264473494e-13 -0.03801252059939961" free_energy=-45150.65679626372 pbc="T T T"
In      -4.19198152       2.96417856       5.60646318        0       0.01064452      -0.00752681       0.01303682
In       7.11519469       1.16986917       1.55391751        1      -0.01064452       0.00752681      -0.01303682
In       1.26876834      -0.89715469       5.13410786        2      -0.01064452       0.00752681      -0.01303682
In      -1.46160659      -2.06702386       3.58019035        3       0.00000000      -0.00000000      -0.00000000
In      -1.26876834       3.99769049       3.34401269        4       0.01064452      -0.00752681      -0.01303682
In       4.57765802      -2.82782132       5.37028552        5       0.01064452       0.01505363      -0.00000000
In      -1.26876834       1.30622640       5.37028552        6       0.01064452       0.01505363      -0.00000000
In      -1.65444484       6.96186905       1.79009517        7      -0.01064452      -0.01505363      -0.00000000
In       4.19198151       0.13635724       3.81636801        8      -0.01064452       0.00752681       0.01303682
In      -1.46160659       4.13404772      -0.00000000        9      -0.00000000       0.00000000       0.00000000
In       4.19198151       6.33742882       0.23617766       10      -0.01064452       0.00752681       0.01303682
In      -1.26876834      -2.20338109       6.92420304       11       0.01064452      -0.00752681      -0.01303682
In       4.19198151       2.82782132       1.79009517       12      -0.01064452      -0.01505363      -0.00000000
In       1.65444484       5.03120242       2.02627283       13       0.01064452      -0.00752681       0.01303682
In       4.38481977       0.00000000      -0.00000000       14      -0.00000000       0.00000000       0.00000000
In       1.46160659       2.06702386       3.58019035       15       0.00000000      -0.00000000       0.00000000
O        0.88966974       4.13924312       3.87918151       16       0.00677995      -0.01329072       0.02247983
O       -2.03354344       3.35687204       5.21629060       17       0.00677995       0.02611346       0.00027019
O       -0.43127342       2.22389605       0.01828189       18       0.01434938       0.02076107       0.00954081
O       -0.88966974      -0.77198029       1.93509141       19      -0.00677995       0.01282274       0.02275002
O        3.84273712       4.91658307       1.91680952       20       0.02236003      -0.00731435       0.01320921
O        2.00368923       2.86530966       1.63610025       21      -0.02236003      -0.01509669       0.00027019
O        2.00368923       6.18532114       0.28070927       22      -0.02236003       0.00778233       0.01293902
O       -2.24046711       5.86638139       3.59847224       23      -0.01479060      -0.02044908       0.00954081
O        3.35448660       1.91015168       7.14209880       24      -0.01434938      -0.02076107      -0.00954081
O        5.16368028      -1.73233366       3.56190845       25       0.01479060       0.02044908      -0.00954081
O        6.27769978       3.19480447       1.66338082       26      -0.01434938       0.01864312      -0.01320921
O        3.60595925       2.25020155       3.86089962       27      -0.01479060       0.01848712       0.01293902
O        0.68274607       4.28556024       6.86138953       28      -0.01479060       0.00196196      -0.02247983
O        2.24046710      -0.15151251       0.29899116       29       0.01479060      -0.00196196       0.02247983
O       -3.35448660       0.93924326       5.49699987       30       0.01434938      -0.01864312       0.01320921
O        4.95675662       0.77717568       1.94409009       31      -0.00677995      -0.02611346      -0.00027019
O        0.91952395       1.26873807       5.52428044       32       0.02236003       0.01509669      -0.00027019
O        3.35448660      -0.97090842       5.51528176       33      -0.01434938       0.00211795       0.02275002
O        2.03354344      -0.00519539       3.28119918       34      -0.00677995       0.01329072      -0.02247983
O        0.91952395      -2.05127341       6.87967143       35       0.02236003      -0.00778233      -0.01293902
O       -0.68274608       1.88384618       3.29948108       36       0.01479060      -0.01848712      -0.01293902
O       -0.91952395      -0.78253535       5.24357117       37      -0.02236003       0.00731435      -0.01320921
O       -0.43127342       5.10495615       1.64509893       38       0.01434938      -0.00211795      -0.02275002
O        3.81288291       4.90602802       5.22528928       39       0.00677995      -0.01282274      -0.02275002
40
Lattice="8.76963953650378 6.873395030477806e-10 -2.140308292238433e-15 -2.923213179482624 8.268095446202183 -1.1905131016361763e-09 -2.9232131785105775 -4.1340477224137455 7.160380698119205" Properties=species:S:1:pos:R:3:spacegroup_kinds:I:1:forces:R:3 spacegroup="P 1" unit_cell=conventional occupancy="_JSON {\"0\": {\"In\": 1}, \"1\": {\"In\": 1}, \"2\": {\"In\": 1}, \"3\": {\"In\": 1}, \"4\": {\"In\": 1}, \"5\": {\"In\": 1}, \"6\": {\"In\": 1}, \"7\": {\"In\": 1}, \"8\": {\"In\": 1}, \"9\": {\"In\": 1}, \"10\": {\"In\": 1}, \"11\": {\"In\": 1}, \"12\": {\"In\": 1}, \"13\": {\"In\": 1}, \"14\": {\"In\": 1}, \"15\": {\"In\": 1}, \"16\": {\"O\": 1}, \"17\": {\"O\": 1}, \"18\": {\"O\": 1}, \"19\": {\"O\": 1}, \"20\": {\"O\": 1}, \"21\": {\"O\": 1}, \"22\": {\"O\": 1}, \"23\": {\"O\": 1}, \"24\": {\"O\": 1}, \"25\": {\"O\": 1}, \"26\": {\"O\": 1}, \"27\": {\"O\": 1}, \"28\": {\"O\": 1}, \"29\": {\"O\": 1}, \"30\": {\"O\": 1}, \"31\": {\"O\": 1}, \"32\": {\"O\": 1}, \"33\": {\"O\": 1}, \"34\": {\"O\": 1}, \"35\": {\"O\": 1}, \"36\": {\"O\": 1}, \"37\": {\"O\": 1}, \"38\": {\"O\": 1}, \"39\": {\"O\": 1}}" n_minim_iter=5 energy=-45150.657473125306 stress="-0.03831844914289117 2.1155668549564786e-13 -1.581534772679669e-12 2.1155668549564786e-13 -0.03831844914438147 2.6851058856257774e-13 -1.581534772679669e-12 2.6851058856257774e-13 -0.03831844914305678" free_energy=-45150.657473125306 pbc="T T T"
In      -4.19106489       2.96353040       5.60758582        0      -0.00227760       0.00161050      -0.00278947
In       7.11427807       1.17051732       1.55279488        1       0.00227760      -0.00161050       0.00278947
In       1.26785171      -0.89650654       5.13298523        2       0.00227760      -0.00161050       0.00278947
In      -1.46160659      -2.06702386       3.58019035        3       0.00000000       0.00000000      -0.00000000
In      -1.26785171       3.99704234       3.34289005        4      -0.00227760       0.00161050       0.00278947
In       4.57857465      -2.82652501       5.37028552        5      -0.00227760      -0.00322101       0.00000000
In      -1.26785171       1.30752271       5.37028552        6      -0.00227760      -0.00322101      -0.00000000
In      -1.65536147       6.96057274       1.79009517        7       0.00227760       0.00322101       0.00000000
In       4.19106489       0.13700539       3.81749064        8       0.00227760      -0.00161050      -0.00278947
In      -1.46160659       4.13404772      -0.00000000        9       0.00000000      -0.00000000      -0.00000000
In       4.19106489       6.33807698       0.23730029       10       0.00227760      -0.00161050      -0.00278947
In      -1.26785171      -2.20402925       6.92308040       11      -0.00227760       0.00161050       0.00278947
In       4.19106489       2.82652502       1.79009517       12       0.00227760       0.00322101      -0.00000000
In       1.65536147       5.03055427       2.02739547       13      -0.00227760       0.00161050      -0.00278947
In       4.38481977       0.00000000      -0.00000000       14       0.00000000      -0.00000000      -0.00000000
In       1.46160659       2.06702386       3.58019035       15      -0.00000000       0.00000000       0.00000000
O        0.88940113       4.13809182       3.88044198       16       0.00793325       0.00995481       0.01316695
O       -2.03381205       3.35853929       5.21665742       17       0.00793325       0.00642551      -0.01520459
O       -0.43087651       2.22509270       0.01946379       18       0.01808793      -0.00075493      -0.00276770
O       -0.88940113      -0.77146434       1.93671870       19      -0.00793325       0.01638032      -0.00203764
O        3.84439856       4.91674949       1.91725491       20       0.00341361      -0.01797825       0.00073006
O        2.00202780       2.86500715       1.63646707       21      -0.00341361      -0.00962138      -0.01520459
O        2.00202780       6.18579007       0.28078784       22      -0.00341361      -0.00835687       0.01593466
O       -2.24146302       5.86560829       3.59965414       23       0.00674107      -0.01680182      -0.00276770
O        3.35408969       1.90895502       7.14091690       24      -0.01808793       0.00075493       0.00276770
O        5.16467620      -1.73156056       3.56072655       25      -0.00674107       0.01680182       0.00276770
O        6.27730287       3.19642636       1.66293544       26      -0.01808793      -0.00277437      -0.00073006
O        3.60496333       2.25161165       3.86097819       27       0.00674107       0.00600401       0.01593466
O        0.68175015       4.28492323       6.86012906       28       0.00674107       0.01079781      -0.01316695
O        2.24146302      -0.15087550       0.30025163       29      -0.00674107      -0.01079781       0.01316695
O       -3.35408969       0.93762137       5.49744525       30       0.01808793       0.00277437       0.00073006
O        4.95702522       0.77550844       1.94372328       31      -0.00793325      -0.00642551       0.01520459
O        0.92118538       1.26904057       5.52391363       32       0.00341361       0.00962138       0.01520459
O        3.35408969      -0.97133365       5.51690905       33      -0.01808793       0.00201944      -0.00203764
O        2.03381204      -0.00404409       3.27993871       34      -0.00793325      -0.00995481      -0.01316695
O        0.92118538      -2.05174234       6.87959286       35       0.00341361       0.00835687      -0.01593466
O       -0.68175016       1.88243607       3.29940251       36      -0.00674107      -0.00600401      -0.01593466
O       -0.92118538      -0.78270177       5.24312579       37      -0.00341361       0.01797825      -0.00073006
O       -0.43087651       5.10538138       1.64347164       38       0.01808793      -0.00201944       0.00203764
O        3.81261431       4.90551207       5.22366199       39       0.00793325      -0.01638032       0.00203764
40