40
Lattice="8.281402057537683 6.490769034311027e-10 1.3419205100824479e-14 -2.760467353124518 7.80778073660647 -1.124243905687348e-09 -2.7604673522065926 -3.903890367654155 6.761736465829468" Properties=species:S:1:pos:R:3:spacegroup_kinds:I:1:forces:R:3 spacegroup="P 1" unit_cell=conventional occupancy="_JSON {\"0\": {\"In\": 1}, \"1\": {\"In\": 1}, \"2\": {\"In\": 1}, \"3\": {\"In\": 1}, \"4\": {\"In\": 1}, \"5\": {\"In\": 1}, \"6\": {\"In\": 1}, \"7\": {\"In\": 1}, \"8\": {\"In\": 1}, \"9\": {\"In\": 1}, \"10\": {\"In\": 1}, \"11\": {\"In\": 1}, \"12\": {\"In\": 1}, \"13\": {\"In\": 1}, \"14\": {\"In\": 1}, \"15\": {\"In\": 1}, \"16\": {\"O\": 1}, \"17\": {\"O\": 1}, \"18\": {\"O\": 1}, \"19\": {\"O\": 1}, \"20\": {\"O\": 1}, \"21\": {\"O\": 1}, \"22\": {\"O\": 1}, \"23\": {\"O\": 1}, \"24\": {\"O\": 1}, \"25\": {\"O\": 1}, \"26\": {\"O\": 1}, \"27\": {\"O\": 1}, \"28\": {\"O\": 1}, \"29\": {\"O\": 1}, \"30\": {\"O\": 1}, \"31\": {\"O\": 1}, \"32\": {\"O\": 1}, \"33\": {\"O\": 1}, \"34\": {\"O\": 1}, \"35\": {\"O\": 1}, \"36\": {\"O\": 1}, \"37\": {\"O\": 1}, \"38\": {\"O\": 1}, \"39\": {\"O\": 1}}" n_minim_iter=1 energy=-45147.52263592942 stress="0.03830943866408972 7.083381762634549e-14 1.7281825308776506e-12 7.083381762634549e-14 0.038309438663823386 -3.8175010776092273e-14 1.7281825308776506e-12 -3.8175010776092273e-14 0.038309438663255" free_energy=-45147.52263592942 pbc="T T T"
In      -4.01812111       2.84124069       5.22143147        0      -0.31651674       0.22381113      -0.38765225
In       6.77858846       1.06264969       1.54030499        1       0.31651674      -0.22381113       0.38765225
In       1.25765376      -0.88929550       4.92117322        2       0.31651674      -0.22381113       0.38765225
In      -1.38023368      -1.95194518       3.38086823        3      -0.00000000       0.00000000      -0.00000000
In      -1.25765376       3.81721328       3.23073910        4      -0.31651674       0.22381113       0.38765225
In       4.26328095      -2.75456359       5.07130235        5      -0.31651674      -0.44762227       0.00000000
In      -1.25765376       1.14932678       5.07130235        6      -0.31651674      -0.44762227       0.00000000
In      -1.50281360       6.65845396       1.69043411        7       0.31651674       0.44762227      -0.00000000
In       4.01812111       0.08667709       3.53099736        8       0.31651674      -0.22381113      -0.38765225
In      -1.38023368       3.90389037      -0.00000000        9      -0.00000000      -0.00000000       0.00000000
In       4.01812111       5.94251265       0.15012912       10       0.31651674      -0.22381113      -0.38765225
In      -1.25765376      -2.03862227       6.61160734       11      -0.31651674       0.22381113       0.38765225
In       4.01812111       2.75456360       1.69043411       12       0.31651674       0.44762227      -0.00000000
In       1.50281359       4.79318587       1.84056324       13      -0.31651674       0.22381113      -0.38765225
In       4.14070103       0.00000000      -0.00000000       14       0.00000000      -0.00000000       0.00000000
In       1.38023367       1.95194519       3.38086823       15      -0.00000000       0.00000000      -0.00000000
O        0.80873400       3.91400263       3.59235890       16      -0.06322084      -0.05554893      -0.35319657
O       -1.95173335       3.10601794       4.95679954       17      -0.06322084      -0.27810274       0.22470507
O       -0.47312941       2.06048707       0.00597567       18      -0.33564342      -0.08547088      -0.10894309
O       -0.80873400      -0.78776017       1.78742198       19       0.06322084      -0.33365167      -0.12849150
O        3.57895958       4.69510059       1.78144631       20      -0.24112416       0.27075334      -0.01954841
O        1.94197512       2.75671772       1.57593130       21       0.24112416       0.15230609       0.22470507
O        1.94197512       5.84227324       0.20551500       22       0.24112416       0.11844725      -0.24425348
O       -2.10035564       5.61507722       3.38684390       23      -0.03129842       0.34493794      -0.10894309
O        3.23359676       1.84340331       6.75576079       24       0.33564342       0.08547088       0.10894309
O        4.86082299      -1.71118685       3.37489256       25       0.03129842      -0.34493794       0.10894309
O        5.99406411       2.98736380       1.59942192       26       0.33564342      -0.13708293       0.01954841
O        3.42057906       2.07749944       3.58638323       27      -0.03129842      -0.26681646      -0.24425348
O        0.66011171       4.01909446       6.55024579       28      -0.03129842      -0.07812149       0.35319657
O        2.10035564      -0.11520409       0.21149067       29       0.03129842       0.07812149      -0.35319657
O       -3.23359676       0.91652657       5.16231454       30      -0.33564342       0.13708293      -0.01954841
O        4.71220070       0.79787243       1.80493692       31       0.06322084       0.27810274      -0.22470507
O        0.81849223       1.14717265       5.18580516       32      -0.24112416      -0.15230609      -0.22470507
O        3.23359676      -0.92687673       5.16829021       33       0.33564342       0.05161205      -0.12849150
O        1.95173335      -0.01011226       3.16937756       34       0.06322084       0.05554893       0.35319657
O        0.81849223      -1.93838287       6.55622146       35      -0.24112416      -0.11844725       0.24425348
O       -0.66011172       1.82639094       3.17535323       36       0.03129842       0.26681646       0.24425348
O       -0.81849223      -0.79121022       4.98029016       37       0.24112416      -0.27075334       0.01954841
O       -0.47312941       4.83076710       1.59344625       38      -0.33564342      -0.05161205       0.12849150
O        3.56920135       4.69165054       4.97431448       39      -0.06322084       0.33365167       0.12849150
40
Lattice="8.281402057537683 6.490769034311027e-10 1.3419205100824474e-14 -2.760467353124518 7.80778073660647 -1.124243905687348e-09 -2.7604673522065926 -3.903890367654155 6.761736465829468" Properties=species:S:1:pos:R:3:spacegroup_kinds:I:1:forces:R:3 spacegroup="P 1" unit_cell=conventional occupancy="_JSON {\"0\": {\"In\": 1}, \"1\": {\"In\": 1}, \"2\": {\"In\": 1}, \"3\": {\"In\": 1}, \"4\": {\"In\": 1}, \"5\": {\"In\": 1}, \"6\": {\"In\": 1}, \"7\": {\"In\": 1}, \"8\": {\"In\": 1}, \"9\": {\"In\": 1}, \"10\": {\"In\": 1}, \"11\": {\"In\": 1}, \"12\": {\"In\": 1}, \"13\": {\"In\": 1}, \"14\": {\"In\": 1}, \"15\": {\"In\": 1}, \"16\": {\"O\": 1}, \"17\": {\"O\": 1}, \"18\": {\"O\": 1}, \"19\": {\"O\": 1}, \"20\": {\"O\": 1}, \"21\": {\"O\": 1}, \"22\": {\"O\": 1}, \"23\": {\"O\": 1}, \"24\": {\"O\": 1}, \"25\": {\"O\": 1}, \"26\": {\"O\": 1}, \"27\": {\"O\": 1}, \"28\": {\"O\": 1}, \"29\": {\"O\": 1}, \"30\": {\"O\": 1}, \"31\": {\"O\": 1}, \"32\": {\"O\": 1}, \"33\": {\"O\": 1}, \"34\": {\"O\": 1}, \"35\": {\"O\": 1}, \"36\": {\"O\": 1}, \"37\": {\"O\": 1}, \"38\": {\"O\": 1}, \"39\": {\"O\": 1}}" n_minim_iter=2 energy=-45147.871769929225 stress="0.08017059288063119 5.508540203771123e-13 2.9868607655080953e-13 5.508540203771123e-13 0.08017059288110898 3.480514420018489e-13 2.9868607655080953e-13 3.480514420018489e-13 0.08017059288255333" free_energy=-45147.871769929225 pbc="T T T"
In      -4.04072945       2.85722720       5.19374203        0      -0.16335036       0.11550615      -0.20006252
In       6.80119680       1.04666318       1.56799443        1       0.16335036      -0.11550615       0.20006252
In       1.28026210      -0.90528201       4.94886267        2       0.16335036      -0.11550615       0.20006252
In      -1.38023368      -1.95194518       3.38086823        3       0.00000000      -0.00000000       0.00000000
In      -1.28026210       3.83319979       3.25842855        4      -0.16335036       0.11550615       0.20006252
In       4.24067261      -2.78653661       5.07130235        5      -0.16335036      -0.23101230      -0.00000000
In      -1.28026210       1.11735376       5.07130235        6      -0.16335036      -0.23101230       0.00000000
In      -1.48020526       6.69042698       1.69043411        7       0.16335036       0.23101230       0.00000000
In       4.04072945       0.07069058       3.50330791        8       0.16335036      -0.11550615      -0.20006252
In      -1.38023368       3.90389037      -0.00000000        9       0.00000000      -0.00000000      -0.00000000
In       4.04072945       5.92652614       0.12243968       10       0.16335036      -0.11550615      -0.20006252
In      -1.28026210      -2.02263576       6.63929678       11      -0.16335036       0.11550615       0.20006252
In       4.04072945       2.78653661       1.69043411       12       0.16335036       0.23101230      -0.00000000
In       1.48020525       4.80917238       1.81287379       13      -0.16335036       0.11550615      -0.20006252
In       4.14070103       0.00000000      -0.00000000       14      -0.00000000      -0.00000000       0.00000000
In       1.38023367       1.95194519       3.38086823       15       0.00000000       0.00000000       0.00000000
O        0.80421822       3.91003485       3.56713057       16      -0.10666507      -0.07593578      -0.05224925
O       -1.95624913       3.08615346       4.97284990       17      -0.10666507      -0.00728129       0.09188694
O       -0.49710394       2.05438200      -0.00180598       18      -0.11401283      -0.00208564       0.08288781
O       -0.80421823      -0.81159243       1.77824401       19       0.10666507      -0.08321707       0.03963769
O        3.56173642       4.71444012       1.78004999       20       0.02869016       0.13107237      -0.04325012
O        1.95919828       2.76759673       1.59198167       21      -0.02869016       0.10299189       0.09188694
O        1.95919828       5.85073376       0.18806832       22      -0.02869016       0.02808048      -0.13513706
O       -2.10259124       5.63971564       3.37906225       23      -0.03603792       0.10818754       0.08288781
O        3.25757129       1.84950837       6.76354244       24       0.11401283       0.00208564      -0.08288781
O        4.86305859      -1.73582527       3.38267421       25       0.03603792      -0.10818754      -0.08288781
O        6.01803864       2.97757216       1.60081824       26       0.11401283       0.07074013       0.04325012
O        3.41834346       2.05844112       3.56893655       27      -0.03603792       0.01768918      -0.13513706
O        0.65787611       4.01351435       6.57547412       28      -0.03603792      -0.12587672       0.05224925
O        2.10259124      -0.10962398       0.18626234       29       0.03603792       0.12587672      -0.05224925
O       -3.25757129       0.92631821       5.16091822       30      -0.11401283      -0.07074013      -0.04325012
O        4.71671648       0.81773691       1.78888656       31       0.10666507       0.00728129      -0.09188694
O        0.80126907       1.13629364       5.16975479       32       0.02869016      -0.10299189      -0.09188694
O        3.25757129      -0.92319016       5.15911224       33       0.11401283      -0.07282577       0.03963769
O        1.95624912      -0.00614448       3.19460589       34       0.10666507       0.07593578       0.05224925
O        0.80126907      -1.94684339       6.57366814       35       0.02869016      -0.02808048       0.13513706
O       -0.65787611       1.84544925       3.19279991       36       0.03603792      -0.01768918       0.13513706
O       -0.80126908      -0.81054975       4.98168647       37      -0.02869016      -0.13107237       0.04325012
O       -0.49710394       4.82708053       1.60262422       38      -0.11401283       0.07282577      -0.03963769
O        3.56468558       4.71548280       4.98349245       39      -0.10666507       0.08321707      -0.03963769
40
Lattice="8.281402057537683 6.490769034311027e-10 1.341920510082447e-14 -2.760467353124518 7.807780736606471 -1.124243905687348e-09 -2.7604673522065926 -3.9038903676541556 6.761736465829469" Properties=species:S:1:pos:R:3:spacegroup_kinds:I:1:forces:R:3 spacegroup="P 1" unit_cell=conventional occupancy="_JSON {\"0\": {\"In\": 1}, \"1\": {\"In\": 1}, \"2\": {\"In\": 1}, \"3\": {\"In\": 1}, \"4\": {\"In\": 1}, \"5\": {\"In\": 1}, \"6\": {\"In\": 1}, \"7\": {\"In\": 1}, \"8\": {\"In\": 1}, \"9\": {\"In\": 1}, \"10\": {\"In\": 1}, \"11\": {\"In\": 1}, \"12\": {\"In\": 1}, \"13\": {\"In\": 1}, \"14\": {\"In\": 1}, \"15\": {\"In\": 1}, \"16\": {\"O\": 1}, \"17\": {\"O\": 1}, \"18\": {\"O\": 1}, \"19\": {\"O\": 1}, \"20\": {\"O\": 1}, \"21\": {\"O\": 1}, \"22\": {\"O\": 1}, \"23\": {\"O\": 1}, \"24\": {\"O\": 1}, \"25\": {\"O\": 1}, \"26\": {\"O\": 1}, \"27\": {\"O\": 1}, \"28\": {\"O\": 1}, \"29\": {\"O\": 1}, \"30\": {\"O\": 1}, \"31\": {\"O\": 1}, \"32\": {\"O\": 1}, \"33\": {\"O\": 1}, \"34\": {\"O\": 1}, \"35\": {\"O\": 1}, \"36\": {\"O\": 1}, \"37\": {\"O\": 1}, \"38\": {\"O\": 1}, \"39\": {\"O\": 1}}" n_minim_iter=3 energy=-45147.92382320539 stress="0.10440077893993416 1.6042105263746718e-12 -6.754872684939037e-13 1.6042105263746718e-12 0.10440077893940235 -8.402047286580864e-14 -6.754872684939037e-13 -8.402047286580864e-14 0.10440077893995074" free_energy=-45147.92382320539 pbc="T T T"
In      -4.05633973       2.86826533       5.17462341        0      -0.02698294       0.01907982      -0.03304722
In       6.81680708       1.03562504       1.58711305        1       0.02698294      -0.01907982       0.03304722
In       1.29587238      -0.91632014       4.96798128        2       0.02698294      -0.01907982       0.03304722
In      -1.38023368      -1.95194518       3.38086823        3       0.00000000      -0.00000000       0.00000000
In      -1.29587238       3.84423792       3.27754716        4      -0.02698294       0.01907982       0.03304722
In       4.22506232      -2.80861288       5.07130235        5      -0.02698294      -0.03815965      -0.00000000
In      -1.29587238       1.09527748       5.07130235        6      -0.02698294      -0.03815965      -0.00000000
In      -1.46459498       6.71250326       1.69043411        7       0.02698294       0.03815965      -0.00000000
In       4.05633973       0.05965245       3.48418930        8       0.02698294      -0.01907982      -0.03304722
In      -1.38023368       3.90389037      -0.00000000        9       0.00000000      -0.00000000      -0.00000000
In       4.05633973       5.91548800       0.10332106       10       0.02698294      -0.01907982      -0.03304722
In      -1.29587238      -2.01159763       6.65841540       11      -0.02698294       0.01907982       0.03304722
In       4.05633973       2.80861289       1.69043411       12       0.02698294       0.03815965       0.00000000
In       1.46459497       4.82021052       1.79375518       13      -0.02698294       0.01907982      -0.03304722
In       4.14070103       0.00000000      -0.00000000       14       0.00000000      -0.00000000      -0.00000000
In       1.38023367       1.95194519       3.38086823       15       0.00000000      -0.00000000       0.00000000
O        0.79939654       3.90620754       3.55270347       16      -0.13003905      -0.08175858       0.19521108
O       -1.96107082       3.07557287       4.98337800       17      -0.13003905       0.20993704      -0.02680053
O       -0.51229506       2.05113371      -0.00397779       18       0.07750146       0.06318374       0.22738364
O       -0.79939654      -0.82600032       1.77434500       19       0.13003905       0.12817846       0.16841055
O        3.55336818       4.72759412       1.77832279       20       0.24127689       0.00310155      -0.05897310
O        1.96756652       2.77566952       1.60250977       21      -0.24127689       0.05262297      -0.02680053
O        1.96756652       5.85581496       0.17581303       22      -0.24127689      -0.04952143      -0.03217257
O       -2.10459243       5.65512073       3.37689044       23      -0.03373638      -0.09413033       0.22738364
O        3.27276241       1.85275666       6.76571425       24      -0.07750146      -0.06318374      -0.22738364
O        4.86505978      -1.75123036       3.38484602       25       0.03373638       0.09413033      -0.22738364
O        6.03322977       2.97406717       1.60254543       26      -0.07750146       0.22851188       0.05897310
O        3.41634227       2.04885773       3.55668126       27      -0.03373638       0.24398518      -0.03217257
O        0.65587492       4.00769265       6.58990123       28      -0.03373638      -0.14985485      -0.19521108
O        2.10459243      -0.10380228       0.17183524       29       0.03373638       0.14985485       0.19521108
O       -3.27276242       0.92982320       5.15919103       30       0.07750146      -0.22851188      -0.05897310
O        4.72153817       0.82831750       1.77835846       31       0.13003905      -0.20993704       0.02680053
O        0.79290083       1.12822085       5.15922669       32       0.24127689      -0.05262297       0.02680053
O        3.27276241      -0.92293346       5.15521324       33      -0.07750146      -0.16532814       0.16841055
O        1.96107081      -0.00231717       3.20903299       34       0.13003905       0.08175858      -0.19521108
O        0.79290083      -1.95192459       6.58592343       35       0.24127689       0.04952143       0.03217257
O       -0.65587492       1.85503264       3.20505520       36       0.03373638      -0.24398518       0.03217257
O       -0.79290083      -0.82370374       4.98341367       37      -0.24127689      -0.00310155       0.05897310
O       -0.51229506       4.82682383       1.60652322       38       0.07750146       0.16532814      -0.16841055
O        3.55986389       4.72989070       4.98739146       39      -0.13003905      -0.12817846      -0.16841055
40
Lattice="8.281402057537687 6.490769034311032e-10 1.3419205100824474e-14 -2.76046735312452 7.807780736606476 -1.1242439056873486e-09 -2.760467352206595 -3.9038903676541583 6.761736465829472" Properties=species:S:1:pos:R:3:spacegroup_kinds:I:1:forces:R:3 spacegroup="P 1" unit_cell=conventional occupancy="_JSON {\"0\": {\"In\": 1}, \"1\": {\"In\": 1}, \"2\": {\"In\": 1}, \"3\": {\"In\": 1}, \"4\": {\"In\": 1}, \"5\": {\"In\": 1}, \"6\": {\"In\": 1}, \"7\": {\"In\": 1}, \"8\": {\"In\": 1}, \"9\": {\"In\": 1}, \"10\": {\"In\": 1}, \"11\": {\"In\": 1}, \"12\": {\"In\": 1}, \"13\": {\"In\": 1}, \"14\": {\"In\": 1}, \"15\": {\"In\": 1}, \"16\": {\"O\": 1}, \"17\": {\"O\": 1}, \"18\": {\"O\": 1}, \"19\": {\"O\": 1}, \"20\": {\"O\": 1}, \"21\": {\"O\": 1}, \"22\": {\"O\": 1}, \"23\": {\"O\": 1}, \"24\": {\"O\": 1}, \"25\": {\"O\": 1}, \"26\": {\"O\": 1}, \"27\": {\"O\": 1}, \"28\": {\"O\": 1}, \"29\": {\"O\": 1}, \"30\": {\"O\": 1}, \"31\": {\"O\": 1}, \"32\": {\"O\": 1}, \"33\": {\"O\": 1}, \"34\": {\"O\": 1}, \"35\": {\"O\": 1}, \"36\": {\"O\": 1}, \"37\": {\"O\": 1}, \"38\": {\"O\": 1}, \"39\": {\"O\": 1}}" n_minim_iter=4 energy=-45147.9482336114 stress="0.0962109497586273 1.2198959411729228e-12 -7.839799764489224e-14 1.2198959411729228e-12 0.09621094976013814 5.245925677368506e-13 -7.839799764489224e-14 5.245925677368506e-13 0.09621094975927905" free_energy=-45147.9482336114 pbc="T T T"
In      -4.05375900       2.86644048       5.17778415        0      -0.01813608       0.01282415      -0.02221207
In       6.81422635       1.03744989       1.58395231        1       0.01813608      -0.01282415       0.02221207
In       1.29329165      -0.91449529       4.96482054        2       0.01813608      -0.01282415       0.02221207
In      -1.38023368      -1.95194518       3.38086823        3      -0.00000000      -0.00000000       0.00000000
In      -1.29329165       3.84241307       3.27438643        4      -0.01813608       0.01282415       0.02221207
In       4.22764306      -2.80496318       5.07130235        5      -0.01813608      -0.02564829       0.00000000
In      -1.29329165       1.09892719       5.07130235        6      -0.01813608      -0.02564829      -0.00000000
In      -1.46717571       6.70885355       1.69043411        7       0.01813608       0.02564829       0.00000000
In       4.05375900       0.06147730       3.48735003        8       0.01813608      -0.01282415      -0.02221207
In      -1.38023368       3.90389037      -0.00000000        9       0.00000000       0.00000000       0.00000000
In       4.05375900       5.91731285       0.10648180       10       0.01813608      -0.01282415      -0.02221207
In      -1.29329165      -2.01342248       6.65525466       11      -0.01813608       0.01282415       0.02221207
In       4.05375900       2.80496318       1.69043411       12       0.01813608       0.02564829      -0.00000000
In       1.46717570       4.81838566       1.79691592       13      -0.01813608       0.01282415      -0.02221207
In       4.14070103       0.00000000      -0.00000000       14       0.00000000       0.00000000       0.00000000
In       1.38023367       1.95194519       3.38086823       15      -0.00000000       0.00000000       0.00000000
O        0.79669128       3.90466988       3.56140408       16      -0.11279008      -0.05058522      -0.03576628
O       -1.96377607       3.08387665       4.98035934       17      -0.11279008      -0.00568190       0.06169123
O       -0.50681766       2.05365148       0.00302523       18      -0.09064584      -0.02134024       0.08881227
O       -0.79669128      -0.81923420       1.78002696       19       0.11279008      -0.05626712       0.02592495
O        3.56209881       4.72487119       1.77700173       20       0.03223975       0.10754291      -0.06288732
O        1.95883589       2.77545214       1.59949111       21      -0.03223975       0.10823347       0.06169123
O        1.95883589       5.85330943       0.17751062       22      -0.03223975      -0.00069056      -0.12457855
O       -2.10514040       5.64911733       3.38389346       23      -0.01009551       0.09257513       0.08881227
O        3.26728501       1.85023889       6.75871123       24       0.09064584       0.02134024      -0.08881227
O        4.86560775      -1.74522696       3.37784300       25       0.01009551      -0.09257513      -0.08881227
O        6.02775236       2.98139085       1.60386650       26       0.09064584       0.06624356       0.06288732
O        3.41579431       2.05792422       3.55837885       27      -0.01009551       0.03062611      -0.12457855
O        0.65532695       4.00462956       6.58120061       28      -0.01009551      -0.12320125       0.03576628
O        2.10514040      -0.10073919       0.18053585       29       0.01009551       0.12320125      -0.03576628
O       -3.26728501       0.92249952       5.15786997       30      -0.09064584      -0.06624356      -0.06288732
O        4.72424342       0.82001372       1.78137712       31       0.11279008       0.00568190      -0.06169123
O        0.80163146       1.12843824       5.16224535       32       0.03223975      -0.10823347      -0.06169123
O        3.26728501      -0.92773937       5.16089519       33       0.09064584      -0.08758380       0.02592495
O        1.96377607      -0.00077951       3.20033238       34       0.11279008       0.05058522       0.03576628
O        0.80163146      -1.94941905       6.58422584       35       0.03223975       0.00069056       0.12457855
O       -0.65532696       1.84596615       3.20335761       36       0.01009551      -0.03062611       0.12457855
O       -0.80163146      -0.82098082       4.98473473       37      -0.03223975      -0.10754291       0.06288732
O       -0.50681766       4.83162974       1.60084127       38      -0.09064584       0.08758380      -0.02592495
O        3.55715863       4.72312458       4.98170950       39      -0.11279008       0.05626712      -0.02592495
40
Lattice="8.28140205753769 6.490769034311038e-10 1.3419205100824468e-14 -2.7604673531245223 7.807780736606482 -1.1242439056873496e-09 -2.760467352206597 -3.903890367654161 6.761736465829475" Properties=species:S:1:pos:R:3:spacegroup_kinds:I:1:forces:R:3 spacegroup="P 1" unit_cell=conventional occupancy="_JSON {\"0\": {\"In\": 1}, \"1\": {\"In\": 1}, \"2\": {\"In\": 1}, \"3\": {\"In\": 1}, \"4\": {\"In\": 1}, \"5\": {\"In\": 1}, \"6\": {\"In\": 1}, \"7\": {\"In\": 1}, \"8\": {\"In\": 1}, \"9\": {\"In\": 1}, \"10\": {\"In\": 1}, \"11\": {\"In\": 1}, \"12\": {\"In\": 1}, \"13\": {\"In\": 1}, \"14\": {\"In\": 1}, \"15\": {\"In\": 1}, \"16\": {\"O\": 1}, \"17\": {\"O\": 1}, \"18\": {\"O\": 1}, \"19\": {\"O\": 1}, \"20\": {\"O\": 1}, \"21\": {\"O\": 1}, \"22\": {\"O\": 1}, \"23\": {\"O\": 1}, \"24\": {\"O\": 1}, \"25\": {\"O\": 1}, \"26\": {\"O\": 1}, \"27\": {\"O\": 1}, \"28\": {\"O\": 1}, \"29\": {\"O\": 1}, \"30\": {\"O\": 1}, \"31\": {\"O\": 1}, \"32\": {\"O\": 1}, \"33\": {\"O\": 1}, \"34\": {\"O\": 1}, \"35\": {\"O\": 1}, \"36\": {\"O\": 1}, \"37\": {\"O\": 1}, \"38\": {\"O\": 1}, \"39\": {\"O\": 1}}" n_minim_iter=5 energy=-45147.971797697435 stress="0.10790807196265463 4.3669122461377484e-13 2.1417652718722505e-12 4.3669122461377484e-13 0.10790807196120326 9.547575667374024e-13 2.1417652718722505e-12 9.547575667374024e-13 0.10790807196502193" free_energy=-45147.971797697435 pbc="T T T"
In      -4.06433344       2.87391774       5.16483316        0       0.08203955      -0.05801072       0.10047752
In       6.82480079       1.02997264       1.59690330        1      -0.08203955       0.05801072      -0.10047752
In       1.30386608      -0.92197255       4.97777153        2      -0.08203955       0.05801072      -0.10047752
In      -1.38023368      -1.95194518       3.38086823        3       0.00000000      -0.00000000       0.00000000
In      -1.30386609       3.84989033       3.28733741        4       0.08203955      -0.05801072      -0.10047752
In       4.21706862      -2.81991769       5.07130235        5       0.08203955       0.11602145      -0.00000000
In      -1.30386609       1.08397268       5.07130235        6       0.08203955       0.11602145      -0.00000000
In      -1.45660127       6.72380806       1.69043411        7      -0.08203955      -0.11602145       0.00000000
In       4.06433344       0.05400004       3.47439905        8      -0.08203955       0.05801072       0.10047752
In      -1.38023368       3.90389037      -0.00000000        9       0.00000000      -0.00000000       0.00000000
In       4.06433344       5.90983560       0.09353081       10      -0.08203955       0.05801072       0.10047752
In      -1.30386609      -2.00594522       6.66820565       11       0.08203955      -0.05801072      -0.10047752
In       4.06433344       2.81991769       1.69043411       12      -0.08203955      -0.11602145      -0.00000000
In       1.45660127       4.82586292       1.78396493       13       0.08203955      -0.05801072       0.10047752
In       4.14070103       0.00000000      -0.00000000       14       0.00000000      -0.00000000      -0.00000000
In       1.38023367       1.95194519       3.38086823       15       0.00000000      -0.00000000      -0.00000000
O        0.78406835       3.89721789       3.55886903       16      -0.08104871       0.02539153      -0.03966652
O       -1.97639900       3.08540723       4.98808049       17      -0.08104871      -0.04704798      -0.00215644
O       -0.51660806       2.05317916       0.01421549       18      -0.04743414      -0.07081707       0.03901283
O       -0.78406836      -0.82515562       1.78521305       19       0.08104871      -0.02165646      -0.04182297
O        3.56774950       4.73725331       1.77099757       20      -0.01734103       0.04418052      -0.08083580
O        1.95318520       2.78684295       1.60721225       21       0.01734103       0.09209611      -0.00215644
O        1.95318520       5.85430072       0.16378531       22       0.01734103      -0.04791559      -0.07867935
O       -2.10795857       5.65850525       3.39508372       23       0.05095560       0.06832702       0.03901283
O        3.27707541       1.85071121       6.74752097       24       0.04743414       0.07081707      -0.03901283
O        4.86842592      -1.75461488       3.36665274       25      -0.05095560      -0.06832702      -0.03901283
O        6.03754276       2.99084574       1.60987066       26       0.04743414      -0.00162244       0.08083580
O        3.41297614       2.06292131       3.54465354       27       0.05095560      -0.00037741      -0.07867935
O        0.65250879       3.99024455       6.58373566       28       0.05095560      -0.06794961       0.03966652
O        2.10795856      -0.08635418       0.17800080       29      -0.05095560       0.06794961      -0.03966652
O       -3.27707541       0.91304463       5.15186580       30      -0.04743414       0.00162244      -0.08083580
O        4.73686635       0.81848314       1.77365597       31       0.08104871       0.04704798       0.00215644
O        0.80728215       1.11704742       5.15452421       32      -0.01734103      -0.09209611       0.00215644
O        3.27707541      -0.93766657       5.16608129       33       0.04743414      -0.06919463      -0.04182297
O        1.97639900       0.00667249       3.20286743       34       0.08104871      -0.02539153       0.03966652
O        0.80728215      -1.95041035       6.59795115       35      -0.01734103       0.04791559       0.07867935
O       -0.65250879       1.84096906       3.21708292       36      -0.05095560       0.00037741       0.07867935
O       -0.80728215      -0.83336293       4.99073889       37       0.01734103      -0.04418052       0.08083580
O       -0.51660806       4.84155695       1.59565517       38      -0.04743414       0.06919463       0.04182297
O        3.54453571       4.72904599       4.97652341       39      -0.08104871       0.02165646       0.04182297
40