40
Lattice="8.692028036701098 6.812563998131743e-10 -1.6371255308078216e-15 -2.89734267954266 8.194922622459499 -1.1799804367982767e-09 -2.8973426785792173 -4.097461310548485 7.097011173884372" Properties=species:S:1:pos:R:3:spacegroup_kinds:I:1:forces:R:3 spacegroup="P 1" unit_cell=conventional occupancy="_JSON {\"0\": {\"In\": 1}, \"1\": {\"In\": 1}, \"2\": {\"In\": 1}, \"3\": {\"In\": 1}, \"4\": {\"In\": 1}, \"5\": {\"In\": 1}, \"6\": {\"In\": 1}, \"7\": {\"In\": 1}, \"8\": {\"In\": 1}, \"9\": {\"In\": 1}, \"10\": {\"In\": 1}, \"11\": {\"In\": 1}, \"12\": {\"In\": 1}, \"13\": {\"In\": 1}, \"14\": {\"In\": 1}, \"15\": {\"In\": 1}, \"16\": {\"O\": 1}, \"17\": {\"O\": 1}, \"18\": {\"O\": 1}, \"19\": {\"O\": 1}, \"20\": {\"O\": 1}, \"21\": {\"O\": 1}, \"22\": {\"O\": 1}, \"23\": {\"O\": 1}, \"24\": {\"O\": 1}, \"25\": {\"O\": 1}, \"26\": {\"O\": 1}, \"27\": {\"O\": 1}, \"28\": {\"O\": 1}, \"29\": {\"O\": 1}, \"30\": {\"O\": 1}, \"31\": {\"O\": 1}, \"32\": {\"O\": 1}, \"33\": {\"O\": 1}, \"34\": {\"O\": 1}, \"35\": {\"O\": 1}, \"36\": {\"O\": 1}, \"37\": {\"O\": 1}, \"38\": {\"O\": 1}, \"39\": {\"O\": 1}}" n_minim_iter=1 energy=-45150.003283914426 stress="-0.05751293867306939 -8.791865660404596e-13 -8.018070900021568e-14 -8.791865660404596e-13 -0.057512938669842056 -3.952599194967429e-13 -8.018070900021568e-14 -3.952599194967429e-13 -0.0575129386710306" free_energy=-45150.003283914426 pbc="T T T"
In      -4.15393507       2.93727566       5.55800609        0      -0.03279966       0.02319286      -0.04017121
In       7.05127775       1.16018566       1.53900508        1       0.03279966      -0.02319286       0.04017121
In       1.25659239      -0.88854500       5.08751067        2       0.03279966      -0.02319286       0.04017121
In      -1.44867134      -2.04873065       3.54850558        3       0.00000000       0.00000000      -0.00000000
In      -1.25659239       3.96164098       3.31325787        4      -0.03279966       0.02319286       0.04017121
In       4.53809297      -2.80145532       5.32275838        5      -0.03279966      -0.04638572      -0.00000000
In      -1.25659239       1.29600599       5.32275838        6      -0.03279966      -0.04638572       0.00000000
In      -1.64075029       6.89891664       1.77425279        7       0.03279966       0.04638572       0.00000000
In       4.15393507       0.13582033       3.78375329        8       0.03279966      -0.02319286      -0.04017121
In      -1.44867134       4.09746131      -0.00000000        9      -0.00000000       0.00000000      -0.00000000
In       4.15393507       6.28201230       0.23524771       10       0.03279966      -0.02319286      -0.04017121
In      -1.25659239      -2.18455098       6.86176346       11      -0.03279966       0.02319286       0.04017121
In       4.15393507       2.80145533       1.77425279       12       0.03279966       0.04638572      -0.00000000
In       1.64075029       4.98600631       2.00950050       13      -0.03279966       0.02319286      -0.04017121
In       4.34601402       0.00000000      -0.00000000       14       0.00000000       0.00000000       0.00000000
In       1.44867134       2.04873066       3.54850558       15       0.00000000      -0.00000000      -0.00000000
O        0.88254601       4.10174664       3.84678644       16       0.07740167       0.06521916      -0.09778229
O       -2.01479666       3.32927212       5.16990675       17       0.07740167      -0.11729153      -0.00759030
O       -0.42603347       2.20584689       0.01872515       18      -0.02329374      -0.04608912      -0.13091650
O       -0.88254602      -0.76390387       1.91968201       19      -0.07740167      -0.05207237      -0.10537259
O        3.81046674       4.87217615       1.90095686       20      -0.13638407      -0.02351231       0.02554390
O        1.98421862       2.83854180       1.62140116       21       0.13638407      -0.03387782      -0.00759030
O        1.98421862       6.13109567       0.27955570       22       0.13638407       0.01036552       0.03313421
O       -2.22170355       5.81257788       3.56723073       23       0.03568865       0.03732459      -0.13091650
O        3.32337615       1.89161443       7.07828602       24       0.02329374       0.04608912       0.13091650
O        5.11904622      -1.71511656       3.52978043       25      -0.03568865      -0.03732459       0.13091650
O        6.22071883       3.16787056       1.64754872       26       0.02329374      -0.13642157      -0.02554390
O        3.57298181       2.23175416       3.82806128       27       0.03568865      -0.13203931       0.03313421
O        0.67563913       4.24805190       6.79873032       28       0.03568865       0.09471472       0.09778229
O        2.22170354      -0.15059059       0.29828085       29      -0.03568865      -0.09471472      -0.09778229
O       -3.32337615       0.92959076       5.44946245       30      -0.02329374       0.13642157       0.02554390
O        4.91213934       0.76818920       1.92710442       31      -0.07740167       0.11729153       0.00759030
O        0.91312406       1.25891952       5.47561001       32      -0.13638407       0.03387782       0.00759030
O        3.32337615      -0.96202367       5.46818760       33       0.02329374       0.09033246      -0.10537259
O        2.01479666      -0.00428533       3.25022473       34      -0.07740167      -0.06521916       0.09778229
O        0.91312406      -2.03363435       6.81745547       35      -0.13638407      -0.01036552      -0.03313421
O       -0.67563914       1.86570716       3.26894988       36      -0.03568865       0.13203931      -0.03313421
O       -0.91312406      -0.77471484       5.19605431       37       0.13638407       0.02351231      -0.02554390
O       -0.42603347       5.05948498       1.62882357       38      -0.02329374      -0.09033246       0.10537259
O        3.77988869       4.86136518       5.17732915       39       0.07740167       0.05207237       0.10537259
40
Lattice="8.692028036701096 6.812563998131741e-10 -1.6371255308078252e-15 -2.8973426795426596 8.194922622459496 -1.1799804367982765e-09 -2.897342678579217 -4.097461310548483 7.097011173884371" Properties=species:S:1:pos:R:3:spacegroup_kinds:I:1:forces:R:3 spacegroup="P 1" unit_cell=conventional occupancy="_JSON {\"0\": {\"In\": 1}, \"1\": {\"In\": 1}, \"2\": {\"In\": 1}, \"3\": {\"In\": 1}, \"4\": {\"In\": 1}, \"5\": {\"In\": 1}, \"6\": {\"In\": 1}, \"7\": {\"In\": 1}, \"8\": {\"In\": 1}, \"9\": {\"In\": 1}, \"10\": {\"In\": 1}, \"11\": {\"In\": 1}, \"12\": {\"In\": 1}, \"13\": {\"In\": 1}, \"14\": {\"In\": 1}, \"15\": {\"In\": 1}, \"16\": {\"O\": 1}, \"17\": {\"O\": 1}, \"18\": {\"O\": 1}, \"19\": {\"O\": 1}, \"20\": {\"O\": 1}, \"21\": {\"O\": 1}, \"22\": {\"O\": 1}, \"23\": {\"O\": 1}, \"24\": {\"O\": 1}, \"25\": {\"O\": 1}, \"26\": {\"O\": 1}, \"27\": {\"O\": 1}, \"28\": {\"O\": 1}, \"29\": {\"O\": 1}, \"30\": {\"O\": 1}, \"31\": {\"O\": 1}, \"32\": {\"O\": 1}, \"33\": {\"O\": 1}, \"34\": {\"O\": 1}, \"35\": {\"O\": 1}, \"36\": {\"O\": 1}, \"37\": {\"O\": 1}, \"38\": {\"O\": 1}, \"39\": {\"O\": 1}}" n_minim_iter=2 energy=-45150.02572756242 stress="-0.05527742752175002 3.963708404067298e-13 1.1961705082302621e-12 3.963708404067298e-13 -0.055277427520907294 -8.232906375123807e-13 1.1961705082302621e-12 -8.232906375123807e-13 -0.05527742752219893" free_energy=-45150.02572756242 pbc="T T T"
In      -4.15627790       2.93893229       5.55513671        0      -0.00691503       0.00488967      -0.00846915
In       7.05362058       1.15852903       1.54187445        1       0.00691503      -0.00488967       0.00846915
In       1.25893522      -0.89020163       5.09038004        2       0.00691503      -0.00488967       0.00846915
In      -1.44867134      -2.04873065       3.54850558        3      -0.00000000       0.00000000      -0.00000000
In      -1.25893522       3.96329762       3.31612725        4      -0.00691503       0.00488967       0.00846915
In       4.53575014      -2.80476859       5.32275838        5      -0.00691503      -0.00977933       0.00000000
In      -1.25893522       1.29269272       5.32275838        6      -0.00691503      -0.00977933      -0.00000000
In      -1.63840746       6.90222990       1.77425279        7       0.00691503       0.00977933       0.00000000
In       4.15627790       0.13416370       3.78088392        8       0.00691503      -0.00488967      -0.00846915
In      -1.44867134       4.09746131      -0.00000000        9      -0.00000000       0.00000000       0.00000000
In       4.15627790       6.28035566       0.23237833       10       0.00691503      -0.00488967      -0.00846915
In      -1.25893522      -2.18289435       6.86463283       11      -0.00691503       0.00488967       0.00846915
In       4.15627790       2.80476859       1.77425279       12       0.00691503       0.00977933       0.00000000
In       1.63840746       4.98766295       2.00663113       13      -0.00691503       0.00488967      -0.00846915
In       4.34601402       0.00000000      -0.00000000       14       0.00000000       0.00000000      -0.00000000
In       1.44867134       2.04873066       3.54850558       15       0.00000000       0.00000000      -0.00000000
O        0.88807471       4.10640515       3.83980199       16       0.04466571      -0.01843232      -0.01785464
O       -2.00926797       3.32089415       5.16936458       17       0.04466571      -0.00624641       0.02489018
O       -0.42769731       2.20255481       0.00937397       18      -0.00837876       0.03126169      -0.04007576
O       -0.88807471      -0.76762332       1.91215540       19      -0.04466571      -0.02467873       0.00703554
O        3.80072502       4.87049670       1.90278143       20      -0.02077774       0.00154098       0.04711130
O        1.99396034       2.83612195       1.62085900       21       0.02077774      -0.04002910       0.02489018
O        1.99396034       6.13183606       0.28192243       22       0.02077774       0.04157007       0.02222113
O       -2.21915436       5.81524392       3.55787956       23      -0.03226673      -0.00252099      -0.04007576
O        3.32503999       1.89490651       7.08763720       24       0.00837876      -0.03126169       0.04007577
O        5.11649703      -1.71778261       3.53913161       25       0.03226673       0.00252099       0.04007576
O        6.22238266       3.15812616       1.64572415       26       0.00837876      -0.01907578      -0.04711130
O        3.57553100       2.22232278       3.83042801       27      -0.03226673      -0.03344613       0.02222113
O        0.67818832       4.25481724       6.80571477       28      -0.03226673       0.03596713       0.01785464
O        2.21915435      -0.15735592       0.29129640       29       0.03226673      -0.03596713      -0.01785464
O       -3.32503999       0.93933516       5.45128701       30      -0.00837876       0.01907578       0.04711130
O        4.90661065       0.77656717       1.92764658       31      -0.04466571       0.00624641      -0.02489018
O        0.90338234       1.26133936       5.47615217       32      -0.02077774       0.04002910      -0.02489018
O        3.32503999      -0.95557135       5.46066099       33       0.00837876       0.05033748       0.00703554
O        2.00926797      -0.00894384       3.25720918       34      -0.04466571       0.01843232       0.01785464
O        0.90338234      -2.03437475       6.81508874       35      -0.02077774      -0.04157007      -0.02222113
O       -0.67818832       1.87513854       3.26658315       36       0.03226673       0.03344613      -0.02222113
O       -0.90338234      -0.77303539       5.19422974       37       0.02077774      -0.00154098      -0.04711130
O       -0.42769731       5.05303266       1.63635018       38      -0.00837876      -0.05033748      -0.00703554
O        3.78541738       4.86508464       5.18485577       39       0.04466571       0.02467873      -0.00703554
40
Lattice="8.692028036701096 6.812563998131742e-10 -1.6371255308078252e-15 -2.89734267954266 8.194922622459496 -1.1799804367982767e-09 -2.8973426785792173 -4.097461310548483 7.097011173884372" Properties=species:S:1:pos:R:3:spacegroup_kinds:I:1:forces:R:3 spacegroup="P 1" unit_cell=conventional occupancy="_JSON {\"0\": {\"In\": 1}, \"1\": {\"In\": 1}, \"2\": {\"In\": 1}, \"3\": {\"In\": 1}, \"4\": {\"In\": 1}, \"5\": {\"In\": 1}, \"6\": {\"In\": 1}, \"7\": {\"In\": 1}, \"8\": {\"In\": 1}, \"9\": {\"In\": 1}, \"10\": {\"In\": 1}, \"11\": {\"In\": 1}, \"12\": {\"In\": 1}, \"13\": {\"In\": 1}, \"14\": {\"In\": 1}, \"15\": {\"In\": 1}, \"16\": {\"O\": 1}, \"17\": {\"O\": 1}, \"18\": {\"O\": 1}, \"19\": {\"O\": 1}, \"20\": {\"O\": 1}, \"21\": {\"O\": 1}, \"22\": {\"O\": 1}, \"23\": {\"O\": 1}, \"24\": {\"O\": 1}, \"25\": {\"O\": 1}, \"26\": {\"O\": 1}, \"27\": {\"O\": 1}, \"28\": {\"O\": 1}, \"29\": {\"O\": 1}, \"30\": {\"O\": 1}, \"31\": {\"O\": 1}, \"32\": {\"O\": 1}, \"33\": {\"O\": 1}, \"34\": {\"O\": 1}, \"35\": {\"O\": 1}, \"36\": {\"O\": 1}, \"37\": {\"O\": 1}, \"38\": {\"O\": 1}, \"39\": {\"O\": 1}}" n_minim_iter=3 energy=-45150.02750956855 stress="-0.05447162282669813 -6.454045136615804e-13 4.794020867044092e-13 -6.454045136615804e-13 -0.05447162283101791 -1.40110469956978e-12 4.794020867044092e-13 -1.40110469956978e-12 -0.054471622827962425" free_energy=-45150.02750956855 pbc="T T T"
In      -4.15694172       2.93940168       5.55432371        0      -0.00157093       0.00111081      -0.00192399
In       7.05428439       1.15805964       1.54268746        1       0.00157093      -0.00111081       0.00192399
In       1.25959903      -0.89067102       5.09119304        2       0.00157093      -0.00111081       0.00192399
In      -1.44867134      -2.04873065       3.54850558        3      -0.00000000      -0.00000000       0.00000000
In      -1.25959904       3.96376700       3.31694025        4      -0.00157093       0.00111081       0.00192399
In       4.53508632      -2.80570736       5.32275838        5      -0.00157093      -0.00222163       0.00000000
In      -1.25959904       1.29175395       5.32275838        6      -0.00157093      -0.00222163       0.00000000
In      -1.63774365       6.90316868       1.77425279        7       0.00157093       0.00222163      -0.00000000
In       4.15694171       0.13369431       3.78007092        8       0.00157093      -0.00111081      -0.00192399
In      -1.44867134       4.09746131      -0.00000000        9      -0.00000000       0.00000000       0.00000000
In       4.15694171       6.27988628       0.23156533       10       0.00157093      -0.00111081      -0.00192399
In      -1.25959904      -2.18242496       6.86544584       11      -0.00157093       0.00111081       0.00192399
In       4.15694171       2.80570737       1.77425279       12       0.00157093       0.00222163      -0.00000000
In       1.63774364       4.98813233       2.00581813       13      -0.00157093       0.00111081      -0.00192399
In       4.34601402       0.00000000      -0.00000000       14      -0.00000000      -0.00000000       0.00000000
In       1.44867134       2.04873066       3.54850558       15      -0.00000000       0.00000000       0.00000000
O        0.89014909       4.10714848       3.83787248       16       0.03071065      -0.03178716       0.00696647
O       -2.00719359       3.31885149       5.16968560       17       0.03071065       0.02192673       0.02404525
O       -0.42823087       2.20235625       0.00650091       18       0.00094037       0.04297749      -0.01241574
O       -0.89014910      -0.76892266       1.91054691       19      -0.03071065      -0.00986044       0.03101173
O        3.79810772       4.87013727       1.90404600       20       0.01043583       0.00269221       0.04342747
O        1.99657764       2.83484709       1.62118001       21      -0.01043583      -0.03626318       0.02404525
O        1.99657764       6.13275150       0.28286599       22      -0.01043583       0.03895539       0.01938221
O       -2.21914501       5.81581316       3.55500650       23      -0.04020611      -0.01521242      -0.01241574
O        3.32557355       1.89510507       7.09051026       24      -0.00094037      -0.04297749       0.01241574
O        5.11648768      -1.71835184       3.54200467       25       0.04020611       0.01521242       0.01241574
O        6.22291623       3.15553874       1.64445958       26      -0.00094037       0.01073640      -0.04342747
O        3.57554035       2.21955002       3.83137157       27      -0.04020611      -0.00314613       0.01938221
O        0.67819767       4.25702077       6.80764427       28      -0.04020611       0.01835855      -0.00696647
O        2.21914500      -0.15955945       0.28936690       29       0.04020611      -0.01835855       0.00696647
O       -3.32557355       0.94192258       5.45255159       30       0.00094037      -0.01073640       0.04342747
O        4.90453626       0.77860983       1.92732557       31      -0.03071065      -0.02192673      -0.02404525
O        0.90076504       1.26261423       5.47583116       32       0.01043583       0.03626318      -0.02404525
O        3.32557355      -0.95318249       5.45905250       33      -0.00094037       0.03224109       0.03101173
O        2.00719358      -0.00968716       3.25913868       34      -0.03071065       0.03178716      -0.00696647
O        0.90076504      -2.03529019       6.81414518       35       0.01043583      -0.03895539      -0.01938221
O       -0.67819768       1.87791130       3.26563960       36       0.04020611       0.00314613      -0.01938221
O       -0.90076504      -0.77267596       5.19296517       37      -0.01043583      -0.00269221      -0.04342747
O       -0.42823087       5.05064380       1.63795867       38       0.00094037      -0.03224109      -0.03101173
O        3.78749177       4.86638397       5.18646426       39       0.03071065       0.00986044      -0.03101173
40
Lattice="8.692028036701096 6.812563998131743e-10 -1.6371255308078313e-15 -2.8973426795426604 8.194922622459496 -1.1799804367982769e-09 -2.897342678579218 -4.097461310548483 7.0970111738843755" Properties=species:S:1:pos:R:3:spacegroup_kinds:I:1:forces:R:3 spacegroup="P 1" unit_cell=conventional occupancy="_JSON {\"0\": {\"In\": 1}, \"1\": {\"In\": 1}, \"2\": {\"In\": 1}, \"3\": {\"In\": 1}, \"4\": {\"In\": 1}, \"5\": {\"In\": 1}, \"6\": {\"In\": 1}, \"7\": {\"In\": 1}, \"8\": {\"In\": 1}, \"9\": {\"In\": 1}, \"10\": {\"In\": 1}, \"11\": {\"In\": 1}, \"12\": {\"In\": 1}, \"13\": {\"In\": 1}, \"14\": {\"In\": 1}, \"15\": {\"In\": 1}, \"16\": {\"O\": 1}, \"17\": {\"O\": 1}, \"18\": {\"O\": 1}, \"19\": {\"O\": 1}, \"20\": {\"O\": 1}, \"21\": {\"O\": 1}, \"22\": {\"O\": 1}, \"23\": {\"O\": 1}, \"24\": {\"O\": 1}, \"25\": {\"O\": 1}, \"26\": {\"O\": 1}, \"27\": {\"O\": 1}, \"28\": {\"O\": 1}, \"29\": {\"O\": 1}, \"30\": {\"O\": 1}, \"31\": {\"O\": 1}, \"32\": {\"O\": 1}, \"33\": {\"O\": 1}, \"34\": {\"O\": 1}, \"35\": {\"O\": 1}, \"36\": {\"O\": 1}, \"37\": {\"O\": 1}, \"38\": {\"O\": 1}, \"39\": {\"O\": 1}}" n_minim_iter=4 energy=-45150.02882287628 stress="-0.053941548337881354 -1.4794230374954708e-12 -1.8709101132616247e-12 -1.4794230374954708e-12 -0.05394154833756302 -1.7690810708730206e-12 -1.8709101132616247e-12 -1.7690810708730206e-12 -0.053941548335026304" free_energy=-45150.02882287628 pbc="T T T"
In      -4.15755464       2.93983508       5.55357304        0       0.00621837      -0.00439705       0.00761592
In       7.05489732       1.15762624       1.54343813        1      -0.00621837       0.00439705      -0.00761592
In       1.26021196      -0.89110442       5.09194372        2      -0.00621837       0.00439705      -0.00761592
In      -1.44867134      -2.04873065       3.54850558        3      -0.00000000       0.00000000       0.00000000
In      -1.26021196       3.96420041       3.31769092        4       0.00621837      -0.00439705      -0.00761592
In       4.53447340      -2.80657417       5.32275838        5       0.00621837       0.00879410      -0.00000000
In      -1.26021196       1.29088714       5.32275838        6       0.00621837       0.00879410       0.00000000
In      -1.63713072       6.90403549       1.77425279        7      -0.00621837      -0.00879410      -0.00000000
In       4.15755464       0.13326091       3.77932024        8      -0.00621837       0.00439705       0.00761592
In      -1.44867134       4.09746131      -0.00000000        9      -0.00000000      -0.00000000       0.00000000
In       4.15755464       6.27945287       0.23081466       10      -0.00621837       0.00439705       0.00761592
In      -1.26021196      -2.18199156       6.86619651       11       0.00621837      -0.00439705      -0.00761592
In       4.15755464       2.80657417       1.77425279       12      -0.00621837      -0.00879410      -0.00000000
In       1.63713072       4.98856574       2.00506745       13       0.00621837      -0.00439705       0.00761592
In       4.34601402       0.00000000      -0.00000000       14      -0.00000000       0.00000000       0.00000000
In       1.44867134       2.04873066       3.54850558       15       0.00000000       0.00000000      -0.00000000
O        0.89316784       4.10638979       3.83660624       16       0.00643621      -0.01382695       0.01908529
O       -2.00417484       3.31813423       5.17097576       17       0.00643621       0.02344182       0.00243185
O       -0.42861616       2.20404600       0.00362200       18       0.01121039       0.02006597       0.00827899
O       -0.89316784      -0.77039860       1.91057083       19      -0.00643621       0.00961487       0.02151713
O        3.79642523       4.86995108       1.90694882       20       0.01995575      -0.00483499       0.01323814
O        1.99826012       2.83224007       1.62247017       21      -0.01995575      -0.01388206       0.00243185
O        1.99826012       6.13517232       0.28447865       22      -0.01995575       0.00904707       0.01080629
O       -2.22086655       5.81561315       3.55212759       23      -0.01518158      -0.01725791       0.00827899
O        3.32595883       1.89341531       7.09338916       24      -0.01121039      -0.02006597      -0.00827899
O        5.11820923      -1.71815184       3.54488358       25       0.01518158       0.01725791      -0.00827899
O        6.22330151       3.15389041       1.64155676       26      -0.01121039       0.01720280      -0.01323814
O        3.57381881       2.21715682       3.83298423       27      -0.01518158       0.01579877       0.01080629
O        0.67647613       4.25961397       6.80891051       28      -0.01518158       0.00145914      -0.01908529
O        2.22086655      -0.16215266       0.28810065       29       0.01518158      -0.00145914       0.01908529
O       -3.32595883       0.94357091       5.45545441       30       0.01121039      -0.01720280       0.01323814
O        4.90151751       0.77932708       1.92603541       31      -0.00643621      -0.02344182      -0.00243185
O        0.89908255       1.26522124       5.47454099       32       0.01995575       0.01388206      -0.00243185
O        3.32595883      -0.94984440       5.45907642       33      -0.01121039       0.00286317       0.02151713
O        2.00417484      -0.00892848       3.26040493       34      -0.00643621       0.01382695      -0.01908529
O        0.89908255      -2.03771101       6.81253252       35       0.01995575      -0.00904707      -0.01080629
O       -0.67647613       1.88030450       3.26402694       36       0.01518158      -0.01579877      -0.01080629
O       -0.89908256      -0.77248977       5.19006235       37      -0.01995575       0.00483499      -0.01323814
O       -0.42861616       5.04730572       1.63793475       38       0.01121039      -0.00286317      -0.02151713
O        3.79051052       4.86785992       5.18644034       39       0.00643621      -0.00961487      -0.02151713
40
Lattice="8.692028036701092 6.812563998131742e-10 -1.6371255308078313e-15 -2.89734267954266 8.194922622459492 -1.1799804367982767e-09 -2.8973426785792173 -4.097461310548481 7.097011173884375" Properties=species:S:1:pos:R:3:spacegroup_kinds:I:1:forces:R:3 spacegroup="P 1" unit_cell=conventional occupancy="_JSON {\"0\": {\"In\": 1}, \"1\": {\"In\": 1}, \"2\": {\"In\": 1}, \"3\": {\"In\": 1}, \"4\": {\"In\": 1}, \"5\": {\"In\": 1}, \"6\": {\"In\": 1}, \"7\": {\"In\": 1}, \"8\": {\"In\": 1}, \"9\": {\"In\": 1}, \"10\": {\"In\": 1}, \"11\": {\"In\": 1}, \"12\": {\"In\": 1}, \"13\": {\"In\": 1}, \"14\": {\"In\": 1}, \"15\": {\"In\": 1}, \"16\": {\"O\": 1}, \"17\": {\"O\": 1}, \"18\": {\"O\": 1}, \"19\": {\"O\": 1}, \"20\": {\"O\": 1}, \"21\": {\"O\": 1}, \"22\": {\"O\": 1}, \"23\": {\"O\": 1}, \"24\": {\"O\": 1}, \"25\": {\"O\": 1}, \"26\": {\"O\": 1}, \"27\": {\"O\": 1}, \"28\": {\"O\": 1}, \"29\": {\"O\": 1}, \"30\": {\"O\": 1}, \"31\": {\"O\": 1}, \"32\": {\"O\": 1}, \"33\": {\"O\": 1}, \"34\": {\"O\": 1}, \"35\": {\"O\": 1}, \"36\": {\"O\": 1}, \"37\": {\"O\": 1}, \"38\": {\"O\": 1}, \"39\": {\"O\": 1}}" n_minim_iter=5 energy=-45150.029193285474 stress="-0.054185069274295804 1.621257884723575e-12 -6.257258246518395e-13 1.621257884723575e-12 -0.054185069277535095 -1.3449995570432417e-13 -6.257258246518395e-13 -1.3449995570432417e-13 -0.05418506927706041" free_energy=-45150.029193285474 pbc="T T T"
In      -4.15735441       2.93969349       5.55381827        0       0.00550851      -0.00389511       0.00674652
In       7.05469708       1.15776782       1.54319290        1      -0.00550851       0.00389511      -0.00674652
In       1.26001172      -0.89096283       5.09169848        2      -0.00550851       0.00389511      -0.00674652
In      -1.44867134      -2.04873065       3.54850558        3      -0.00000000       0.00000000      -0.00000000
In      -1.26001173       3.96405882       3.31744569        4       0.00550851      -0.00389511      -0.00674652
In       4.53467363      -2.80629100       5.32275838        5       0.00550851       0.00779021       0.00000000
In      -1.26001173       1.29117031       5.32275838        6       0.00550851       0.00779021       0.00000000
In      -1.63733096       6.90375231       1.77425279        7      -0.00550851      -0.00779021      -0.00000000
In       4.15735440       0.13340249       3.77956548        8      -0.00550851       0.00389511       0.00674652
In      -1.44867134       4.09746131      -0.00000000        9       0.00000000       0.00000000      -0.00000000
In       4.15735440       6.27959446       0.23105989       10      -0.00550851       0.00389511       0.00674652
In      -1.26001173      -2.18213315       6.86595128       11       0.00550851      -0.00389511      -0.00674652
In       4.15735440       2.80629100       1.77425279       12      -0.00550851      -0.00779021       0.00000000
In       1.63733095       4.98842415       2.00531269       13       0.00550851      -0.00389511       0.00674652
In       4.34601402       0.00000000      -0.00000000       14      -0.00000000       0.00000000       0.00000000
In       1.44867134       2.04873066       3.54850558       15       0.00000000      -0.00000000       0.00000000
O        0.89314477       4.10579003       3.83725286       16       0.00521743      -0.00151370       0.00938917
O       -2.00419791       3.31899410       5.17117186       17       0.00521743       0.00888811      -0.00338369
O       -0.42837861       2.20472159       0.00413729       18       0.00869181       0.00643136       0.00087154
O       -0.89314477      -0.77013849       1.91141355       19      -0.00521743       0.00737442       0.00600549
O        3.79724361       4.86998847       1.90727625       20       0.00664065      -0.00687123       0.00513395
O        1.99744174       2.83197520       1.62266627       21      -0.00664065      -0.00788175      -0.00338369
O        1.99744174       6.13547458       0.28460998       22      -0.00664065       0.00101051       0.00851764
O       -2.22142432       5.81516400       3.55264288       23      -0.00316627      -0.01033850       0.00087154
O        3.32572129       1.89273973       7.09287388       24      -0.00869181      -0.00643136      -0.00087154
O        5.11876699      -1.71770269       3.54436829       25       0.00316627       0.01033850      -0.00087154
O        6.22306397       3.15467445       1.64122933       26      -0.00869181       0.00397045      -0.00513395
O        3.57326104       2.21782764       3.83311557       27      -0.00316627       0.00592403       0.00851764
O        0.67591836       4.25939230       6.80826390       28      -0.00316627       0.00441448      -0.00938917
O        2.22142432      -0.16193098       0.28874727       29       0.00316627      -0.00441448       0.00938917
O       -3.32572129       0.94278686       5.45578184       30       0.00869181      -0.00397045       0.00513395
O        4.90154059       0.77846721       1.92583931       31      -0.00521743      -0.00888811       0.00338369
O        0.89990094       1.26548611       5.47434490       32       0.00664065       0.00788174       0.00338369
O        3.32572129      -0.94995286       5.45991913       33      -0.00869181       0.00246090       0.00600549
O        2.00419791      -0.00832872       3.25975831       34      -0.00521743       0.00151370      -0.00938917
O        0.89990094      -2.03801327       6.81240119       35       0.00664065      -0.00101051      -0.00851764
O       -0.67591836       1.87963367       3.26389560       36       0.00316627      -0.00592403      -0.00851764
O       -0.89990094      -0.77252716       5.18973492       37      -0.00664065       0.00687123      -0.00513395
O       -0.42837861       5.04741418       1.63709204       38       0.00869181      -0.00246090      -0.00600549
O        3.79048744       4.86759981       5.18559762       39       0.00521743      -0.00737442      -0.00600549
40