40
Lattice="8.84590109944235 6.933196353643284e-10 6.064384707816522e-16 -2.948633700467781 8.33999553726385 -1.2008622387940265e-09 -2.948633699487284 -4.169997767938609 7.222648003519923" Properties=species:S:1:pos:R:3:spacegroup_kinds:I:1:forces:R:3 spacegroup="P 1" unit_cell=conventional occupancy="_JSON {\"0\": {\"In\": 1}, \"1\": {\"In\": 1}, \"2\": {\"In\": 1}, \"3\": {\"In\": 1}, \"4\": {\"In\": 1}, \"5\": {\"In\": 1}, \"6\": {\"In\": 1}, \"7\": {\"In\": 1}, \"8\": {\"In\": 1}, \"9\": {\"In\": 1}, \"10\": {\"In\": 1}, \"11\": {\"In\": 1}, \"12\": {\"In\": 1}, \"13\": {\"In\": 1}, \"14\": {\"In\": 1}, \"15\": {\"In\": 1}, \"16\": {\"O\": 1}, \"17\": {\"O\": 1}, \"18\": {\"O\": 1}, \"19\": {\"O\": 1}, \"20\": {\"O\": 1}, \"21\": {\"O\": 1}, \"22\": {\"O\": 1}, \"23\": {\"O\": 1}, \"24\": {\"O\": 1}, \"25\": {\"O\": 1}, \"26\": {\"O\": 1}, \"27\": {\"O\": 1}, \"28\": {\"O\": 1}, \"29\": {\"O\": 1}, \"30\": {\"O\": 1}, \"31\": {\"O\": 1}, \"32\": {\"O\": 1}, \"33\": {\"O\": 1}, \"34\": {\"O\": 1}, \"35\": {\"O\": 1}, \"36\": {\"O\": 1}, \"37\": {\"O\": 1}, \"38\": {\"O\": 1}, \"39\": {\"O\": 1}}" n_minim_iter=4 energy=-45151.073405506824 stress="-0.021191505212845425 -1.2228774625570737e-12 1.3171858191412053e-12 -1.2228774625570737e-12 -0.021191505214290748 3.3635508516472316e-13 1.3171858191412053e-12 3.3635508516472316e-13 -0.02119150521201705" free_energy=-45151.073405506824 pbc="T T T"
In      -4.22474527       2.98734603       5.65973690        0      -0.00503481       0.00356015      -0.00616636
In       7.17337897       1.18265174       1.56291110        1       0.00503481      -0.00356015       0.00616636
In       1.27611157      -0.90234714       5.17423510        2       0.00503481      -0.00356015       0.00616636
In      -1.47431685      -2.08499888       3.61132400        3      -0.00000000      -0.00000000       0.00000000
In      -1.27611157       4.02984547       3.36857310        4      -0.00503481       0.00356015       0.00616636
In       4.62115583      -2.84719373       5.41698600        5      -0.00503481      -0.00712030       0.00000000
In      -1.27611157       1.32280404       5.41698600        6      -0.00503481      -0.00712030       0.00000000
In      -1.67252213       7.01719150       1.80566200        7       0.00503481       0.00712030      -0.00000000
In       4.22474527       0.14015230       3.85407490        8       0.00503481      -0.00356015      -0.00616636
In      -1.47431685       4.16999777      -0.00000000        9       0.00000000      -0.00000000      -0.00000000
In       4.22474527       6.39514895       0.24275090       10       0.00503481      -0.00356015      -0.00616636
In      -1.27611157      -2.22515118       6.97989710       11      -0.00503481       0.00356015       0.00616636
In       4.22474527       2.84719373       1.80566200       12       0.00503481       0.00712030      -0.00000000
In       1.67252213       5.07234492       2.04841290       13      -0.00503481       0.00356015      -0.00616636
In       4.42295055       0.00000000      -0.00000000       14       0.00000000       0.00000000      -0.00000000
In       1.47431685       2.08499889       3.61132400       15      -0.00000000       0.00000000      -0.00000000
O        0.88136040       4.17166564       3.92307812       16       0.00263095      -0.00354802       0.00524344
O       -2.06727330       3.39665138       5.25966453       17       0.00263095       0.00631496       0.00045096
O       -0.43375869       2.24158212       0.03765517       18       0.00348568       0.00571058       0.00149778
O       -0.88136040      -0.77167852       1.96009464       19      -0.00263095       0.00276694       0.00569440
O        3.89148473       4.96341652       1.92243947       20       0.00507682      -0.00190219       0.00419661
O        2.00578267       2.90182572       1.64834052       21      -0.00507682      -0.00458547       0.00045096
O        2.00578267       6.23158857       0.27409894       22      -0.00507682       0.00268328       0.00374565
O       -2.25797012       5.91675423       3.64897917       23      -0.00422209      -0.00518985       0.00149778
O        3.38239239       1.92841565       7.18499283       24      -0.00348568      -0.00571058      -0.00149778
O        5.20660382      -1.74675646       3.57366883       25       0.00422209       0.00518985      -0.00149778
O        6.33102609       3.23840028       1.68888452       26      -0.00348568       0.00415241      -0.00419661
O        3.63929728       2.28673043       3.88542295       27      -0.00422209       0.00389205       0.00374565
O        0.69066358       4.30650865       6.91089388       28      -0.00422209       0.00129781      -0.00524344
O        2.25797012      -0.13651088       0.31175412       29       0.00422209      -0.00129781       0.00524344
O       -3.38239239       0.93159749       5.53376347       30       0.00348568      -0.00415241       0.00419661
O        5.01590700       0.77334639       1.96298347       31      -0.00263095      -0.00631496      -0.00045096
O        0.94285103       1.26817205       5.57430747       32       0.00507682       0.00458547      -0.00045096
O        3.38239239      -0.99681816       5.57141864       33      -0.00348568       0.00155817       0.00569440
O        2.06727330      -0.00166786       3.29956988       34      -0.00263095       0.00354802      -0.00524344
O        0.94285103      -2.06159079       6.94854905       35       0.00507682      -0.00268328      -0.00374565
O       -0.69066358       1.88326734       3.33722505       36       0.00422209      -0.00389205      -0.00374565
O       -0.94285103      -0.79341874       5.30020853       37      -0.00507682       0.00190219      -0.00419661
O       -0.43375869       5.16681593       1.65122935       38       0.00348568      -0.00155817      -0.00569440
O        3.82999409       4.94167629       5.26255335       39       0.00263095      -0.00276694      -0.00569440
