40
Lattice="8.994599478794632 7.049740190391759e-10 -1.841759734205818e-15 -2.9981998269295347 8.4801897137819 -1.2210478259341685e-09 -2.9981998259325495 -4.240094856185977 7.344059721860652" Properties=species:S:1:pos:R:3:spacegroup_kinds:I:1:forces:R:3 spacegroup="P 1" unit_cell=conventional occupancy="_JSON {\"0\": {\"In\": 1}, \"1\": {\"In\": 1}, \"2\": {\"In\": 1}, \"3\": {\"In\": 1}, \"4\": {\"In\": 1}, \"5\": {\"In\": 1}, \"6\": {\"In\": 1}, \"7\": {\"In\": 1}, \"8\": {\"In\": 1}, \"9\": {\"In\": 1}, \"10\": {\"In\": 1}, \"11\": {\"In\": 1}, \"12\": {\"In\": 1}, \"13\": {\"In\": 1}, \"14\": {\"In\": 1}, \"15\": {\"In\": 1}, \"16\": {\"O\": 1}, \"17\": {\"O\": 1}, \"18\": {\"O\": 1}, \"19\": {\"O\": 1}, \"20\": {\"O\": 1}, \"21\": {\"O\": 1}, \"22\": {\"O\": 1}, \"23\": {\"O\": 1}, \"24\": {\"O\": 1}, \"25\": {\"O\": 1}, \"26\": {\"O\": 1}, \"27\": {\"O\": 1}, \"28\": {\"O\": 1}, \"29\": {\"O\": 1}, \"30\": {\"O\": 1}, \"31\": {\"O\": 1}, \"32\": {\"O\": 1}, \"33\": {\"O\": 1}, \"34\": {\"O\": 1}, \"35\": {\"O\": 1}, \"36\": {\"O\": 1}, \"37\": {\"O\": 1}, \"38\": {\"O\": 1}, \"39\": {\"O\": 1}}" n_minim_iter=6 energy=-45151.099710331786 stress="0.016427807898122516 1.221863643217466e-12 8.120752367960716e-13 1.221863643217466e-12 0.016427807897416324 4.697972491426905e-13 8.120752367960716e-13 4.697972491426905e-13 0.016427807897657007" free_energy=-45151.099710331786 pbc="T T T"
In      -4.29310983       3.03568707       5.75812533        0      -0.00147168       0.00104064      -0.00180243
In       7.29130965       1.20440779       1.58593438        1       0.00147168      -0.00104064       0.00180243
In       1.29491000      -0.91563964       5.25796424        2       0.00147168      -0.00104064       0.00180243
In      -1.49909991      -2.12004743       3.67202986        3       0.00000000       0.00000000       0.00000000
In      -1.29491000       4.09571079       3.42194931        4      -0.00147168       0.00104064       0.00180243
In       4.70148965      -2.89130300       5.50804479        5      -0.00147168      -0.00208127      -0.00000000
In      -1.29491000       1.34879186       5.50804479        6      -0.00147168      -0.00208127      -0.00000000
In      -1.70328983       7.13139786       1.83601493        7       0.00147168       0.00208127      -0.00000000
In       4.29310983       0.14438407       3.92211040        8       0.00147168      -0.00104064      -0.00180243
In      -1.49909991       4.24009486      -0.00000000        9      -0.00000000      -0.00000000       0.00000000
In       4.29310983       6.50452636       0.25008054       10       0.00147168      -0.00104064      -0.00180243
In      -1.29491000      -2.26443150       7.09397917       11      -0.00147168       0.00104064       0.00180243
In       4.29310983       2.89130300       1.83601493       12       0.00147168       0.00208127      -0.00000000
In       1.70328982       5.15573450       2.08609547       13      -0.00147168       0.00104064      -0.00180243
In       4.49729974       0.00000000      -0.00000000       14       0.00000000       0.00000000      -0.00000000
In       1.49909991       2.12004743       3.67202986       15      -0.00000000       0.00000000       0.00000000
O        0.87647727       4.24000969       4.00146146       16      -0.00051348       0.00121240      -0.00024642
O       -2.12172256       3.46540987       5.34340275       17      -0.00051348      -0.00081960      -0.00092676
O       -0.43830123       2.27505123       0.06110467       18       0.00019917      -0.00132352      -0.00005394
O       -0.87647727      -0.77477016       2.00080449       19       0.00051348       0.00039279      -0.00117318
O        3.97446060       5.05014382       1.93969982       20      -0.00060157      -0.00042394      -0.00111923
O        2.02193904       2.96529002       1.67137289       21       0.00060157       0.00075732      -0.00092676
O        2.02193904       6.32494866       0.26832693       22       0.00060157      -0.00118125      -0.00019248
O       -2.29103928       6.01502624       3.73313453       23       0.00131422       0.00025340      -0.00005394
O        3.43650105       1.96504363       7.28295505       24      -0.00019917       0.00132352       0.00005394
O        5.28923910      -1.77493138       3.61092519       25      -0.00131422      -0.00025340       0.00005394
O        6.43470088       3.31049124       1.73233004       26      -0.00019917      -0.00070848       0.00111923
O        3.70536038       2.34552365       3.94035679       27       0.00131422      -0.00017341      -0.00019248
O        0.70716055       4.35973469       7.01462812       28       0.00131422      -0.00007998       0.00024642
O        2.29103927      -0.11963983       0.32943160       29      -0.00131422       0.00007998      -0.00024642
O       -3.43650105       0.92960362       5.61172968       30       0.00019917       0.00070848      -0.00111923
O        5.11992238       0.77468499       2.00065697       31       0.00051348       0.00081960       0.00092676
O        0.97626078       1.27480484       5.67268683       32      -0.00060157      -0.00075732       0.00092676
O        3.43650105      -1.03544001       5.67283435       33      -0.00019917      -0.00061505      -0.00117318
O        2.12172255       0.00008517       3.34259826       34       0.00051348      -0.00121240       0.00024642
O        0.97626078      -2.08485380       7.07573279       35      -0.00060157       0.00118125       0.00019248
O       -0.70716055       1.89457121       3.40370293       36      -0.00131422       0.00017341       0.00019248
O       -0.97626078      -0.81004896       5.40435990       37       0.00060157       0.00042394       0.00111923
O       -0.43830123       5.27553487       1.67122536       38       0.00019917       0.00061505       0.00117318
O        3.87467709       5.01486502       5.34325523       39      -0.00051348      -0.00039279       0.00117318
