40
Lattice="8.281402057537695 6.490769034311044e-10 1.3419205100824485e-14 -2.760467353124524 7.807780736606489 -1.1242439056873509e-09 -2.760467352206599 -3.9038903676541645 6.7617364658294825" Properties=species:S:1:pos:R:3:spacegroup_kinds:I:1:forces:R:3 spacegroup="P 1" unit_cell=conventional occupancy="_JSON {\"0\": {\"In\": 1}, \"1\": {\"In\": 1}, \"2\": {\"In\": 1}, \"3\": {\"In\": 1}, \"4\": {\"In\": 1}, \"5\": {\"In\": 1}, \"6\": {\"In\": 1}, \"7\": {\"In\": 1}, \"8\": {\"In\": 1}, \"9\": {\"In\": 1}, \"10\": {\"In\": 1}, \"11\": {\"In\": 1}, \"12\": {\"In\": 1}, \"13\": {\"In\": 1}, \"14\": {\"In\": 1}, \"15\": {\"In\": 1}, \"16\": {\"O\": 1}, \"17\": {\"O\": 1}, \"18\": {\"O\": 1}, \"19\": {\"O\": 1}, \"20\": {\"O\": 1}, \"21\": {\"O\": 1}, \"22\": {\"O\": 1}, \"23\": {\"O\": 1}, \"24\": {\"O\": 1}, \"25\": {\"O\": 1}, \"26\": {\"O\": 1}, \"27\": {\"O\": 1}, \"28\": {\"O\": 1}, \"29\": {\"O\": 1}, \"30\": {\"O\": 1}, \"31\": {\"O\": 1}, \"32\": {\"O\": 1}, \"33\": {\"O\": 1}, \"34\": {\"O\": 1}, \"35\": {\"O\": 1}, \"36\": {\"O\": 1}, \"37\": {\"O\": 1}, \"38\": {\"O\": 1}, \"39\": {\"O\": 1}}" n_minim_iter=9 energy=-45147.98481109833 stress="0.1057044041409765 -5.1131348059437844e-14 -3.372494790731854e-13 -5.1131348059437844e-14 0.10570440414114343 1.2351210499876073e-12 -3.372494790731854e-13 1.2351210499876073e-12 0.10570440414203583" free_energy=-45147.98481109833 pbc="T T T"
In      -4.06029206       2.87106005       5.16978282        0      -0.00137163       0.00096989      -0.00167989
In       6.82075941       1.03283032       1.59195364        1       0.00137163      -0.00096989       0.00167989
In       1.29982471      -0.91911486       4.97282188        2       0.00137163      -0.00096989       0.00167989
In      -1.38023368      -1.95194518       3.38086823        3       0.00000000      -0.00000000       0.00000000
In      -1.29982471       3.84703264       3.28238776        4      -0.00137163       0.00096989       0.00167989
In       4.22110999      -2.81420232       5.07130235        5      -0.00137163      -0.00193977       0.00000000
In      -1.29982471       1.08968805       5.07130235        6      -0.00137163      -0.00193977      -0.00000000
In      -1.46064265       6.71809269       1.69043411        7       0.00137163       0.00193977      -0.00000000
In       4.06029206       0.05685773       3.47934870        8       0.00137163      -0.00096989      -0.00167989
In      -1.38023368       3.90389037      -0.00000000        9      -0.00000000      -0.00000000       0.00000000
In       4.06029206       5.91269328       0.09848047       10       0.00137163      -0.00096989      -0.00167989
In      -1.29982471      -2.00880291       6.66325599       11      -0.00137163       0.00096989       0.00167989
In       4.06029206       2.81420233       1.69043411       12       0.00137163       0.00193977       0.00000000
In       1.46064264       4.82300524       1.78891458       13      -0.00137163       0.00096989      -0.00167989
In       4.14070103       0.00000000      -0.00000000       14      -0.00000000       0.00000000       0.00000000
In       1.38023367       1.95194519       3.38086823       15      -0.00000000      -0.00000000      -0.00000000
O        0.77697296       3.89840131       3.55924871       16       0.00047632       0.00431026       0.00438256
O       -1.98349440       3.08514433       4.98686578       17       0.00047632       0.00164028      -0.00592407
O       -0.51810532       2.04895778       0.01985707       18       0.00576899      -0.00210220       0.00055810
O       -0.77697296      -0.82423510       1.78437802       19      -0.00047632       0.00595054      -0.00154151
O        3.56986677       4.73958995       1.76452095       20       0.00138769      -0.00562832      -0.00209961
O        1.95106794       2.79362019       1.60599754       21      -0.00138769      -0.00099584      -0.00592407
O        1.95106794       5.84986013       0.15852340       22      -0.00138769      -0.00463248       0.00382446
O       -2.10447769       5.66132401       3.40072530       23       0.00390498      -0.00473832       0.00055810
O        3.27857267       1.85493259       6.74187939       24      -0.00576899       0.00210220      -0.00055810
O        4.86494504      -1.75743363       3.36101116       25      -0.00390498       0.00473832      -0.00055810
O        6.03904002       2.99362080       1.61634728       26      -0.00576899      -0.00056778       0.00209961
O        3.41645701       2.06639769       3.53939164       27       0.00390498       0.00285249       0.00382446
O        0.65598966       3.98394942       6.58335599       28       0.00390498       0.00188584      -0.00438256
O        2.10447769      -0.08005905       0.17838047       29      -0.00390498      -0.00188584       0.00438256
O       -3.27857267       0.91026957       5.14538918       30       0.00576899       0.00056778      -0.00209961
O        4.74396175       0.81874604       1.77487068       31      -0.00047632      -0.00164028       0.00592407
O        0.80939941       1.11027018       5.15573892       32       0.00138769       0.00099584       0.00592407
O        3.27857267      -0.94466302       5.16524625       33      -0.00576899      -0.00153443      -0.00154151
O        1.98349439       0.00548906       3.20248775       34      -0.00047632      -0.00431026      -0.00438256
O        0.80939941      -1.94596976       6.60321306       35       0.00138769       0.00463248      -0.00382446
O       -0.65598966       1.83749269       3.22234482       36      -0.00390498      -0.00285249      -0.00382446
O       -0.80939942      -0.83569958       4.99721551       37      -0.00138769       0.00562832       0.00209961
O       -0.51810532       4.84855339       1.59649021       38       0.00576899       0.00153443       0.00154151
O        3.53744031       4.72812547       4.97735844       39       0.00047632      -0.00595054       0.00154151
