40
Lattice="9.479838883573844 7.430040689818139e-10 1.7340887002330319e-15 -3.1599462952251276 8.937677811926966 -1.2869371811866036e-09 -3.15994629417436 -4.4688389052204665 7.740256036827223" Properties=species:S:1:pos:R:3:spacegroup_kinds:I:1:forces:R:3 spacegroup="P 1" unit_cell=conventional occupancy="_JSON {\"0\": {\"In\": 1}, \"1\": {\"In\": 1}, \"2\": {\"In\": 1}, \"3\": {\"In\": 1}, \"4\": {\"In\": 1}, \"5\": {\"In\": 1}, \"6\": {\"In\": 1}, \"7\": {\"In\": 1}, \"8\": {\"In\": 1}, \"9\": {\"In\": 1}, \"10\": {\"In\": 1}, \"11\": {\"In\": 1}, \"12\": {\"In\": 1}, \"13\": {\"In\": 1}, \"14\": {\"In\": 1}, \"15\": {\"In\": 1}, \"16\": {\"O\": 1}, \"17\": {\"O\": 1}, \"18\": {\"O\": 1}, \"19\": {\"O\": 1}, \"20\": {\"O\": 1}, \"21\": {\"O\": 1}, \"22\": {\"O\": 1}, \"23\": {\"O\": 1}, \"24\": {\"O\": 1}, \"25\": {\"O\": 1}, \"26\": {\"O\": 1}, \"27\": {\"O\": 1}, \"28\": {\"O\": 1}, \"29\": {\"O\": 1}, \"30\": {\"O\": 1}, \"31\": {\"O\": 1}, \"32\": {\"O\": 1}, \"33\": {\"O\": 1}, \"34\": {\"O\": 1}, \"35\": {\"O\": 1}, \"36\": {\"O\": 1}, \"37\": {\"O\": 1}, \"38\": {\"O\": 1}, \"39\": {\"O\": 1}}" n_minim_iter=1 energy=-45151.47861716999 stress="-0.052783986211565874 7.478766845757914e-13 -1.144766579394785e-12 7.478766845757914e-13 -0.052783986211268966 -5.378006380600712e-13 -1.144766579394785e-12 -5.378006380600712e-13 -0.052783986209702094" free_energy=-45151.47861716999 pbc="T T T"
In      -4.71471709       3.33380843       5.83605848        0      -0.09439554       0.06674773      -0.11561046
In       7.87466338       1.13503048       1.90419755        1       0.09439554      -0.06674773       0.11561046
In       1.55477079      -1.09938897       5.77432557        2       0.09439554      -0.06674773       0.11561046
In      -1.57997315      -2.23441945       3.87012802        3      -0.00000000      -0.00000000       0.00000000
In      -1.55477080       4.45101815       3.83926156        4      -0.09439554       0.06674773       0.11561046
In       4.76512179      -3.31598767       5.80519203        5      -0.09439554      -0.13349545       0.00000000
In      -1.55477080       1.15285124       5.80519202        6      -0.09439554      -0.13349546      -0.00000000
In      -1.60517550       7.78482658       1.93506401        7       0.09439554       0.13349545      -0.00000000
In       4.71471709       0.01782076       3.90099447        8       0.09439554      -0.06674773      -0.11561046
In      -1.57997315       4.46883891      -0.00000000        9      -0.00000000       0.00000000       0.00000000
In       4.71471709       6.72107912       0.03086645       10       0.09439554      -0.06674773      -0.11561046
In      -1.55477079      -2.25224021       7.70938958       11      -0.09439554       0.06674773       0.11561046
In       4.71471709       3.31598767       1.93506401       12       0.09439554       0.13349546       0.00000000
In       1.60517550       5.56822788       1.96593046       13      -0.09439554       0.06674773      -0.11561046
In       4.73991944       0.00000000      -0.00000000       14       0.00000000       0.00000000       0.00000000
In       1.57997315       2.23441946       3.87012802       15      -0.00000000       0.00000000       0.00000000
O        0.67845488       4.46205266       4.22668460       16      -0.00106738       0.14328048      -0.03737269
O       -2.48149141       3.66380936       5.63279080       17      -0.00106738      -0.10400594      -0.10539819
O       -0.53923564       2.29042714       0.27130255       18       0.03667260      -0.13069214      -0.05917635
O       -0.67845488      -0.81181579       2.11921936       19       0.00106738       0.03927454      -0.14277088
O        4.28143640       5.43729131       1.84791680       20      -0.09770195      -0.07344002      -0.08359454
O        2.03845619       3.35272221       1.76266278       21       0.09770195       0.03567498      -0.10539819
O        2.03845619       6.55340801       0.08525402       22       0.09770195      -0.10911500       0.02180366
O       -2.33918063       6.44817889       4.14143057       23       0.13544193       0.00898878      -0.05917635
O        3.69918194       2.17841177       7.46895348       24      -0.03667260       0.13069214       0.05917635
O        5.49912692      -1.97933998       3.59882546       25      -0.13544193      -0.00898878       0.05917635
O        6.85912823       3.61458793       2.02221121       26      -0.03667260      -0.11659429       0.08359454
O        3.98071196       2.59691410       3.95538204       27       0.13544193      -0.05574261       0.02180366
O        0.82076566       4.36142374       7.38369945       28       0.13544193       0.04675383       0.03737269
O        2.33918063       0.10741517       0.35655658       29      -0.13544193      -0.04675383      -0.03737269
O       -3.69918194       0.85425098       5.71804482       30       0.03667260       0.11659429      -0.08359454
O        5.64143770       0.80502955       2.10746523       31       0.00106738       0.10400594       0.10539819
O        1.12149010       1.11611670       5.97759325       32      -0.09770195      -0.03567498       0.10539819
O        3.69918194      -1.32416079       5.98934738       33      -0.03667260      -0.01409785      -0.14277088
O        2.48149141       0.00678625       3.51357143       34       0.00106738      -0.14328048       0.03737269
O        1.12149010      -2.08456910       7.65500201       35      -0.09770195       0.10911500      -0.02180366
O       -0.82076567       1.87192481       3.78487399       36      -0.13544193       0.05574261      -0.02180366
O       -1.12149010      -0.96845240       5.89233923       37       0.09770195       0.07344002       0.08359454
O       -0.53923564       5.79299970       1.75090865       38       0.03667260       0.01409785       0.14277088
O        3.83840118       5.28065470       5.62103667       39      -0.00106738      -0.03927454       0.14277088
40
Lattice="9.479838883573839 7.430040689818139e-10 1.7340887002330608e-15 -3.1599462952251276 8.93767781192696 -1.286937181186603e-09 -3.15994629417436 -4.468838905220464 7.740256036827221" Properties=species:S:1:pos:R:3:spacegroup_kinds:I:1:forces:R:3 spacegroup="P 1" unit_cell=conventional occupancy="_JSON {\"0\": {\"In\": 1}, \"1\": {\"In\": 1}, \"2\": {\"In\": 1}, \"3\": {\"In\": 1}, \"4\": {\"In\": 1}, \"5\": {\"In\": 1}, \"6\": {\"In\": 1}, \"7\": {\"In\": 1}, \"8\": {\"In\": 1}, \"9\": {\"In\": 1}, \"10\": {\"In\": 1}, \"11\": {\"In\": 1}, \"12\": {\"In\": 1}, \"13\": {\"In\": 1}, \"14\": {\"In\": 1}, \"15\": {\"In\": 1}, \"16\": {\"O\": 1}, \"17\": {\"O\": 1}, \"18\": {\"O\": 1}, \"19\": {\"O\": 1}, \"20\": {\"O\": 1}, \"21\": {\"O\": 1}, \"22\": {\"O\": 1}, \"23\": {\"O\": 1}, \"24\": {\"O\": 1}, \"25\": {\"O\": 1}, \"26\": {\"O\": 1}, \"27\": {\"O\": 1}, \"28\": {\"O\": 1}, \"29\": {\"O\": 1}, \"30\": {\"O\": 1}, \"31\": {\"O\": 1}, \"32\": {\"O\": 1}, \"33\": {\"O\": 1}, \"34\": {\"O\": 1}, \"35\": {\"O\": 1}, \"36\": {\"O\": 1}, \"37\": {\"O\": 1}, \"38\": {\"O\": 1}, \"39\": {\"O\": 1}}" n_minim_iter=2 energy=-45151.53790935094 stress="-0.06167358571332502 2.210761201302661e-13 -6.832871837229587e-13 2.210761201302661e-13 -0.06167358571411161 -1.07554507210586e-14 -6.832871837229587e-13 -1.07554507210586e-14 -0.061673585714840745" free_energy=-45151.53790935094 pbc="T T T"
In      -4.72799668       3.34319852       5.81979437        0      -0.00815757       0.00576827      -0.00999094
In       7.88794297       1.12564040       1.92046166        1       0.00815757      -0.00576827       0.00999094
In       1.56805038      -1.10877906       5.79058968        2       0.00815757      -0.00576827       0.00999094
In      -1.57997315      -2.23441945       3.87012802        3       0.00000000       0.00000000       0.00000000
In      -1.56805039       4.46040824       3.85552567        4      -0.00815757       0.00576827       0.00999094
In       4.75184220      -3.33476784       5.80519203        5      -0.00815757      -0.01153655       0.00000000
In      -1.56805039       1.13407106       5.80519202        6      -0.00815757      -0.01153655       0.00000000
In      -1.59189591       7.80360675       1.93506401        7       0.00815757       0.01153655       0.00000000
In       4.72799668       0.00843067       3.88473036        8       0.00815757      -0.00576827      -0.00999094
In      -1.57997315       4.46883891      -0.00000000        9      -0.00000000       0.00000000      -0.00000000
In       4.72799668       6.71168903       0.01460234       10       0.00815757      -0.00576827      -0.00999094
In      -1.56805039      -2.24285012       7.72565369       11      -0.00815757       0.00576827       0.00999094
In       4.72799668       3.33476785       1.93506401       12       0.00815757       0.01153655       0.00000000
In       1.59189591       5.57761797       1.94966635       13      -0.00815757       0.00576827      -0.00999094
In       4.73991944       0.00000000      -0.00000000       14      -0.00000000       0.00000000       0.00000000
In       1.57997315       2.23441946       3.87012802       15       0.00000000      -0.00000000       0.00000000
O        0.67830472       4.48220940       4.22142700       16      -0.07977306      -0.02855215      -0.05735766
O       -2.48164157       3.64917778       5.61796335       17      -0.07977306      -0.03539712       0.05340571
O       -0.53407653       2.27204133       0.26297761       18      -0.08688296      -0.03036966       0.04469790
O       -0.67830473      -0.80629064       2.09913431       19       0.07977306      -0.06394926      -0.00395195
O        4.26769166       5.42695974       1.83615670       20      -0.00678170       0.08975561      -0.04864984
O        2.05220093       3.35774097       1.74783533       21       0.00678170       0.08700980       0.05340571
O        2.05220093       6.53805768       0.08832137       22       0.00678170       0.00274580      -0.10205556
O       -2.32012662       6.44944343       4.13310563       23      -0.00032820       0.09203726       0.04469790
O        3.69402282       2.19679758       7.47727842       24       0.08688296       0.03036966      -0.04469790
O        5.48007291      -1.98060452       3.60715040       25       0.00032820      -0.09203726      -0.04469790
O        6.85396912       3.59818541       2.03397131       26       0.08688296       0.02352469       0.04864984
O        3.99976597       2.58907221       3.95844939       27      -0.00032820      -0.00730912      -0.10205556
O        0.83981967       4.36800108       7.38895705       28      -0.00032820      -0.08472815       0.05735766
O        2.32012662       0.10083783       0.35129898       29       0.00032820       0.08472815      -0.05735766
O       -3.69402283       0.87065350       5.70628472       30      -0.08688296      -0.02352469      -0.04864984
O        5.64158786       0.81966113       2.12229268       31       0.07977306       0.03539712      -0.05340571
O        1.10774536       1.11109794       5.99242070       32      -0.00678170      -0.08700980      -0.05340571
O        3.69402282      -1.32614408       5.96926233       33       0.08688296      -0.05389434      -0.00395195
O        2.48164157      -0.01337049       3.51882903       34       0.07977306       0.02855215       0.05735766
O        1.10774536      -2.06921877       7.65193466       35      -0.00678170      -0.00274580       0.10205556
O       -0.83981968       1.87976670       3.78180665       36       0.00032820       0.00730912       0.10205556
O       -1.10774537      -0.95812083       5.90409933       37       0.00678170      -0.08975561       0.04864984
O       -0.53407653       5.79498299       1.77099370       38      -0.08688296       0.05389434       0.00395194
O        3.83825102       5.27512955       5.64112172       39      -0.07977306       0.06394926       0.00395194
40
Lattice="9.479838883573846 7.430040689818147e-10 1.7340887002330445e-15 -3.1599462952251307 8.937677811926966 -1.2869371811866038e-09 -3.1599462941743632 -4.4688389052204665 7.740256036827227" Properties=species:S:1:pos:R:3:spacegroup_kinds:I:1:forces:R:3 spacegroup="P 1" unit_cell=conventional occupancy="_JSON {\"0\": {\"In\": 1}, \"1\": {\"In\": 1}, \"2\": {\"In\": 1}, \"3\": {\"In\": 1}, \"4\": {\"In\": 1}, \"5\": {\"In\": 1}, \"6\": {\"In\": 1}, \"7\": {\"In\": 1}, \"8\": {\"In\": 1}, \"9\": {\"In\": 1}, \"10\": {\"In\": 1}, \"11\": {\"In\": 1}, \"12\": {\"In\": 1}, \"13\": {\"In\": 1}, \"14\": {\"In\": 1}, \"15\": {\"In\": 1}, \"16\": {\"O\": 1}, \"17\": {\"O\": 1}, \"18\": {\"O\": 1}, \"19\": {\"O\": 1}, \"20\": {\"O\": 1}, \"21\": {\"O\": 1}, \"22\": {\"O\": 1}, \"23\": {\"O\": 1}, \"24\": {\"O\": 1}, \"25\": {\"O\": 1}, \"26\": {\"O\": 1}, \"27\": {\"O\": 1}, \"28\": {\"O\": 1}, \"29\": {\"O\": 1}, \"30\": {\"O\": 1}, \"31\": {\"O\": 1}, \"32\": {\"O\": 1}, \"33\": {\"O\": 1}, \"34\": {\"O\": 1}, \"35\": {\"O\": 1}, \"36\": {\"O\": 1}, \"37\": {\"O\": 1}, \"38\": {\"O\": 1}, \"39\": {\"O\": 1}}" n_minim_iter=3 energy=-45151.55954198825 stress="-0.06162829643455007 -1.0911636936651245e-13 -1.0500385223291152e-12 -1.0911636936651245e-13 -0.06162829643551887 1.1446394432058494e-12 -1.0500385223291152e-12 1.1446394432058494e-12 -0.061628296434373606" free_energy=-45151.55954198825 pbc="T T T"
In      -4.73159270       3.34574129       5.81539016        0      -0.05356392       0.03787541      -0.06560213
In       7.89153899       1.12309763       1.92486587        1       0.05356392      -0.03787541       0.06560213
In       1.57164640      -1.11132183       5.79499389        2       0.05356392      -0.03787541       0.06560213
In      -1.57997315      -2.23441945       3.87012802        3       0.00000000       0.00000000       0.00000000
In      -1.57164641       4.46295101       3.85992988        4      -0.05356392       0.03787541       0.06560213
In       4.74824618      -3.33985338       5.80519203        5      -0.05356392      -0.07575082      -0.00000000
In      -1.57164641       1.12898552       5.80519202        6      -0.05356392      -0.07575082       0.00000000
In      -1.58829989       7.80869229       1.93506401        7       0.05356392       0.07575082       0.00000000
In       4.73159270       0.00588790       3.88032615        8       0.05356392      -0.03787541      -0.06560213
In      -1.57997315       4.46883891      -0.00000000        9      -0.00000000       0.00000000       0.00000000
In       4.73159270       6.70914626       0.01019813       10       0.05356392      -0.03787541      -0.06560213
In      -1.57164641      -2.24030735       7.73005790       11      -0.05356392       0.03787541       0.06560213
In       4.73159270       3.33985339       1.93506401       12       0.05356392       0.07575082      -0.00000000
In       1.58829989       5.58016074       1.94526214       13      -0.05356392       0.03787541      -0.06560213
In       4.73991944       0.00000000      -0.00000000       14      -0.00000000      -0.00000000      -0.00000000
In       1.57997315       2.23441946       3.87012802       15      -0.00000000       0.00000000       0.00000000
O        0.66326105       4.47996023       4.20981159       16      -0.01976664       0.02693122       0.06755725
O       -2.49668524       3.64024313       5.62571889       17      -0.01976664       0.04504069      -0.05710175
O       -0.54963530       2.26347091       0.27010229       18       0.06126689      -0.01225867       0.04214365
O       -0.66326105      -0.81747446       2.09527445       19       0.01976664       0.07197191       0.01045551
O        4.26428254       5.44225701       1.82517215       20       0.04905365      -0.04764026      -0.03168814
O        2.05561004       3.37490250       1.75559088       21      -0.04905365       0.00362261      -0.05710175
O        2.05561004       6.53619341       0.06958127       22      -0.04905365      -0.05126287       0.02541360
O       -2.31723260       6.46696919       4.14023031       23       0.03197988      -0.05367675       0.04214365
O        3.70958159       2.20536800       7.47015374       24      -0.06126689       0.01225867      -0.04214365
O        5.47717889      -1.99813028       3.60002572       25      -0.03197988       0.05367675      -0.04214365
O        6.86952789       3.60007036       2.04495586       26      -0.06126689       0.03036814       0.03168814
O        4.00265999       2.58647949       3.93970929       27       0.03197988       0.06333585       0.02541361
O        0.84271369       4.35306805       7.40057246       28       0.03197988      -0.00965910      -0.06755725
O        2.31723260       0.11577086       0.33968357       29      -0.03197988       0.00965910       0.06755725
O       -3.70958160       0.86876855       5.69530017       30       0.06126689      -0.03036814      -0.03168814
O        5.65663154       0.82859579       2.11453714       31       0.01976664      -0.04504069       0.05710175
O        1.10433625       1.09393641       5.98466515       32       0.04905365      -0.00362261       0.05710175
O        3.70958159      -1.33659945       5.96540247       33      -0.06126689      -0.04262681       0.01045551
O        2.49668524      -0.01112132       3.53044444       34       0.01976664      -0.02693122      -0.06755725
O        1.10433625      -2.06735450       7.67067476       35       0.04905365       0.05126287      -0.02541361
O       -0.84271369       1.88235942       3.80054674       36      -0.03197988      -0.06333585      -0.02541361
O       -1.10433625      -0.97341809       5.91508388       37      -0.04905365       0.04764026       0.03168814
O       -0.54963530       5.80543836       1.77485356       38       0.06126689       0.04262681      -0.01045551
O        3.82320734       5.28631337       5.64498158       39      -0.01976664      -0.07197191      -0.01045551
40
Lattice="9.479838883573846 7.430040689818148e-10 1.7340887002330466e-15 -3.159946295225131 8.937677811926967 -1.2869371811866042e-09 -3.1599462941743637 -4.468838905220467 7.740256036827229" Properties=species:S:1:pos:R:3:spacegroup_kinds:I:1:forces:R:3 spacegroup="P 1" unit_cell=conventional occupancy="_JSON {\"0\": {\"In\": 1}, \"1\": {\"In\": 1}, \"2\": {\"In\": 1}, \"3\": {\"In\": 1}, \"4\": {\"In\": 1}, \"5\": {\"In\": 1}, \"6\": {\"In\": 1}, \"7\": {\"In\": 1}, \"8\": {\"In\": 1}, \"9\": {\"In\": 1}, \"10\": {\"In\": 1}, \"11\": {\"In\": 1}, \"12\": {\"In\": 1}, \"13\": {\"In\": 1}, \"14\": {\"In\": 1}, \"15\": {\"In\": 1}, \"16\": {\"O\": 1}, \"17\": {\"O\": 1}, \"18\": {\"O\": 1}, \"19\": {\"O\": 1}, \"20\": {\"O\": 1}, \"21\": {\"O\": 1}, \"22\": {\"O\": 1}, \"23\": {\"O\": 1}, \"24\": {\"O\": 1}, \"25\": {\"O\": 1}, \"26\": {\"O\": 1}, \"27\": {\"O\": 1}, \"28\": {\"O\": 1}, \"29\": {\"O\": 1}, \"30\": {\"O\": 1}, \"31\": {\"O\": 1}, \"32\": {\"O\": 1}, \"33\": {\"O\": 1}, \"34\": {\"O\": 1}, \"35\": {\"O\": 1}, \"36\": {\"O\": 1}, \"37\": {\"O\": 1}, \"38\": {\"O\": 1}, \"39\": {\"O\": 1}}" n_minim_iter=4 energy=-45151.565378575135 stress="-0.06345769953179896 9.16372595031454e-14 -2.3574688299625854e-12 9.16372595031454e-14 -0.06345769952951602 -1.232281477597368e-13 -2.3574688299625854e-12 -1.232281477597368e-13 -0.06345769952970962" free_energy=-45151.565378575135 pbc="T T T"
In      -4.73512929       3.34824203       5.81105874        0      -0.03175241       0.02245235      -0.03888860
In       7.89507558       1.12059688       1.92919729        1       0.03175241      -0.02245235       0.03888860
In       1.57518299      -1.11382257       5.79932531        2       0.03175241      -0.02245235       0.03888860
In      -1.57997315      -2.23441945       3.87012802        3      -0.00000000      -0.00000000      -0.00000000
In      -1.57518299       4.46545176       3.86426130        4      -0.03175241       0.02245235       0.03888860
In       4.74470960      -3.34485487       5.80519203        5      -0.03175241      -0.04490469       0.00000000
In      -1.57518299       1.12398403       5.80519202        6      -0.03175241      -0.04490469       0.00000000
In      -1.58476331       7.81369378       1.93506401        7       0.03175241       0.04490469       0.00000000
In       4.73512928       0.00338715       3.87599473        8       0.03175241      -0.02245235      -0.03888860
In      -1.57997315       4.46883891      -0.00000000        9       0.00000000       0.00000000       0.00000000
In       4.73512928       6.70664551       0.00586672       10       0.03175241      -0.02245235      -0.03888860
In      -1.57518299      -2.23780660       7.73438932       11      -0.03175241       0.02245235       0.03888860
In       4.73512928       3.34485488       1.93506401       12       0.03175241       0.04490469       0.00000000
In       1.58476330       5.58266148       1.94093072       13      -0.03175241       0.02245235      -0.03888860
In       4.73991944       0.00000000      -0.00000000       14      -0.00000000       0.00000000      -0.00000000
In       1.57997315       2.23441946       3.87012802       15      -0.00000000      -0.00000000       0.00000000
O        0.66188409       4.48407912       4.20878858       16      -0.03316610      -0.00465546       0.06109863
O       -2.49806221       3.63729773       5.62266333       17      -0.03316610       0.05524069      -0.02651757
O       -0.54898791       2.25909407       0.26952605       18       0.03663685       0.00588256       0.05897323
O       -0.66188409      -0.81630097       2.09119588       19       0.03316610       0.05058523       0.03458106
O        4.26196459       5.44075082       1.82166983       20       0.06313679      -0.01653702      -0.02439217
O        2.05792800       3.37718251       1.75253531       21      -0.06313679       0.01285573      -0.02651757
O        2.05792800       6.53240721       0.06913451       22      -0.06313679      -0.02939275       0.00212540
O       -2.31289029       6.46781776       4.13965407       23       0.00666616      -0.03650241       0.05897323
O        3.70893420       2.20974484       7.47072998       24      -0.03663685      -0.00588256      -0.05897323
O        5.47283658      -1.99897885       3.60060196       25      -0.00666616       0.03650241      -0.05897323
O        6.86888049       3.59738290       2.04845819       26      -0.03663685       0.05401359       0.02439217
O        4.00700230       2.58555616       3.93926253       27       0.00666616       0.06932352       0.00212540
O        0.84705601       4.35314280       7.40159547       28       0.00666616      -0.03282111      -0.06109863
O        2.31289028       0.11569611       0.33866056       29      -0.00666616       0.03282111       0.06109863
O       -3.70893420       0.87145601       5.69179784       30       0.03663685      -0.05401359      -0.02439217
O        5.65800850       0.83154118       2.11759270       31       0.03316609      -0.05524069       0.02651757
O        1.10201829       1.09165640       5.98772072       32       0.06313679      -0.01285573       0.02651757
O        3.70893420      -1.33828882       5.96132390       33      -0.03663685      -0.04813104       0.03458106
O        2.49806220      -0.01524021       3.53146745       34       0.03316610       0.00465546      -0.06109863
O        1.10201829      -2.06356830       7.67112152       35       0.06313679       0.02939275      -0.00212540
O       -0.84705601       1.88328275       3.80099350       36      -0.00666616      -0.06932352      -0.00212540
O       -1.10201829      -0.97191191       5.91858620       37      -0.06313679       0.01653702       0.02439217
O       -0.54898791       5.80712774       1.77893213       38       0.03663685       0.04813104      -0.03458106
O        3.82183038       5.28513988       5.64906015       39      -0.03316609      -0.05058523      -0.03458106
40
Lattice="9.479838883573853 7.430040689818154e-10 1.7340887002330352e-15 -3.159946295225134 8.937677811926978 -1.2869371811866056e-09 -3.1599462941743663 -4.468838905220473 7.740256036827236" Properties=species:S:1:pos:R:3:spacegroup_kinds:I:1:forces:R:3 spacegroup="P 1" unit_cell=conventional occupancy="_JSON {\"0\": {\"In\": 1}, \"1\": {\"In\": 1}, \"2\": {\"In\": 1}, \"3\": {\"In\": 1}, \"4\": {\"In\": 1}, \"5\": {\"In\": 1}, \"6\": {\"In\": 1}, \"7\": {\"In\": 1}, \"8\": {\"In\": 1}, \"9\": {\"In\": 1}, \"10\": {\"In\": 1}, \"11\": {\"In\": 1}, \"12\": {\"In\": 1}, \"13\": {\"In\": 1}, \"14\": {\"In\": 1}, \"15\": {\"In\": 1}, \"16\": {\"O\": 1}, \"17\": {\"O\": 1}, \"18\": {\"O\": 1}, \"19\": {\"O\": 1}, \"20\": {\"O\": 1}, \"21\": {\"O\": 1}, \"22\": {\"O\": 1}, \"23\": {\"O\": 1}, \"24\": {\"O\": 1}, \"25\": {\"O\": 1}, \"26\": {\"O\": 1}, \"27\": {\"O\": 1}, \"28\": {\"O\": 1}, \"29\": {\"O\": 1}, \"30\": {\"O\": 1}, \"31\": {\"O\": 1}, \"32\": {\"O\": 1}, \"33\": {\"O\": 1}, \"34\": {\"O\": 1}, \"35\": {\"O\": 1}, \"36\": {\"O\": 1}, \"37\": {\"O\": 1}, \"38\": {\"O\": 1}, \"39\": {\"O\": 1}}" n_minim_iter=5 energy=-45151.57001548858 stress="-0.06589707580903854 -3.221282291824782e-13 -5.08558722093154e-13 -3.221282291824782e-13 -0.06589707581095539 6.22598275319148e-13 -5.08558722093154e-13 6.22598275319148e-13 -0.06589707581004103" free_energy=-45151.57001548858 pbc="T T T"
In      -4.74099537       3.35238998       5.80387429        0       0.00531607      -0.00375903       0.00651084
In       7.90094166       1.11644893       1.93638174        1      -0.00531607       0.00375903      -0.00651084
In       1.58104907      -1.11797052       5.80650976        2      -0.00531607       0.00375903      -0.00651084
In      -1.57997315      -2.23441945       3.87012802        3       0.00000000       0.00000000       0.00000000
In      -1.58104907       4.46959970       3.87144575        4       0.00531607      -0.00375903      -0.00651084
In       4.73884352      -3.35315077       5.80519203        5       0.00531607       0.00751807       0.00000000
In      -1.58104907       1.11568814       5.80519202        6       0.00531607       0.00751807       0.00000000
In      -1.57889722       7.82198968       1.93506401        7      -0.00531607      -0.00751807      -0.00000000
In       4.74099537      -0.00076079       3.86881028        8      -0.00531607       0.00375903       0.00651084
In      -1.57997315       4.46883891      -0.00000000        9      -0.00000000       0.00000000       0.00000000
In       4.74099536       6.70249757      -0.00131774       10      -0.00531607       0.00375903       0.00651084
In      -1.58104907      -2.23365866       7.74157377       11       0.00531607      -0.00375903      -0.00651084
In       4.74099537       3.35315077       1.93506401       12      -0.00531607      -0.00751807      -0.00000000
In       1.57889722       5.58680943       1.93374627       13       0.00531607      -0.00375903       0.00651084
In       4.73991944       0.00000000      -0.00000000       14       0.00000000      -0.00000000      -0.00000000
In       1.57997315       2.23441946       3.87012802       15       0.00000000       0.00000000      -0.00000000
O        0.65683500       4.48847065       4.20815554       16      -0.03913376      -0.03018807       0.03537539
O       -2.50311129       3.63455373       5.61917668       17      -0.03913376       0.04573002       0.00845594
O       -0.54911763       2.25287156       0.27206437       18       0.00160850       0.01692089       0.05835482
O       -0.65683500      -0.81465343       2.08707618       19       0.03913376       0.01554195       0.04383133
O        4.26106055       5.44056878       1.81501181       20       0.05615927       0.01814922      -0.01452349
O        2.05883204       3.38285750       1.74904866       21      -0.05615927       0.02165233       0.00845594
O        2.05883204       6.52655019       0.06596315       22      -0.05615927      -0.00350310      -0.02297943
O       -2.30706688       6.47001424       4.14219238       23      -0.01541700      -0.00715681       0.05835482
O        3.70906392       2.21596735       7.46819167       24      -0.00160850      -0.01692089      -0.05835482
O        5.46701318      -2.00117533       3.59806365       25       0.01541700       0.00715681      -0.05835482
O        6.86901021       3.59646989       2.05511620       26      -0.00160850       0.05899720       0.01452349
O        4.01282570       2.58665617       3.93609117       27      -0.01541700       0.05411516      -0.02297943
O        0.85287941       4.34984632       7.40222851       28      -0.01541700      -0.04695836      -0.03537539
O        2.30706688       0.11899259       0.33802752       29       0.01541700       0.04695836       0.03537539
O       -3.70906392       0.87236902       5.68513983       30       0.00160850      -0.05899720      -0.01452349
O        5.66305758       0.83428518       2.12107935       31       0.03913376      -0.04573002      -0.00845594
O        1.10111425       1.08598141       5.99120737       32       0.05615927      -0.02165233      -0.00845594
O        3.70906392      -1.34359833       5.95720420       33      -0.00160850      -0.04207632       0.04383133
O        2.50311129      -0.01963174       3.53210049       34       0.03913376       0.03018807      -0.03537539
O        1.10111425      -2.05771127       7.67429288       35       0.05615927       0.00350310       0.02297943
O       -0.85287941       1.88218274       3.80416486       36       0.01541700      -0.05411516       0.02297943
O       -1.10111426      -0.97172987       5.92524422       37      -0.05615927      -0.01814922       0.01452349
O       -0.54911763       5.81243724       1.78305183       38       0.00160850       0.04207632      -0.04383133
O        3.81678130       5.28349235       5.65317985       39      -0.03913376      -0.01554195      -0.04383133
40