40
Lattice="9.208836648981784 7.217648694358525e-10 2.520969517366979e-15 -3.069612217007747 8.682174454871706 -1.25013514692729e-09 -3.069612215987021 -4.341087226714087 7.518983638840631" Properties=species:S:1:pos:R:3:spacegroup_kinds:I:1:forces:R:3 spacegroup="P 1" unit_cell=conventional occupancy="_JSON {\"0\": {\"In\": 1}, \"1\": {\"In\": 1}, \"2\": {\"In\": 1}, \"3\": {\"In\": 1}, \"4\": {\"In\": 1}, \"5\": {\"In\": 1}, \"6\": {\"In\": 1}, \"7\": {\"In\": 1}, \"8\": {\"In\": 1}, \"9\": {\"In\": 1}, \"10\": {\"In\": 1}, \"11\": {\"In\": 1}, \"12\": {\"In\": 1}, \"13\": {\"In\": 1}, \"14\": {\"In\": 1}, \"15\": {\"In\": 1}, \"16\": {\"O\": 1}, \"17\": {\"O\": 1}, \"18\": {\"O\": 1}, \"19\": {\"O\": 1}, \"20\": {\"O\": 1}, \"21\": {\"O\": 1}, \"22\": {\"O\": 1}, \"23\": {\"O\": 1}, \"24\": {\"O\": 1}, \"25\": {\"O\": 1}, \"26\": {\"O\": 1}, \"27\": {\"O\": 1}, \"28\": {\"O\": 1}, \"29\": {\"O\": 1}, \"30\": {\"O\": 1}, \"31\": {\"O\": 1}, \"32\": {\"O\": 1}, \"33\": {\"O\": 1}, \"34\": {\"O\": 1}, \"35\": {\"O\": 1}, \"36\": {\"O\": 1}, \"37\": {\"O\": 1}, \"38\": {\"O\": 1}, \"39\": {\"O\": 1}}" n_minim_iter=1 energy=-45150.1536873123 stress="0.021706885899556154 -9.684229910708748e-13 7.90140041065759e-13 -9.684229910708748e-13 0.021706885897958335 7.343660675204327e-13 7.90140041065759e-13 7.343660675204327e-13 0.02170688590004714" free_energy=-45150.1536873123 pbc="T T T"
In      -4.40713450       3.11631469       5.88086008        0       0.03607115      -0.02550616       0.04417796
In       7.47674672       1.22477254       1.63812356        1      -0.03607116       0.02550616      -0.04417796
In       1.33752228      -0.94577108       5.39761538        2      -0.03607116       0.02550616      -0.04417796
In      -1.53480611      -2.17054361       3.75949182        3      -0.00000000       0.00000000       0.00000000
In      -1.33752229       4.20158650       3.51786947        4       0.03607116      -0.02550616      -0.04417796
In       4.80170215      -2.97681396       5.63923773        5       0.03607116       0.05101232       0.00000000
In      -1.33752229       1.36427327       5.63923773        6       0.03607116       0.05101232       0.00000000
In      -1.73208993       7.31790119       1.87974591        7      -0.03607116      -0.05101232       0.00000000
In       4.40713450       0.13950073       4.00111417        8      -0.03607116       0.02550616       0.04417796
In      -1.53480611       4.34108723      -0.00000000        9       0.00000000      -0.00000000       0.00000000
In       4.40713450       6.65113157       0.24162235       10      -0.03607116       0.02550616       0.04417796
In      -1.33752229      -2.31004434       7.27736129       11       0.03607116      -0.02550616      -0.04417796
In       4.40713450       2.97681397       1.87974591       12      -0.03607116      -0.05101232       0.00000000
In       1.73208993       5.28685831       2.12136826       13       0.03607116      -0.02550616       0.04417796
In       4.60441832       0.00000000      -0.00000000       14       0.00000000       0.00000000      -0.00000000
In       1.53480611       2.17054362       3.75949182       15      -0.00000000      -0.00000000       0.00000000
O        0.88839374       4.34134741       4.09830108       16      -0.02824583       0.00699767       0.04052082
O       -2.18121848       3.54910276       5.46960777       17      -0.02824583       0.03159322      -0.02632057
O       -0.45031357       2.32516816       0.07054104       18       0.02696856      -0.00744925       0.04130298
O       -0.88839374      -0.79172428       2.04892522       19       0.02824583       0.03859089       0.01420025
O        4.07319900       5.17353841       1.97838417       20       0.03920165      -0.01474461      -0.02710273
O        2.06602543       3.04398187       1.71011595       21      -0.03920165       0.01609935      -0.02632057
O        2.06602543       6.47064377       0.26826822       22      -0.03920165      -0.03084396      -0.00078216
O       -2.34229409       6.16113449       3.83003286       23       0.01601275      -0.02294312       0.04130298
O        3.51992578       2.01591907       7.44844259       24      -0.02696856       0.00744925      -0.04130298
O        5.41190630      -1.82004726       3.68895077       25      -0.01601275       0.02294312      -0.04130298
O        6.58953800       3.39421803       1.78110764       26      -0.02696856       0.03204480       0.02710273
O        3.79693034       2.40688213       4.02776004       27       0.01601275       0.04724099      -0.00078216
O        0.72731813       4.45524507       7.18017437       28       0.01601275      -0.02429787      -0.04052082
O        2.34229409      -0.11415784       0.33880926       29      -0.01601275       0.02429787       0.04052082
O       -3.51992579       0.94686920       5.73787599       30       0.02696856      -0.03204480      -0.02710273
O        5.25083069       0.79198447       2.04937586       31       0.02824583      -0.03159322       0.02632057
O        1.00358678       1.29710537       5.80886768       32       0.03920165      -0.01609935       0.02632057
O        3.51992578      -1.06904987       5.80841704       33      -0.02696856      -0.03949406       0.01420025
O        2.18121848      -0.00026018       3.42068255       34       0.02824583      -0.00699767      -0.04052082
O        1.00358678      -2.12955654       7.25071542       35       0.03920165       0.03084396       0.00078216
O       -0.72731813       1.93420510       3.49122360       36      -0.01601275      -0.04724099       0.00078216
O       -1.00358679      -0.83245117       5.54059946       37      -0.03920165       0.01474461       0.02710273
O       -0.45031357       5.41013710       1.71056660       38       0.02696856       0.03949406      -0.01420025
O        3.95800595       5.13281151       5.47005842       39      -0.02824583      -0.03859089      -0.01420025
40
Lattice="9.208836648981782 7.217648694358524e-10 2.520969517366963e-15 -3.0696122170077467 8.682174454871705 -1.2501351469272899e-09 -3.0696122159870205 -4.3410872267140865 7.51898363884063" Properties=species:S:1:pos:R:3:spacegroup_kinds:I:1:forces:R:3 spacegroup="P 1" unit_cell=conventional occupancy="_JSON {\"0\": {\"In\": 1}, \"1\": {\"In\": 1}, \"2\": {\"In\": 1}, \"3\": {\"In\": 1}, \"4\": {\"In\": 1}, \"5\": {\"In\": 1}, \"6\": {\"In\": 1}, \"7\": {\"In\": 1}, \"8\": {\"In\": 1}, \"9\": {\"In\": 1}, \"10\": {\"In\": 1}, \"11\": {\"In\": 1}, \"12\": {\"In\": 1}, \"13\": {\"In\": 1}, \"14\": {\"In\": 1}, \"15\": {\"In\": 1}, \"16\": {\"O\": 1}, \"17\": {\"O\": 1}, \"18\": {\"O\": 1}, \"19\": {\"O\": 1}, \"20\": {\"O\": 1}, \"21\": {\"O\": 1}, \"22\": {\"O\": 1}, \"23\": {\"O\": 1}, \"24\": {\"O\": 1}, \"25\": {\"O\": 1}, \"26\": {\"O\": 1}, \"27\": {\"O\": 1}, \"28\": {\"O\": 1}, \"29\": {\"O\": 1}, \"30\": {\"O\": 1}, \"31\": {\"O\": 1}, \"32\": {\"O\": 1}, \"33\": {\"O\": 1}, \"34\": {\"O\": 1}, \"35\": {\"O\": 1}, \"36\": {\"O\": 1}, \"37\": {\"O\": 1}, \"38\": {\"O\": 1}, \"39\": {\"O\": 1}}" n_minim_iter=2 energy=-45150.1651459293 stress="0.02012695300510886 1.3764992237938047e-12 -5.36036521480349e-13 1.3764992237938047e-12 0.020126953004025505 -1.1072460137321457e-13 -5.36036521480349e-13 -1.1072460137321457e-13 0.020126953006920363" free_energy=-45150.1651459293 pbc="T T T"
In      -4.40114695       3.11208085       5.88819330        0       0.00553527      -0.00391402       0.00677929
In       7.47075916       1.22900638       1.63079033        1      -0.00553527       0.00391402      -0.00677929
In       1.33153473      -0.94153723       5.39028215        2      -0.00553527       0.00391402      -0.00677929
In      -1.53480611      -2.17054361       3.75949182        3      -0.00000000      -0.00000000       0.00000000
In      -1.33153473       4.19735266       3.51053624        4       0.00553527      -0.00391402      -0.00677929
In       4.80768970      -2.96834628       5.63923773        5       0.00553527       0.00782805       0.00000000
In      -1.33153473       1.37274095       5.63923773        6       0.00553527       0.00782805      -0.00000000
In      -1.73807749       7.30943351       1.87974591        7      -0.00553527      -0.00782805       0.00000000
In       4.40114694       0.14373457       4.00844739        8      -0.00553527       0.00391402       0.00677929
In      -1.53480611       4.34108723      -0.00000000        9      -0.00000000      -0.00000000      -0.00000000
In       4.40114694       6.65536541       0.24895557       10      -0.00553527       0.00391402       0.00677929
In      -1.33153473      -2.31427818       7.27002806       11       0.00553527      -0.00391402      -0.00677929
In       4.40114694       2.96834628       1.87974591       12      -0.00553527      -0.00782805       0.00000000
In       1.73807748       5.28262447       2.12870148       13       0.00553527      -0.00391402       0.00677929
In       4.60441832       0.00000000      -0.00000000       14       0.00000000      -0.00000000       0.00000000
In       1.53480611       2.17054362       3.75949182       15      -0.00000000      -0.00000000      -0.00000000
O        0.88370513       4.34250898       4.10502725       16       0.00320376       0.00536230      -0.00049432
O       -2.18590709       3.55434701       5.46523874       17       0.00320376      -0.00310925      -0.00439672
O       -0.44583698       2.32393164       0.07739704       18       0.00319212      -0.00310101      -0.00441099
O       -0.88370513      -0.78531847       2.05128236       19      -0.00320376       0.00225305      -0.00489105
O        4.07970619       5.17109091       1.97388531       20      -0.00399935      -0.00479973      -0.00048006
O        2.05951824       3.04665424       1.70574692       21       0.00399935      -0.00198412      -0.00439672
O        2.05951824       6.46552389       0.26813838       22       0.00399935      -0.00281561       0.00391666
O       -2.33963609       6.15732610       3.83688886       23       0.00398770      -0.00197589      -0.00441099
O        3.51544919       2.01715559       7.44158659       24      -0.00319212       0.00310101       0.00441099
O        5.40924830      -1.81623886       3.68209477       25      -0.00398770       0.00197589       0.00441099
O        6.58506141       3.39953724       1.78560651       26      -0.00319212      -0.00537053       0.00048006
O        3.79958835       2.41472380       4.02763020       27       0.00398770      -0.00283208       0.00391666
O        0.72997613       4.45121179       7.17344820       28       0.00398770       0.00480797       0.00049432
O        2.33963608      -0.11012456       0.34553543       29      -0.00398770      -0.00480797      -0.00049432
O       -3.51544919       0.94154999       5.73337713       30       0.00319212       0.00537053      -0.00048006
O        5.25551930       0.78674022       2.05374489       31      -0.00320376       0.00310925       0.00439672
O        1.01009398       1.29443299       5.81323671       32      -0.00399935       0.00198412       0.00439672
O        3.51544919      -1.07560560       5.81077418       33      -0.00319212       0.00226952      -0.00489105
O        2.18590709      -0.00142174       3.41395638       34      -0.00320376      -0.00536230       0.00049432
O        1.01009398      -2.12443666       7.25084525       35      -0.00399935       0.00281561      -0.00391666
O       -0.72997613       1.92636343       3.49135343       36      -0.00398770       0.00283208      -0.00391666
O       -1.01009398      -0.83000367       5.54509832       37       0.00399935       0.00479973       0.00048006
O       -0.44583698       5.41669283       1.70820946       38       0.00319212      -0.00226952       0.00489105
O        3.95331734       5.12640570       5.46770128       39       0.00320376      -0.00225305       0.00489105
