40
Lattice="8.5325051403836 6.687544899682264e-10 3.664652971603977e-15 -2.8441683807583757 8.044522993476175 -1.1583311367197338e-09 -2.8441683798126154 -4.02226149606932 6.96676127445062" Properties=species:S:1:pos:R:3:spacegroup_kinds:I:1:forces:R:3 spacegroup="P 1" unit_cell=conventional occupancy="_JSON {\"0\": {\"In\": 1}, \"1\": {\"In\": 1}, \"2\": {\"In\": 1}, \"3\": {\"In\": 1}, \"4\": {\"In\": 1}, \"5\": {\"In\": 1}, \"6\": {\"In\": 1}, \"7\": {\"In\": 1}, \"8\": {\"In\": 1}, \"9\": {\"In\": 1}, \"10\": {\"In\": 1}, \"11\": {\"In\": 1}, \"12\": {\"In\": 1}, \"13\": {\"In\": 1}, \"14\": {\"In\": 1}, \"15\": {\"In\": 1}, \"16\": {\"O\": 1}, \"17\": {\"O\": 1}, \"18\": {\"O\": 1}, \"19\": {\"O\": 1}, \"20\": {\"O\": 1}, \"21\": {\"O\": 1}, \"22\": {\"O\": 1}, \"23\": {\"O\": 1}, \"24\": {\"O\": 1}, \"25\": {\"O\": 1}, \"26\": {\"O\": 1}, \"27\": {\"O\": 1}, \"28\": {\"O\": 1}, \"29\": {\"O\": 1}, \"30\": {\"O\": 1}, \"31\": {\"O\": 1}, \"32\": {\"O\": 1}, \"33\": {\"O\": 1}, \"34\": {\"O\": 1}, \"35\": {\"O\": 1}, \"36\": {\"O\": 1}, \"37\": {\"O\": 1}, \"38\": {\"O\": 1}, \"39\": {\"O\": 1}}" n_minim_iter=4 energy=-45148.363670852275 stress="-0.06439715939095597 1.3347303773253484e-12 5.68118921360916e-13 1.3347303773253484e-12 -0.06439715939341739 -7.217821281114149e-13 5.68118921360916e-13 -7.217821281114149e-13 -0.0643971593906977" free_energy=-45148.363670852275 pbc="T T T"
In      -4.09495304       2.89556907       5.43486917        0       0.00261720      -0.00185064       0.00320540
In       6.93912142       1.12669243       1.53189210        1      -0.00261720       0.00185064      -0.00320540
In       1.25078466      -0.88443831       5.01527273        2      -0.00261720       0.00185064      -0.00320540
In      -1.42208419      -2.01113075       3.48338063        3      -0.00000000       0.00000000       0.00000000
In      -1.25078466       3.90113444       3.27358242        4       0.00261720      -0.00185064      -0.00320540
In       4.43755210      -2.77444200       5.22507095        5       0.00261720       0.00370128       0.00000000
In      -1.25078466       1.24781949       5.22507095        6       0.00261720       0.00370128       0.00000000
In      -1.59338372       6.79670350       1.74169032        7      -0.00261720      -0.00370128       0.00000000
In       4.09495304       0.12112706       3.69317885        8      -0.00261720       0.00185064       0.00320540
In      -1.42208419       4.02226150      -0.00000000        9      -0.00000000      -0.00000000       0.00000000
In       4.09495304       6.15451931       0.20979822       10      -0.00261720       0.00185064       0.00320540
In      -1.25078466      -2.13225780       6.75696305       11       0.00261720      -0.00185064      -0.00320540
In       4.09495304       2.77444201       1.74169032       12      -0.00261720      -0.00370128       0.00000000
In       1.59338372       4.90669981       1.95148853       13       0.00261720      -0.00185064       0.00320540
In       4.26625257       0.00000000      -0.00000000       14      -0.00000000      -0.00000000       0.00000000
In       1.42208419       2.01113075       3.48338063       15       0.00000000      -0.00000000      -0.00000000
O        0.87566482       4.03674069       3.75303447       16      -0.00565177       0.00054165       0.00278416
O       -1.96850356       3.24298360       5.07770469       17      -0.00565177       0.00214032      -0.00186116
O       -0.42917086       2.15451101      -0.00376676       18       0.00064467      -0.00231193       0.00585037
O       -0.87566482      -0.76479870       1.86397789       19       0.00565177       0.00268198       0.00092299
O        3.71368211       4.78488547       1.86774464       20       0.00390184       0.00069573      -0.00492737
O        1.97465464       2.78605917       1.59432405       21      -0.00390184       0.00461510      -0.00186116
O        1.97465464       6.02108779       0.27342059       22      -0.00390184      -0.00391936      -0.00306621
O       -2.17434942       5.71984808       3.47961388       23       0.00239460       0.00016284       0.00585037
O        3.27333924       1.86775049       6.97052802       24      -0.00064467       0.00231193      -0.00585037
O        5.01851779      -1.69758658       3.48714739       25      -0.00239460      -0.00016284      -0.00585037
O        6.11750762       3.08512415       1.61563599       26      -0.00064467       0.00391060       0.00492737
O        3.51398734       2.16464073       3.75680123       27       0.00239460       0.00498514      -0.00306621
O        0.66981896       4.18229569       6.69710743       28       0.00239460      -0.00514799      -0.00278416
O        2.17434941      -0.16003419       0.26965384       29      -0.00239460       0.00514799       0.00278416
O       -3.27333924       0.93713735       5.35112528       30       0.00064467      -0.00391060      -0.00492737
O        4.81267194       0.77927790       1.88905658       31       0.00565177      -0.00214032       0.00186116
O        0.86951373       1.23620233       5.37243722       32       0.00390184      -0.00461510       0.00186116
O        3.27333924      -0.93061314       5.34735853       33      -0.00064467      -0.00622253       0.00092299
O        1.96850356      -0.01447919       3.21372680       34       0.00565177      -0.00054165      -0.00278416
O        0.86951373      -1.99882629       6.69334068       35       0.00390184       0.00391936       0.00306621
O       -0.66981897       1.85762077       3.20996004       36      -0.00239460      -0.00498514       0.00306621
O       -0.86951374      -0.76262397       5.09901663       37      -0.00390184      -0.00069573       0.00492737
O       -0.42917086       4.95287464       1.61940274       38       0.00064467       0.00622253      -0.00092299
O        3.71983320       4.78706020       5.10278338       39      -0.00565177      -0.00268198      -0.00092299
