40
Lattice="9.41354413501895 7.378080545209133e-10 7.090840891402134e-16 -3.1378480457019315 8.875174523581736 -1.2779369484858203e-09 -3.137848044658511 -4.4375872610530465 7.686126601294188" Properties=species:S:1:pos:R:3:spacegroup_kinds:I:1:forces:R:3 spacegroup="P 1" unit_cell=conventional occupancy="_JSON {\"0\": {\"In\": 1}, \"1\": {\"In\": 1}, \"2\": {\"In\": 1}, \"3\": {\"In\": 1}, \"4\": {\"In\": 1}, \"5\": {\"In\": 1}, \"6\": {\"In\": 1}, \"7\": {\"In\": 1}, \"8\": {\"In\": 1}, \"9\": {\"In\": 1}, \"10\": {\"In\": 1}, \"11\": {\"In\": 1}, \"12\": {\"In\": 1}, \"13\": {\"In\": 1}, \"14\": {\"In\": 1}, \"15\": {\"In\": 1}, \"16\": {\"O\": 1}, \"17\": {\"O\": 1}, \"18\": {\"O\": 1}, \"19\": {\"O\": 1}, \"20\": {\"O\": 1}, \"21\": {\"O\": 1}, \"22\": {\"O\": 1}, \"23\": {\"O\": 1}, \"24\": {\"O\": 1}, \"25\": {\"O\": 1}, \"26\": {\"O\": 1}, \"27\": {\"O\": 1}, \"28\": {\"O\": 1}, \"29\": {\"O\": 1}, \"30\": {\"O\": 1}, \"31\": {\"O\": 1}, \"32\": {\"O\": 1}, \"33\": {\"O\": 1}, \"34\": {\"O\": 1}, \"35\": {\"O\": 1}, \"36\": {\"O\": 1}, \"37\": {\"O\": 1}, \"38\": {\"O\": 1}, \"39\": {\"O\": 1}}" n_minim_iter=9 energy=-45150.77505440988 stress="-0.049885959704503394 1.2116508944009866e-12 1.662252812454937e-13 1.2116508944009866e-12 -0.0498859597055554 -2.9666660047495444e-13 1.662252812454937e-13 -2.9666660047495444e-13 -0.04988595970607319" free_energy=-45150.77505440988 pbc="T T T"
In      -4.68174596       3.31049432       5.79524554        0       0.00490667      -0.00346954       0.00600942
In       7.81959400       1.12709295       1.89088105        1      -0.00490667       0.00346954      -0.00600942
In       1.54389791      -1.09170068       5.73394435        2      -0.00490667       0.00346954      -0.00600942
In      -1.56892402      -2.21879363       3.84306330        3      -0.00000000       0.00000000      -0.00000000
In      -1.54389792       4.41989113       3.81241270        4       0.00490667      -0.00346954      -0.00600942
In       4.73179817      -3.29279818       5.76459495        5       0.00490667       0.00693908       0.00000000
In      -1.54389792       1.14478908       5.76459495        6       0.00490667       0.00693908       0.00000000
In      -1.59395013       7.73038545       1.92153165        7      -0.00490667      -0.00693908      -0.00000000
In       4.68174596       0.01769613       3.87371390        8      -0.00490667       0.00346954       0.00600942
In      -1.56892402       4.43758726      -0.00000000        9      -0.00000000       0.00000000      -0.00000000
In       4.68174596       6.67407703       0.03065059       10      -0.00490667       0.00346954       0.00600942
In      -1.54389792      -2.23648976       7.65547600       11       0.00490667      -0.00346954      -0.00600942
In       4.68174596       3.29279819       1.92153165       12      -0.00490667      -0.00693908       0.00000000
In       1.59395013       5.52928795       1.95218224       13       0.00490667      -0.00346954       0.00600942
In       4.70677207       0.00000000      -0.00000000       14       0.00000000      -0.00000000      -0.00000000
In       1.56892402       2.21879363       3.84306330       15      -0.00000000      -0.00000000       0.00000000
O        0.67371029       4.43084847       4.19712640       16      -0.00086111       0.00155188      -0.00487117
O       -2.46413776       3.63818748       5.59339936       17      -0.00086111      -0.00499450       0.00109162
O       -0.53546464       2.27440964       0.26940527       18      -0.00353277      -0.00310535      -0.00218048
O       -0.67371029      -0.80613857       2.10439916       19       0.00086111      -0.00344262      -0.00377955
O        4.25149530       5.39926705       1.83499389       20      -0.00442182       0.00218371      -0.00159907
O        2.02420078       3.32927583       1.75033606       21       0.00442182       0.00247669       0.00109162
O        2.02420078       6.50757848       0.08465782       22       0.00442182      -0.00029298      -0.00269069
O       -2.32282219       6.40308525       4.11246857       23       0.00175016       0.00436584      -0.00218048
O        3.67331268       2.16317762       7.41672132       24       0.00353277       0.00310535       0.00218048
O        5.46067023      -1.96549799       3.57365802       25      -0.00175016      -0.00436584       0.00218048
O        6.81116073       3.58931026       2.00806941       26       0.00353277      -0.00344103       0.00159907
O        3.95287390       2.57875327       3.92772112       27       0.00175016      -0.00407127      -0.00269069
O        0.81502586       4.33092327       7.33206350       28       0.00175016      -0.00029457       0.00487117
O        2.32282218       0.10666399       0.35406310       29      -0.00175016       0.00029457      -0.00487117
O       -3.67331269       0.84827700       5.67805719       30      -0.00353277       0.00344103      -0.00159907
O        5.60198580       0.79939978       2.09272723       31       0.00086111       0.00499450      -0.00109162
O        1.11364726       1.10831144       5.93579053       32      -0.00442182      -0.00247669      -0.00109162
O        3.67331268      -1.31490062       5.94746246       33       0.00353277       0.00033568      -0.00377955
O        2.46413776       0.00673879       3.48900020       34       0.00086111      -0.00155188       0.00487117
O        1.11364726      -2.06999121       7.60146877       35      -0.00442182       0.00029298       0.00269069
O       -0.81502586       1.85883400       3.75840547       36      -0.00175016       0.00407127       0.00269069
O       -1.11364726      -0.96167978       5.85113271       37       0.00442182      -0.00218371       0.00159907
O       -0.53546464       5.75248789       1.73866413       38      -0.00353277      -0.00033568       0.00377955
O        3.81155833       5.24372584       5.58172743       39      -0.00086111       0.00344262       0.00377955
