40
Lattice="9.609715829231197 7.531828467827926e-10 1.1926652101031626e-14 -3.20323861045384 9.060126970582385 -1.304561284080286e-09 -3.203238609388686 -4.530063484538006 7.846300118906594" Properties=species:S:1:pos:R:3:spacegroup_kinds:I:1:forces:R:3 spacegroup="P 1" unit_cell=conventional occupancy="_JSON {\"0\": {\"In\": 1}, \"1\": {\"In\": 1}, \"2\": {\"In\": 1}, \"3\": {\"In\": 1}, \"4\": {\"In\": 1}, \"5\": {\"In\": 1}, \"6\": {\"In\": 1}, \"7\": {\"In\": 1}, \"8\": {\"In\": 1}, \"9\": {\"In\": 1}, \"10\": {\"In\": 1}, \"11\": {\"In\": 1}, \"12\": {\"In\": 1}, \"13\": {\"In\": 1}, \"14\": {\"In\": 1}, \"15\": {\"In\": 1}, \"16\": {\"O\": 1}, \"17\": {\"O\": 1}, \"18\": {\"O\": 1}, \"19\": {\"O\": 1}, \"20\": {\"O\": 1}, \"21\": {\"O\": 1}, \"22\": {\"O\": 1}, \"23\": {\"O\": 1}, \"24\": {\"O\": 1}, \"25\": {\"O\": 1}, \"26\": {\"O\": 1}, \"27\": {\"O\": 1}, \"28\": {\"O\": 1}, \"29\": {\"O\": 1}, \"30\": {\"O\": 1}, \"31\": {\"O\": 1}, \"32\": {\"O\": 1}, \"33\": {\"O\": 1}, \"34\": {\"O\": 1}, \"35\": {\"O\": 1}, \"36\": {\"O\": 1}, \"37\": {\"O\": 1}, \"38\": {\"O\": 1}, \"39\": {\"O\": 1}}" n_minim_iter=6 energy=-45153.51089671003 stress="-0.07049908041022353 5.346565177854435e-13 -2.1117419169597818e-14 5.346565177854435e-13 -0.07049908041188213 -3.787431151237929e-13 -2.1117419169597818e-14 -3.787431151237929e-13 -0.07049908040975207" free_energy=-45153.51089671003 pbc="T T T"
In      -4.83275233       3.41727195       5.85056154        0       0.00220783      -0.00156117       0.00270403
In       8.03599094       1.11279154       1.99573857        1      -0.00220783       0.00156117      -0.00270403
In       1.62951372      -1.15224020       5.91888863        2      -0.00220783       0.00156117      -0.00270403
In      -1.60161931      -2.26503174       3.92315006        3       0.00000000       0.00000000      -0.00000000
In      -1.62951372       4.54978782       3.95731360        4       0.00220783      -0.00156117      -0.00270403
In       4.77696350      -3.43699627       5.88472509        5       0.00220783       0.00312235      -0.00000000
In      -1.62951372       1.09306721       5.88472509        6       0.00220783       0.00312235       0.00000000
In      -1.57372489       7.96705976       1.96157503        7      -0.00220783      -0.00312235      -0.00000000
In       4.83275233      -0.01972433       3.88898651        8      -0.00220783       0.00156117       0.00270403
In      -1.60161931       4.53006349      -0.00000000        9       0.00000000       0.00000000       0.00000000
In       4.83275233       6.77537090      -0.03416355       10      -0.00220783       0.00156117       0.00270403
In      -1.62951372      -2.24530741       7.88046366       11       0.00220783      -0.00156117      -0.00270403
In       4.83275233       3.43699628       1.96157503       12      -0.00220783      -0.00312235      -0.00000000
In       1.57372489       5.68230369       1.92741148       13       0.00220783      -0.00156117       0.00270403
In       4.80485791       0.00000000      -0.00000000       14       0.00000000      -0.00000000      -0.00000000
In       1.60161930       2.26503174       3.92315006       15       0.00000000      -0.00000000      -0.00000000
O        0.63047030       4.57927922       4.25890588       16      -0.00801216       0.00404629      -0.00026788
O       -2.57276831       3.66371282       5.67422510       17      -0.00801216      -0.00225514      -0.00337025
O       -0.56024544       2.24064425       0.29275205       18      -0.00098200      -0.00722621       0.00523990
O       -0.63047030      -0.81713493       2.08683086       19       0.00801216       0.00179115      -0.00363813
O        4.31177100       5.51621890       1.79407881       20       0.00054456       0.00123410      -0.00887803
O        2.09470621       3.46942336       1.75107504       21      -0.00054456       0.00830565      -0.00337025
O        2.09470621       6.57685902       0.04300377       22      -0.00054456      -0.00707155      -0.00550778
O       -2.29924814       6.57641828       4.21590211       23       0.00648560       0.00333458       0.00523990
O        3.76348405       2.28941924       7.55354806       24       0.00098200       0.00722621      -0.00523990
O        5.50248674      -2.04635479       3.63039801       25      -0.00648560      -0.00333458      -0.00523990
O        6.96672266       3.63888458       2.12907124       26       0.00098200       0.00092478       0.00887803
O        4.10722908       2.62790093       3.96615382       27       0.00648560       0.00287060      -0.00550778
O        0.90399047       4.38587125       7.51054430       28       0.00648560      -0.00620518       0.00026788
O        2.29924813       0.14419224       0.33575582       29      -0.00648560       0.00620518      -0.00026788
O       -3.76348405       0.89117891       5.71722887       30      -0.00098201      -0.00092478      -0.00887803
O        5.77600692       0.86635067       2.17207501       31       0.00801216       0.00225514       0.00337025
O        1.10853239       1.06064013       6.09522507       32       0.00054456      -0.00830565       0.00337025
O        3.76348405      -1.39824033       6.00998092       33       0.00098201      -0.00815099      -0.00363813
O        2.57276831      -0.04921573       3.58739424       34       0.00801216      -0.00404629       0.00026788
O        1.10853240      -2.04679553       7.80329635       35       0.00054456       0.00707155       0.00550778
O       -0.90399048       1.90216256       3.88014629       36      -0.00648560      -0.00287060       0.00550778
O       -1.10853240      -0.98615541       6.05222130       37      -0.00054456      -0.00123410       0.00887803
O       -0.56024544       5.92830382       1.83631919       38      -0.00098200       0.00815099       0.00363813
O        3.83370891       5.34719842       5.75946925       39      -0.00801216      -0.00179115       0.00363813
