40
Lattice="8.366783355446069 6.557692708624004e-10 8.389668949971042e-15 -2.788927785766956 7.88827899625428 -1.1358327131527553e-09 -2.788927784839568 -3.944139497471366 6.831450003652638" Properties=species:S:1:pos:R:3:spacegroup_kinds:I:1:forces:R:3 spacegroup="P 1" unit_cell=conventional occupancy="_JSON {\"0\": {\"In\": 1}, \"1\": {\"In\": 1}, \"2\": {\"In\": 1}, \"3\": {\"In\": 1}, \"4\": {\"In\": 1}, \"5\": {\"In\": 1}, \"6\": {\"In\": 1}, \"7\": {\"In\": 1}, \"8\": {\"In\": 1}, \"9\": {\"In\": 1}, \"10\": {\"In\": 1}, \"11\": {\"In\": 1}, \"12\": {\"In\": 1}, \"13\": {\"In\": 1}, \"14\": {\"In\": 1}, \"15\": {\"In\": 1}, \"16\": {\"O\": 1}, \"17\": {\"O\": 1}, \"18\": {\"O\": 1}, \"19\": {\"O\": 1}, \"20\": {\"O\": 1}, \"21\": {\"O\": 1}, \"22\": {\"O\": 1}, \"23\": {\"O\": 1}, \"24\": {\"O\": 1}, \"25\": {\"O\": 1}, \"26\": {\"O\": 1}, \"27\": {\"O\": 1}, \"28\": {\"O\": 1}, \"29\": {\"O\": 1}, \"30\": {\"O\": 1}, \"31\": {\"O\": 1}, \"32\": {\"O\": 1}, \"33\": {\"O\": 1}, \"34\": {\"O\": 1}, \"35\": {\"O\": 1}, \"36\": {\"O\": 1}, \"37\": {\"O\": 1}, \"38\": {\"O\": 1}, \"39\": {\"O\": 1}}" n_minim_iter=9 energy=-45147.18208330039 stress="0.010129229500097718 -5.769361149578285e-13 -1.8372618259094328e-14 -5.769361149578285e-13 0.010129229499933591 -9.772055916290454e-13 -1.8372618259094328e-14 -9.772055916290454e-13 0.010129229501041831" free_energy=-45147.18208330039 pbc="T T T"
In      -4.05954796       2.87053389       5.27526446        0      -0.00060698       0.00042920      -0.00074339
In       6.84847574       1.07360561       1.55618554        1       0.00060698      -0.00042920       0.00074339
In       1.27062017      -0.89846414       4.97191054        2       0.00060698      -0.00042920       0.00074339
In      -1.39446389      -1.97206975       3.41572500        3      -0.00000000       0.00000000      -0.00000000
In      -1.27062018       3.85656877       3.26404804        4      -0.00060698       0.00042920       0.00074339
In       4.30723539      -2.78296316       5.12358750        5      -0.00060698      -0.00085840       0.00000000
In      -1.27062018       1.16117634       5.12358750        6      -0.00060698      -0.00085840       0.00000000
In      -1.51830761       6.72710266       1.70786250        7       0.00060698       0.00085840      -0.00000000
In       4.05954796       0.08757073       3.56740196        8       0.00060698      -0.00042920      -0.00074339
In      -1.39446389       3.94413950      -0.00000000        9      -0.00000000       0.00000000       0.00000000
In       4.05954796       6.00377998       0.15167696       10       0.00060698      -0.00042920      -0.00074339
In      -1.27062018      -2.05964048       6.67977304       11      -0.00060698       0.00042920       0.00074339
In       4.05954796       2.78296316       1.70786250       12       0.00060698       0.00085840       0.00000000
In       1.51830761       4.84260364       1.85953946       13      -0.00060698       0.00042920      -0.00074339
In       4.18339168       0.00000000      -0.00000000       14       0.00000000      -0.00000000      -0.00000000
In       1.39446389       1.97206975       3.41572500       15       0.00000000      -0.00000000       0.00000000
O        0.81707205       3.95435602       3.62939614       16      -0.00049916       0.00079926       0.00563292
O       -1.97185573       3.13804100       5.00790417       17      -0.00049916       0.00447862      -0.00350864
O       -0.47800738       2.08173070       0.00603728       18       0.00480965       0.00072473       0.00299329
O       -0.81707205      -0.79588198       1.80585031       19       0.00049916       0.00527788       0.00212428
O        3.61585867       4.74350710       1.79981303       20       0.00438887      -0.00354970      -0.00086901
O        1.96199690       2.78513950       1.59217916       21      -0.00438887      -0.00102226      -0.00350864
O        1.96199690       5.90250711       0.20763386       22      -0.00438887      -0.00252744       0.00263962
O       -2.12201032       5.67296869       3.42176228       23       0.00091994      -0.00477615       0.00299329
O        3.26693516       1.86240880       6.82541272       24      -0.00480965      -0.00072473      -0.00299329
O        4.91093810      -1.72882919       3.40968772       25      -0.00091994       0.00477615      -0.00299329
O        6.05586294       3.01816354       1.61591197       26      -0.00480965       0.00295463       0.00086901
O        3.45584525       2.09891847       3.62335886       27       0.00091994       0.00498034       0.00263962
O        0.66691747       4.06053134       6.61777886       28       0.00091994      -0.00020419      -0.00563292
O        2.12201031      -0.11639184       0.21367114       29      -0.00091994       0.00020419       0.00563292
O       -3.26693516       0.92597597       5.21553803       30       0.00480965      -0.00295463      -0.00086901
O        4.76078352       0.80609850       1.82354583       31       0.00049916      -0.00447862       0.00350864
O        0.82693089       1.15900000       5.23927083       32       0.00438887       0.00102226       0.00350864
O        3.26693516      -0.93643283       5.22157531       33      -0.00480965      -0.00222990       0.00212428
O        1.97185573      -0.01021652       3.20205386       34       0.00049916      -0.00079926      -0.00563292
O        0.82693089      -1.95836760       6.62381614       35       0.00438887       0.00252744      -0.00263962
O       -0.66691747       1.84522104       3.20809114       36      -0.00091994      -0.00498034      -0.00263962
O       -0.82693089      -0.79936760       5.03163697       37      -0.00438887       0.00354970       0.00086901
O       -0.47800738       4.88057234       1.60987469       38       0.00480965       0.00222990      -0.00212428
O        3.60599984       4.74002148       5.02559969       39      -0.00049916      -0.00527788      -0.00212428
