40
Lattice="9.208836648981784 7.217633223947746e-10 2.7450143479203236e-16 -3.069612217007752 8.682174454871705 -1.2501336100578636e-09 -3.0696122159870196 -4.3410872267140865 7.518983638840632" Properties=species:S:1:pos:R:3:spacegroup_kinds:I:1:forces:R:3 spacegroup="P 1" unit_cell=conventional occupancy="_JSON {\"0\": {\"In\": 1}, \"1\": {\"In\": 1}, \"2\": {\"In\": 1}, \"3\": {\"In\": 1}, \"4\": {\"In\": 1}, \"5\": {\"In\": 1}, \"6\": {\"In\": 1}, \"7\": {\"In\": 1}, \"8\": {\"In\": 1}, \"9\": {\"In\": 1}, \"10\": {\"In\": 1}, \"11\": {\"In\": 1}, \"12\": {\"In\": 1}, \"13\": {\"In\": 1}, \"14\": {\"In\": 1}, \"15\": {\"In\": 1}, \"16\": {\"O\": 1}, \"17\": {\"O\": 1}, \"18\": {\"O\": 1}, \"19\": {\"O\": 1}, \"20\": {\"O\": 1}, \"21\": {\"O\": 1}, \"22\": {\"O\": 1}, \"23\": {\"O\": 1}, \"24\": {\"O\": 1}, \"25\": {\"O\": 1}, \"26\": {\"O\": 1}, \"27\": {\"O\": 1}, \"28\": {\"O\": 1}, \"29\": {\"O\": 1}, \"30\": {\"O\": 1}, \"31\": {\"O\": 1}, \"32\": {\"O\": 1}, \"33\": {\"O\": 1}, \"34\": {\"O\": 1}, \"35\": {\"O\": 1}, \"36\": {\"O\": 1}, \"37\": {\"O\": 1}, \"38\": {\"O\": 1}, \"39\": {\"O\": 1}}" n_minim_iter=4 energy=-45150.475526749324 stress="0.02456853790972511 -8.136641761977402e-13 -1.2004521710932981e-12 -8.136641761977402e-13 0.024568537913659386 1.360212010825224e-12 -1.2004521710932981e-12 1.360212010825224e-12 0.024568537910493096" free_energy=-45150.475526749324 pbc="T T T"
In      -4.40713450       3.11631469       5.88086008        0       0.00092764      -0.00065594       0.00113613
In       7.47674672       1.22477254       1.63812356        1      -0.00092764       0.00065594      -0.00113613
In       1.33752228      -0.94577108       5.39761538        2      -0.00092764       0.00065594      -0.00113613
In      -1.53480611      -2.17054361       3.75949182        3       0.00000000      -0.00000000      -0.00000000
In      -1.33752229       4.20158650       3.51786947        4       0.00092764      -0.00065594      -0.00113613
In       4.80170215      -2.97681396       5.63923773        5       0.00092764       0.00131189      -0.00000000
In      -1.33752229       1.36427327       5.63923773        6       0.00092764       0.00131189       0.00000000
In      -1.73208993       7.31790119       1.87974591        7      -0.00092764      -0.00131189       0.00000000
In       4.40713450       0.13950073       4.00111417        8      -0.00092764       0.00065594       0.00113613
In      -1.53480611       4.34108723      -0.00000000        9       0.00000000       0.00000000      -0.00000000
In       4.40713450       6.65113157       0.24162235       10      -0.00092764       0.00065594       0.00113613
In      -1.33752229      -2.31004434       7.27736129       11       0.00092764      -0.00065594      -0.00113613
In       4.40713450       2.97681397       1.87974591       12      -0.00092764      -0.00131189       0.00000000
In       1.73208993       5.28685831       2.12136826       13       0.00092764      -0.00065594       0.00113613
In       4.60441832       0.00000000      -0.00000000       14       0.00000000       0.00000000      -0.00000000
In       1.53480611       2.17054362       3.75949182       15       0.00000000       0.00000000      -0.00000000
O        0.88839374       4.34134741       4.09830108       16      -0.00438049       0.00251783      -0.00500914
O       -2.18121848       3.54910276       5.46960777       17      -0.00438049      -0.00559695       0.00032406
O       -0.45031357       2.32516816       0.07054104       18      -0.00436319      -0.00560919       0.00034525
O       -0.88839374      -0.79172428       2.04892522       19       0.00438049      -0.00307912      -0.00468507
O        4.07319900       5.17353841       1.97838417       20      -0.00381669       0.00327846      -0.00503033
O        2.06602543       3.04398187       1.71011595       21       0.00381669       0.00599562       0.00032406
O        2.06602543       6.47064377       0.26826822       22       0.00381669      -0.00271716      -0.00535439
O       -2.34229409       6.16113449       3.83003286       23       0.00383400       0.00598338       0.00034525
O        3.51992578       2.01591907       7.44844259       24       0.00436319       0.00560919      -0.00034525
O        5.41190630      -1.82004726       3.68895077       25      -0.00383400      -0.00598338      -0.00034525
O        6.58953800       3.39421803       1.78110764       26       0.00436319      -0.00250559       0.00503033
O        3.79693034       2.40688213       4.02776004       27       0.00383400      -0.00269269      -0.00535439
O        0.72731813       4.45524507       7.18017437       28       0.00383400      -0.00329069       0.00500914
O        2.34229409      -0.11415784       0.33880926       29      -0.00383400       0.00329069      -0.00500914
O       -3.51992579       0.94686920       5.73787599       30      -0.00436319       0.00250559      -0.00503033
O        5.25083069       0.79198447       2.04937586       31       0.00438049       0.00559695      -0.00032406
O        1.00358678       1.29710537       5.80886768       32      -0.00381669      -0.00599562      -0.00032406
O        3.51992578      -1.06904987       5.80841704       33       0.00436319      -0.00310359      -0.00468507
O        2.18121848      -0.00026018       3.42068255       34       0.00438049      -0.00251783       0.00500914
O        1.00358678      -2.12955654       7.25071542       35      -0.00381669       0.00271716       0.00535439
O       -0.72731813       1.93420510       3.49122360       36      -0.00383400       0.00269269       0.00535439
O       -1.00358679      -0.83245117       5.54059946       37       0.00381669      -0.00327846       0.00503033
O       -0.45031357       5.41013710       1.71056660       38      -0.00436319       0.00310359       0.00468507
O        3.95800595       5.13281151       5.47005842       39      -0.00438049       0.00307912       0.00468507
