40
Lattice="9.278078622199404 7.271918767402357e-10 2.5399248871338123e-15 -3.0926928747520708 8.747456413276453 -1.2595350122589784e-09 -3.0926928737236694 -4.373728205911034 7.575519473234207" Properties=species:S:1:pos:R:3:spacegroup_kinds:I:1:forces:R:3 spacegroup="P 1" unit_cell=conventional occupancy="_JSON {\"0\": {\"In\": 1}, \"1\": {\"In\": 1}, \"2\": {\"In\": 1}, \"3\": {\"In\": 1}, \"4\": {\"In\": 1}, \"5\": {\"In\": 1}, \"6\": {\"In\": 1}, \"7\": {\"In\": 1}, \"8\": {\"In\": 1}, \"9\": {\"In\": 1}, \"10\": {\"In\": 1}, \"11\": {\"In\": 1}, \"12\": {\"In\": 1}, \"13\": {\"In\": 1}, \"14\": {\"In\": 1}, \"15\": {\"In\": 1}, \"16\": {\"O\": 1}, \"17\": {\"O\": 1}, \"18\": {\"O\": 1}, \"19\": {\"O\": 1}, \"20\": {\"O\": 1}, \"21\": {\"O\": 1}, \"22\": {\"O\": 1}, \"23\": {\"O\": 1}, \"24\": {\"O\": 1}, \"25\": {\"O\": 1}, \"26\": {\"O\": 1}, \"27\": {\"O\": 1}, \"28\": {\"O\": 1}, \"29\": {\"O\": 1}, \"30\": {\"O\": 1}, \"31\": {\"O\": 1}, \"32\": {\"O\": 1}, \"33\": {\"O\": 1}, \"34\": {\"O\": 1}, \"35\": {\"O\": 1}, \"36\": {\"O\": 1}, \"37\": {\"O\": 1}, \"38\": {\"O\": 1}, \"39\": {\"O\": 1}}" n_minim_iter=2 energy=-45150.1651459293 stress="0.02012695300510886 1.3764992237938047e-12 -5.36036521480349e-13 1.3764992237938047e-12 0.020126953004025505 -1.1072460137321457e-13 -5.36036521480349e-13 -1.1072460137321457e-13 0.020126953006920363" free_energy=-45150.1651459293 pbc="T T T"
In      -4.43423952       3.13548084       5.93246710        0       0.00553527      -0.00391402       0.00677929
In       7.52693239       1.23824738       1.64305237        1      -0.00553527       0.00391402      -0.00677929
In       1.34154664      -0.94861673       5.43081211        2      -0.00553527       0.00391402      -0.00677929
In      -1.54634644      -2.18686410       3.78775973        3      -0.00000000      -0.00000000       0.00000000
In      -1.34154665       4.22891289       3.53693224        4       0.00553527      -0.00391402      -0.00677929
In       4.84383910      -2.99066551       5.68163960        5       0.00553527       0.00782805       0.00000000
In      -1.34154665       1.38306270       5.68163960        6       0.00553527       0.00782805      -0.00000000
In      -1.75114623       7.36439372       1.89387986        7      -0.00553527      -0.00782805       0.00000000
In       4.43423952       0.14481532       4.03858723        8      -0.00553527       0.00391402       0.00677929
In      -1.54634644       4.37372821      -0.00000000        9      -0.00000000      -0.00000000      -0.00000000
In       4.43423952       6.70540763       0.25082749       10      -0.00553527       0.00391402       0.00677929
In      -1.34154665      -2.33167942       7.32469198       11       0.00553527      -0.00391402      -0.00677929
In       4.43423952       2.99066551       1.89387987       12      -0.00553527      -0.00782805       0.00000000
In       1.75114623       5.32234494       2.14470736       13       0.00553527      -0.00391402       0.00677929
In       4.63903931       0.00000000      -0.00000000       14       0.00000000      -0.00000000       0.00000000
In       1.54634644       2.18686411       3.78775973       15      -0.00000000      -0.00000000      -0.00000000
O        0.89034978       4.37516065       4.13589328       16       0.00320376       0.00536230      -0.00049432
O       -2.20234310       3.58107243       5.50633230       17       0.00320376      -0.00310925      -0.00439672
O       -0.44918926       2.34140547       0.07797900       18       0.00319212      -0.00310101      -0.00441099
O       -0.89034978      -0.79122334       2.06670611       19      -0.00320376       0.00225305      -0.00489105
O        4.11038183       5.20997275       1.98872711       20      -0.00399935      -0.00479973      -0.00048006
O        2.07500392       3.06956228       1.71857257       21       0.00399935      -0.00198412      -0.00439672
O        2.07500392       6.51413868       0.27015454       22       0.00399935      -0.00281561       0.00391666
O       -2.35722800       6.20362352       3.86573874       23       0.00398770      -0.00197589      -0.00441099
O        3.54188213       2.03232275       7.49754047       24      -0.00319212       0.00310101       0.00441099
O        5.44992087      -1.82989531       3.70978073       25      -0.00398770       0.00197589       0.00441099
O        6.63457501       3.42509863       1.79903262       26      -0.00319212      -0.00537053       0.00048006
O        3.82815775       2.43288030       4.05791427       27       0.00398770      -0.00283208       0.00391666
O        0.73546488       4.48468081       7.22738593       28       0.00398770       0.00480797       0.00049432
O        2.35722799      -0.11095260       0.34813354       29      -0.00398770      -0.00480797      -0.00049432
O       -3.54188214       0.94862958       5.77648684       30       0.00319212       0.00537053      -0.00048006
O        5.29503597       0.79265578       2.06918716       31      -0.00320376       0.00310925       0.00439672
O        1.01768895       1.30416593       5.85694690       32      -0.00399935       0.00198412       0.00439672
O        3.54188213      -1.08369317       5.85446585       33      -0.00319212       0.00226952      -0.00489105
O        2.20234309      -0.00143243       3.43962619       34      -0.00320376      -0.00536230       0.00049432
O        1.01768895      -2.14041047       7.30536493       35      -0.00399935       0.00281561      -0.00391666
O       -0.73546488       1.94084791       3.51760519       36      -0.00398770       0.00283208      -0.00391666
O       -1.01768896      -0.83624454       5.58679236       37       0.00399935       0.00479973       0.00048006
O       -0.44918926       5.45742138       1.72105362       38       0.00319212      -0.00226952       0.00489105
O        3.98304265       5.16495155       5.50881336       39       0.00320376      -0.00225305       0.00489105
