40
Lattice="8.692028036701098 6.812565335616212e-10 -2.1213665175042104e-15 -2.8973426795426613 8.194922622459496 -1.1799770349063954e-09 -2.8973426785792173 -4.097461310548485 7.097011173884374" Properties=species:S:1:pos:R:3:spacegroup_kinds:I:1:forces:R:3 spacegroup="P 1" unit_cell=conventional occupancy="_JSON {\"0\": {\"In\": 1}, \"1\": {\"In\": 1}, \"2\": {\"In\": 1}, \"3\": {\"In\": 1}, \"4\": {\"In\": 1}, \"5\": {\"In\": 1}, \"6\": {\"In\": 1}, \"7\": {\"In\": 1}, \"8\": {\"In\": 1}, \"9\": {\"In\": 1}, \"10\": {\"In\": 1}, \"11\": {\"In\": 1}, \"12\": {\"In\": 1}, \"13\": {\"In\": 1}, \"14\": {\"In\": 1}, \"15\": {\"In\": 1}, \"16\": {\"O\": 1}, \"17\": {\"O\": 1}, \"18\": {\"O\": 1}, \"19\": {\"O\": 1}, \"20\": {\"O\": 1}, \"21\": {\"O\": 1}, \"22\": {\"O\": 1}, \"23\": {\"O\": 1}, \"24\": {\"O\": 1}, \"25\": {\"O\": 1}, \"26\": {\"O\": 1}, \"27\": {\"O\": 1}, \"28\": {\"O\": 1}, \"29\": {\"O\": 1}, \"30\": {\"O\": 1}, \"31\": {\"O\": 1}, \"32\": {\"O\": 1}, \"33\": {\"O\": 1}, \"34\": {\"O\": 1}, \"35\": {\"O\": 1}, \"36\": {\"O\": 1}, \"37\": {\"O\": 1}, \"38\": {\"O\": 1}, \"39\": {\"O\": 1}}" n_minim_iter=6 energy=-45150.657711638094 stress="-0.0381880103476623 -1.1728764896685183e-12 -1.6802306611914705e-12 -1.1728764896685183e-12 -0.03818801034826489 1.263323111500685e-12 -1.6802306611914705e-12 1.263323111500685e-12 -0.03818801034269391" free_energy=-45150.657711638094 pbc="T T T"
In      -4.15393507       2.93727566       5.55800609        0       0.00466349      -0.00329758       0.00571158
In       7.05127775       1.16018566       1.53900508        1      -0.00466349       0.00329758      -0.00571158
In       1.25659239      -0.88854500       5.08751067        2      -0.00466349       0.00329758      -0.00571158
In      -1.44867134      -2.04873065       3.54850558        3      -0.00000000       0.00000000       0.00000000
In      -1.25659239       3.96164098       3.31325787        4       0.00466349      -0.00329758      -0.00571158
In       4.53809297      -2.80145532       5.32275838        5       0.00466349       0.00659517       0.00000000
In      -1.25659239       1.29600599       5.32275838        6       0.00466349       0.00659517       0.00000000
In      -1.64075029       6.89891664       1.77425279        7      -0.00466349      -0.00659517       0.00000000
In       4.15393507       0.13582033       3.78375329        8      -0.00466349       0.00329758       0.00571158
In      -1.44867134       4.09746131      -0.00000000        9      -0.00000000       0.00000000      -0.00000000
In       4.15393507       6.28201230       0.23524771       10      -0.00466349       0.00329758       0.00571158
In      -1.25659239      -2.18455098       6.86176346       11       0.00466349      -0.00329758      -0.00571158
In       4.15393507       2.80145533       1.77425279       12      -0.00466349      -0.00659517      -0.00000000
In       1.64075029       4.98600631       2.00950050       13       0.00466349      -0.00329758       0.00571158
In       4.34601402       0.00000000      -0.00000000       14      -0.00000000      -0.00000000      -0.00000000
In       1.44867134       2.04873066       3.54850558       15       0.00000000      -0.00000000      -0.00000000
O        0.88254601       4.10174664       3.84678644       16      -0.00040566       0.00389424      -0.00147576
O       -2.01479666       3.32927212       5.16990675       17      -0.00040566      -0.00322516      -0.00263464
O       -0.42603347       2.20584689       0.01872515       18       0.00049560      -0.00386245      -0.00153083
O       -0.88254602      -0.76390387       1.91968201       19       0.00040566       0.00066908      -0.00411039
O        3.81046674       4.87217615       1.90095686       20      -0.00290549      -0.00155291      -0.00257956
O        1.98421862       2.83854180       1.62140116       21       0.00290549       0.00145751      -0.00263464
O        1.98421862       6.13109567       0.27955570       22       0.00290549      -0.00301042       0.00005508
O       -2.22170355       5.81257788       3.56723073       23       0.00380675       0.00082023      -0.00153083
O        3.32337615       1.89161443       7.07828602       24      -0.00049560       0.00386245       0.00153083
O        5.11904622      -1.71511656       3.52978043       25      -0.00380675      -0.00082023       0.00153083
O        6.22071883       3.16787056       1.64754872       26      -0.00049560      -0.00325696       0.00257956
O        3.57298181       2.23175416       3.82806128       27       0.00380675      -0.00173585       0.00005508
O        0.67563913       4.24805190       6.79873032       28       0.00380675       0.00091562       0.00147576
O        2.22170354      -0.15059059       0.29828085       29      -0.00380675      -0.00091562      -0.00147576
O       -3.32337615       0.92959076       5.44946245       30       0.00049560       0.00325696      -0.00257956
O        4.91213934       0.76818920       1.92710442       31       0.00040566       0.00322516       0.00263464
O        0.91312406       1.25891952       5.47561001       32      -0.00290549      -0.00145751       0.00263464
O        3.32337615      -0.96202367       5.46818760       33      -0.00049560      -0.00060548      -0.00411039
O        2.01479666      -0.00428533       3.25022473       34       0.00040566      -0.00389424       0.00147576
O        0.91312406      -2.03363435       6.81745547       35      -0.00290549       0.00301042      -0.00005508
O       -0.67563914       1.86570716       3.26894988       36      -0.00380675       0.00173585      -0.00005508
O       -0.91312406      -0.77471484       5.19605431       37       0.00290549       0.00155291       0.00257956
O       -0.42603347       5.05948498       1.62882357       38       0.00049560       0.00060548       0.00411039
O        3.77988869       4.86136518       5.17732915       39      -0.00040566      -0.00066908       0.00411039
