40
Lattice="9.609715829231195 7.53182632564776e-10 1.2447402096756997e-14 -3.2032386104538406 9.060126970582392 -1.3045656089831225e-09 -3.203238609388686 -4.530063484538003 7.846300118906593" Properties=species:S:1:pos:R:3:spacegroup_kinds:I:1:forces:R:3 spacegroup="P 1" unit_cell=conventional occupancy="_JSON {\"0\": {\"In\": 1}, \"1\": {\"In\": 1}, \"2\": {\"In\": 1}, \"3\": {\"In\": 1}, \"4\": {\"In\": 1}, \"5\": {\"In\": 1}, \"6\": {\"In\": 1}, \"7\": {\"In\": 1}, \"8\": {\"In\": 1}, \"9\": {\"In\": 1}, \"10\": {\"In\": 1}, \"11\": {\"In\": 1}, \"12\": {\"In\": 1}, \"13\": {\"In\": 1}, \"14\": {\"In\": 1}, \"15\": {\"In\": 1}, \"16\": {\"O\": 1}, \"17\": {\"O\": 1}, \"18\": {\"O\": 1}, \"19\": {\"O\": 1}, \"20\": {\"O\": 1}, \"21\": {\"O\": 1}, \"22\": {\"O\": 1}, \"23\": {\"O\": 1}, \"24\": {\"O\": 1}, \"25\": {\"O\": 1}, \"26\": {\"O\": 1}, \"27\": {\"O\": 1}, \"28\": {\"O\": 1}, \"29\": {\"O\": 1}, \"30\": {\"O\": 1}, \"31\": {\"O\": 1}, \"32\": {\"O\": 1}, \"33\": {\"O\": 1}, \"34\": {\"O\": 1}, \"35\": {\"O\": 1}, \"36\": {\"O\": 1}, \"37\": {\"O\": 1}, \"38\": {\"O\": 1}, \"39\": {\"O\": 1}}" n_minim_iter=7 energy=-45152.529930771394 stress="-0.07219702520672636 1.1320812387075256e-13 -9.042998014015021e-13 1.1320812387075256e-13 -0.07219702520715092 5.451239368219269e-13 -9.042998014015021e-13 5.451239368219269e-13 -0.07219702520852628" free_energy=-45152.529930771394 pbc="T T T"
In      -4.82305406       3.41041423       5.86243945        0      -0.00305577       0.00216075      -0.00374253
In       8.02629267       1.11964926       1.98386066        1       0.00305577      -0.00216075       0.00374253
In       1.61981545      -1.14538249       5.90701072        2       0.00305577      -0.00216075       0.00374253
In      -1.60161931      -2.26503174       3.92315006        3       0.00000000       0.00000000       0.00000000
In      -1.61981545       4.54293010       3.94543569        4      -0.00305577       0.00216075       0.00374253
In       4.78666177      -3.42328084       5.88472509        5      -0.00305577      -0.00432151       0.00000000
In      -1.61981545       1.10678264       5.88472509        6      -0.00305577      -0.00432151       0.00000000
In      -1.58342316       7.95334433       1.96157503        7       0.00305577       0.00432151       0.00000000
In       4.82305406      -0.01286661       3.90086442        8       0.00305577      -0.00216075      -0.00374253
In      -1.60161931       4.53006349      -0.00000000        9      -0.00000000       0.00000000       0.00000000
In       4.82305406       6.78222861      -0.02228564       10       0.00305577      -0.00216075      -0.00374253
In      -1.61981545      -2.25216512       7.86858575       11      -0.00305577       0.00216075       0.00374253
In       4.82305406       3.42328085       1.96157503       12       0.00305577       0.00432151      -0.00000000
In       1.58342316       5.67544598       1.93928939       13      -0.00305577       0.00216075      -0.00374253
In       4.80485791       0.00000000      -0.00000000       14      -0.00000000       0.00000000       0.00000000
In       1.60161930       2.26503174       3.92315006       15       0.00000000      -0.00000000       0.00000000
O        0.63119258       4.57297475       4.26230068       16      -0.00056589      -0.00207791      -0.00496793
O       -2.57204603       3.66980504       5.67798753       17      -0.00056589      -0.00326340       0.00428348
O       -0.56020479       2.24721846       0.29567965       18      -0.00522446       0.00003071      -0.00142208
O       -0.63119258      -0.81734718       2.09398810       19       0.00056589      -0.00534130      -0.00068444
O        4.31727405       5.51812140       1.79830844       20      -0.00288813       0.00452027       0.00073763
O        2.08920317       3.46671165       1.75483747       21       0.00288813       0.00162132       0.00428348
O        2.08920317       6.58147324       0.04347097       22       0.00288813       0.00289894      -0.00354585
O       -2.30543281       6.57418855       4.21882971       23      -0.00177044       0.00491543      -0.00142208
O        3.76344339       2.28284503       7.55062046       24       0.00522446      -0.00003071       0.00142208
O        5.50867142      -2.04412506       3.62747040       25       0.00177044      -0.00491543       0.00142208
O        6.96668200       3.64470707       2.12484161       26       0.00522446      -0.00121620      -0.00073763
O        4.10104441       2.63155118       3.96662103       27      -0.00177044      -0.00368927      -0.00354585
O        0.89780580       4.38445074       7.50714949       28      -0.00177044      -0.00122616       0.00496793
O        2.30543281       0.14561275       0.33915062       29       0.00177044       0.00122616      -0.00496793
O       -3.76344340       0.88535642       5.72145850       30      -0.00522446       0.00121620       0.00073763
O        5.77528464       0.86025845       2.16831258       31       0.00056589       0.00326340      -0.00428348
O        1.11403544       1.06335184       6.09146264       32      -0.00288813      -0.00162132      -0.00428348
O        3.76344340      -1.39748861       6.01713815       33       0.00522446       0.00124691      -0.00068444
O        2.57204603      -0.04291126       3.58399943       34       0.00056589       0.00207791       0.00496793
O        1.11403544      -2.05140975       7.80282915       35      -0.00288813      -0.00289894       0.00354585
O       -0.89780580       1.89851231       3.87967909       36       0.00177044       0.00368927       0.00354585
O       -1.11403544      -0.98805791       6.04799167       37       0.00288813      -0.00452027      -0.00073763
O       -0.56020479       5.92755210       1.82916196       38      -0.00522446      -0.00124691       0.00068444
O        3.83443119       5.34741067       5.75231202       39      -0.00056589       0.00534130       0.00068444
