40
Lattice="8.613005226036439 6.750628169957682e-10 -1.6222417476091363e-15 -2.8710017426486023 8.12041920207569 -1.1692527481332853e-09 -2.871001741693919 -4.060209600362774 7.0324893191560225" Properties=species:S:1:pos:R:3:spacegroup_kinds:I:1:forces:R:3 spacegroup="P 1" unit_cell=conventional occupancy="_JSON {\"0\": {\"In\": 1}, \"1\": {\"In\": 1}, \"2\": {\"In\": 1}, \"3\": {\"In\": 1}, \"4\": {\"In\": 1}, \"5\": {\"In\": 1}, \"6\": {\"In\": 1}, \"7\": {\"In\": 1}, \"8\": {\"In\": 1}, \"9\": {\"In\": 1}, \"10\": {\"In\": 1}, \"11\": {\"In\": 1}, \"12\": {\"In\": 1}, \"13\": {\"In\": 1}, \"14\": {\"In\": 1}, \"15\": {\"In\": 1}, \"16\": {\"O\": 1}, \"17\": {\"O\": 1}, \"18\": {\"O\": 1}, \"19\": {\"O\": 1}, \"20\": {\"O\": 1}, \"21\": {\"O\": 1}, \"22\": {\"O\": 1}, \"23\": {\"O\": 1}, \"24\": {\"O\": 1}, \"25\": {\"O\": 1}, \"26\": {\"O\": 1}, \"27\": {\"O\": 1}, \"28\": {\"O\": 1}, \"29\": {\"O\": 1}, \"30\": {\"O\": 1}, \"31\": {\"O\": 1}, \"32\": {\"O\": 1}, \"33\": {\"O\": 1}, \"34\": {\"O\": 1}, \"35\": {\"O\": 1}, \"36\": {\"O\": 1}, \"37\": {\"O\": 1}, \"38\": {\"O\": 1}, \"39\": {\"O\": 1}}" n_minim_iter=6 energy=-45150.02929057627 stress="-0.05434288801742463 1.5665772902228254e-12 3.0118058493526883e-12 1.5665772902228254e-12 -0.05434288801604586 2.4142275225951267e-13 3.0118058493526883e-12 2.4142275225951267e-13 -0.05434288801775579" free_energy=-45150.02929057627 pbc="T T T"
In      -4.11936423       2.91283038       5.50356377        0       0.00415759      -0.00293986       0.00509199
In       6.99036597       1.14737923       1.52892555        1      -0.00415759       0.00293986      -0.00509199
In       1.24836248      -0.88272557       5.04517021        2      -0.00415759       0.00293986      -0.00509199
In      -1.43550087      -2.03010480       3.51624466        3       0.00000000       0.00000000       0.00000000
In      -1.24836248       3.92788278       3.28704788        4       0.00415759      -0.00293986      -0.00509199
In       4.49364100      -2.78050355       5.27436699        5       0.00415759       0.00587972      -0.00000000
In      -1.24836248       1.27970605       5.27436699        6       0.00415759       0.00587972       0.00000000
In      -1.62263926       6.84071316       1.75812233        7      -0.00415759      -0.00587972      -0.00000000
In       4.11936422       0.13232683       3.74544144        8      -0.00415759       0.00293986       0.00509199
In      -1.43550087       4.06020960      -0.00000000        9       0.00000000      -0.00000000       0.00000000
In       4.11936422       6.22264123       0.22919678       10      -0.00415759       0.00293986       0.00509199
In      -1.24836248      -2.16243162       6.80329254       11       0.00415759      -0.00293986      -0.00509199
In       4.11936422       2.78050356       1.75812233       12      -0.00415759      -0.00587972       0.00000000
In       1.62263926       4.94293518       1.98731911       13       0.00415759      -0.00293986       0.00509199
In       4.30650261       0.00000000      -0.00000000       14       0.00000000       0.00000000      -0.00000000
In       1.43550087       2.03010480       3.51624466       15       0.00000000       0.00000000      -0.00000000
O        0.88511351       4.06815741       3.80281681       16       0.00369395       0.00498188       0.00280788
O       -1.98588823       3.28936207       5.12419790       17       0.00369395      -0.00005925      -0.00571837
O       -0.42423092       2.18510360       0.00434036       18       0.00587242      -0.00159966      -0.00305031
O       -0.88511352      -0.76289973       1.89452540       19      -0.00369395       0.00492263      -0.00291050
O        3.76320304       4.82561524       1.89018504       20      -0.00128718      -0.00668373       0.00013981
O        1.97880045       2.80596416       1.60795324       21       0.00128718      -0.00346294      -0.00571837
O        1.97880044       6.07986068       0.28223179       22       0.00128718      -0.00322079       0.00585819
O       -2.20154573       5.76191529       3.52058502       23       0.00346564      -0.00500335      -0.00305031
O        3.29523266       1.87510601       7.02814895       24      -0.00587242       0.00159966       0.00305031
O        5.07254747      -1.70170568       3.51190430       25      -0.00346564       0.00500335       0.00305031
O        6.16623440       3.12641546       1.62605962       26      -0.00587242      -0.00344147      -0.00013981
O        3.54045775       2.19806322       3.79847645       27       0.00346564      -0.00013997       0.00585819
O        0.66945601       4.22065030       6.74591716       28       0.00346564       0.00514332      -0.00280788
O        2.20154573      -0.16044069       0.28657215       29      -0.00346564      -0.00514332       0.00280788
O       -3.29523267       0.93379414       5.40642970       30       0.00587242       0.00344147       0.00013981
O        4.85688997       0.77084754       1.90829141       31      -0.00369395       0.00005925       0.00571837
O        0.89220129       1.25424545       5.42453607       32      -0.00128718       0.00346294       0.00571837
O        3.29523266      -0.94131186       5.41077006       33      -0.00587242       0.00184182      -0.00291050
O        1.98588823      -0.00794781       3.22967250       34      -0.00369395      -0.00498188      -0.00280788
O        0.89220129      -2.01965108       6.75025752       35      -0.00128718       0.00322079      -0.00585819
O       -0.66945601       1.86214638       3.23401286       36      -0.00346564       0.00013997      -0.00585819
O       -0.89220130      -0.76540563       5.14230428       37       0.00128718       0.00668373      -0.00013981
O       -0.42423092       5.00152147       1.62171925       38       0.00587242      -0.00184182       0.00291050
O        3.75611525       4.82310933       5.13796391       39       0.00369395      -0.00492263       0.00291050
