40
Lattice="8.76661068388939 6.870983781936963e-10 5.329070518200762e-15 -2.9222035619442677 8.265239816571794 -1.1901026830685183e-09 -2.9222035609725667 -4.132619907598789 7.157907650315213" Properties=species:S:1:pos:R:3:spacegroup_kinds:I:1:forces:R:3 spacegroup="P 1" unit_cell=conventional occupancy="_JSON {\"0\": {\"In\": 1}, \"1\": {\"In\": 1}, \"2\": {\"In\": 1}, \"3\": {\"In\": 1}, \"4\": {\"In\": 1}, \"5\": {\"In\": 1}, \"6\": {\"In\": 1}, \"7\": {\"In\": 1}, \"8\": {\"In\": 1}, \"9\": {\"In\": 1}, \"10\": {\"In\": 1}, \"11\": {\"In\": 1}, \"12\": {\"In\": 1}, \"13\": {\"In\": 1}, \"14\": {\"In\": 1}, \"15\": {\"In\": 1}, \"16\": {\"O\": 1}, \"17\": {\"O\": 1}, \"18\": {\"O\": 1}, \"19\": {\"O\": 1}, \"20\": {\"O\": 1}, \"21\": {\"O\": 1}, \"22\": {\"O\": 1}, \"23\": {\"O\": 1}, \"24\": {\"O\": 1}, \"25\": {\"O\": 1}, \"26\": {\"O\": 1}, \"27\": {\"O\": 1}, \"28\": {\"O\": 1}, \"29\": {\"O\": 1}, \"30\": {\"O\": 1}, \"31\": {\"O\": 1}, \"32\": {\"O\": 1}, \"33\": {\"O\": 1}, \"34\": {\"O\": 1}, \"35\": {\"O\": 1}, \"36\": {\"O\": 1}, \"37\": {\"O\": 1}, \"38\": {\"O\": 1}, \"39\": {\"O\": 1}}" n_minim_iter=5 energy=-45151.191664581485 stress="-0.05444120186417173 5.73375736772392e-13 -3.6912462744182994e-13 5.73375736772392e-13 -0.054441201863843006 2.7650435828210556e-13 -3.6912462744182994e-13 2.7650435828210556e-13 -0.05444120186444941" free_energy=-45151.191664581485 pbc="T T T"
In      -4.18710312       2.96072901       5.60872840        0       0.00134000      -0.00094752       0.00164116
In       7.10930668       1.17189090       1.54917925        1      -0.00134000       0.00094752      -0.00164116
In       1.26489956      -0.89441906       5.12813307        2      -0.00134000       0.00094752      -0.00164116
In      -1.46110178      -2.06630995       3.57895382        3      -0.00000000      -0.00000000       0.00000000
In      -1.26489956       3.99388399       3.33865616        4       0.00134000      -0.00094752      -0.00164116
In       4.57950756      -2.82199309       5.36843074        5       0.00134000       0.00189504      -0.00000000
In      -1.26489956       1.31062682       5.36843073        6       0.00134000       0.00189504      -0.00000000
In      -1.65730400       6.95461300       1.78947691        7      -0.00134000      -0.00189504      -0.00000000
In       4.18710312       0.13873592       3.81925148        8      -0.00134000       0.00094752       0.00164116
In      -1.46110178       4.13261991      -0.00000000        9      -0.00000000       0.00000000      -0.00000000
In       4.18710312       6.33766578       0.24029766       10      -0.00134000       0.00094752       0.00164116
In      -1.26489956      -2.20504587       6.91760999       11       0.00134000      -0.00094752      -0.00164116
In       4.18710312       2.82199309       1.78947691       12      -0.00134000      -0.00189504      -0.00000000
In       1.65730400       5.02703897       2.02977457       13       0.00134000      -0.00094752       0.00164116
In       4.38330534       0.00000000      -0.00000000       14      -0.00000000      -0.00000000      -0.00000000
In       1.46110178       2.06630996       3.57895382       15       0.00000000       0.00000000      -0.00000000
O        0.85275759       4.13000914       3.90198751       16      -0.00161077       0.00840728       0.00181041
O       -2.06944597       3.38052570       5.20917488       17      -0.00161077      -0.00263578      -0.00818612
O       -0.42729015       2.21934618       0.06248916       18       0.00490450      -0.00724277      -0.00020658
O       -0.85275759      -0.75470498       1.95325475       19       0.00161077       0.00577150      -0.00637571
O        3.87700552       4.92340302       1.89076559       20      -0.00194811      -0.00589077      -0.00616913
O        1.96740160       2.89056043       1.63022106       21       0.00194811       0.00239724      -0.00818612
O        1.96740160       6.16546250       0.26054453       22       0.00194811      -0.00828800       0.00201699
O       -2.23484970       5.86200082       3.64144298       23       0.00846338      -0.00220975      -0.00020658
O        3.34949371       1.91327373       7.09541849       24      -0.00490450       0.00724277       0.00020658
O        5.15705325      -1.72938091       3.51646466       25      -0.00846338       0.00220975       0.00020658
O        6.27169727       3.23010025       1.68818823       26      -0.00490450      -0.00380029       0.00616913
O        3.60955743       2.28889168       3.83949836       27       0.00846338       0.00092597       0.00201699
O        0.68735387       4.24696723       6.83487395       28       0.00846338       0.00128378      -0.00181041
O        2.23484969      -0.11434732       0.32303369       29      -0.00846338      -0.00128378       0.00181041
O       -3.34949371       0.90251967       5.46971941       30       0.00490450       0.00380029      -0.00616913
O        4.99164953       0.75209421       1.94873276       31       0.00161077       0.00263578       0.00818612
O        0.95480196       1.24205948       5.52768659       32      -0.00194811      -0.00239724       0.00818612
O        3.34949371      -1.01075406       5.53220857       33      -0.00490450      -0.00344248      -0.00637571
O        2.06944597       0.00261077       3.25592013       34       0.00161077      -0.00840728      -0.00181041
O        0.95480196      -2.03284259       6.89736311       35      -0.00194811       0.00828800      -0.00201699
O       -0.68735387       1.84372823       3.31840929       36      -0.00846338      -0.00092597      -0.00201699
O       -0.95480196      -0.79078311       5.26714206       37       0.00194811       0.00589077       0.00616913
O       -0.42729015       5.14337397       1.62569907       38       0.00490450       0.00344248       0.00637571
O        3.77496115       4.88732489       5.20465290       39      -0.00161077      -0.00577150       0.00637571
