40
Lattice="8.610030471682164 6.748269341875808e-10 7.92093261136099e-15 -2.870010157863619 8.11761457677407 -1.1688515406918607e-09 -2.8700101569092764 -4.058807287712195 7.030060442396445" Properties=species:S:1:pos:R:3:spacegroup_kinds:I:1:forces:R:3 spacegroup="P 1" unit_cell=conventional occupancy="_JSON {\"0\": {\"In\": 1}, \"1\": {\"In\": 1}, \"2\": {\"In\": 1}, \"3\": {\"In\": 1}, \"4\": {\"In\": 1}, \"5\": {\"In\": 1}, \"6\": {\"In\": 1}, \"7\": {\"In\": 1}, \"8\": {\"In\": 1}, \"9\": {\"In\": 1}, \"10\": {\"In\": 1}, \"11\": {\"In\": 1}, \"12\": {\"In\": 1}, \"13\": {\"In\": 1}, \"14\": {\"In\": 1}, \"15\": {\"In\": 1}, \"16\": {\"O\": 1}, \"17\": {\"O\": 1}, \"18\": {\"O\": 1}, \"19\": {\"O\": 1}, \"20\": {\"O\": 1}, \"21\": {\"O\": 1}, \"22\": {\"O\": 1}, \"23\": {\"O\": 1}, \"24\": {\"O\": 1}, \"25\": {\"O\": 1}, \"26\": {\"O\": 1}, \"27\": {\"O\": 1}, \"28\": {\"O\": 1}, \"29\": {\"O\": 1}, \"30\": {\"O\": 1}, \"31\": {\"O\": 1}, \"32\": {\"O\": 1}, \"33\": {\"O\": 1}, \"34\": {\"O\": 1}, \"35\": {\"O\": 1}, \"36\": {\"O\": 1}, \"37\": {\"O\": 1}, \"38\": {\"O\": 1}, \"39\": {\"O\": 1}}" n_minim_iter=5 energy=-45150.240599018434 stress="-0.08573717751997914 -1.3124814167324952e-14 4.595747939718551e-13 -1.3124814167324952e-14 -0.0857371775181765 5.440862033836542e-14 4.595747939718551e-13 5.440862033836542e-14 -0.08573717751899086" free_energy=-45150.240599018434 pbc="T T T"
In      -4.10970571       2.90600078       5.51174967        0       0.00350892      -0.00248118       0.00429753
In       6.97971586       1.15280652       1.51831077        1      -0.00350892       0.00248118      -0.00429753
In       1.23969555      -0.87659713       5.03334099        2      -0.00350892       0.00248118      -0.00429753
In      -1.43500508      -2.02940364       3.51503022        3       0.00000000      -0.00000000       0.00000000
In      -1.23969555       3.92070260       3.27582588        4       0.00350892      -0.00248118      -0.00429753
In       4.50032476      -2.76789608       5.27254533        5       0.00350892       0.00496236       0.00000000
In      -1.23969555       1.29091121       5.27254533        6       0.00350892       0.00496236       0.00000000
In      -1.63031461       6.82670337       1.75751511        7      -0.00350892      -0.00496236      -0.00000000
In       4.10970571       0.13810469       3.75423456        8      -0.00350892       0.00248118       0.00429753
In      -1.43500508       4.05880729      -0.00000000        9      -0.00000000       0.00000000      -0.00000000
In       4.10970571       6.22631563       0.23920434       10      -0.00350892       0.00248118       0.00429753
In      -1.23969555      -2.16750833       6.79085610       11       0.00350892      -0.00248118      -0.00429753
In       4.10970571       2.76789609       1.75751511       12      -0.00350892      -0.00496236       0.00000000
In       1.63031460       4.93540442       1.99671945       13       0.00350892      -0.00248118       0.00429753
In       4.30501523       0.00000000      -0.00000000       14      -0.00000000       0.00000000      -0.00000000
In       1.43500508       2.02940365       3.51503022       15       0.00000000      -0.00000000       0.00000000
O        0.83064449       4.05502031       3.84193006       16       0.00277638       0.00382398       0.00081226
O       -2.03936567       3.32910253       5.11237503       17       0.00277638      -0.00120855      -0.00371779
O       -0.41466116       2.18026295       0.07216311       18       0.00339131      -0.00164337      -0.00296466
O       -0.83064449      -0.73349175       1.92424465       19      -0.00277638       0.00261543      -0.00290553
O        3.81849652       4.83396243       1.85208154       20      -0.00206489      -0.00432707       0.00005913
O        1.92152379       2.84243520       1.59734481       21       0.00206489      -0.00221474      -0.00371779
O        1.92152379       6.05033453       0.25473672       22       0.00206489      -0.00211233       0.00377692
O       -2.19379201       5.75240291       3.58719333       23       0.00267982      -0.00264956      -0.00296466
O        3.28467131       1.87854434       6.95789732       24      -0.00339131       0.00164337       0.00296466
O        5.06380216      -1.69359561       3.44286710       25      -0.00267982       0.00264956       0.00296466
O        6.15468147       3.18203021       1.66294868       26      -0.00339131      -0.00338916      -0.00005913
O        3.54622831       2.25980275       3.76976695       27       0.00267982      -0.00124269       0.00377692
O        0.67621815       4.16421621       6.70316060       28       0.00267982       0.00389225      -0.00081226
O        2.19379200      -0.10540892       0.32689984       29      -0.00267982      -0.00389225       0.00081226
O       -3.28467131       0.87677708       5.36711176       30       0.00339131       0.00338916       0.00005913
O        4.90937582       0.72970476       1.91768540       31      -0.00277638       0.00120855       0.00371779
O        0.94848636       1.21637210       5.43271562       32      -0.00206489       0.00221474       0.00371779
O        3.28467131      -1.00176726       5.43927488       33      -0.00339131       0.00174579      -0.00290553
O        2.03936567       0.00378699       3.18813038       34      -0.00277638      -0.00382398      -0.00081226
O        0.94848636      -1.99152723       6.77532371       35      -0.00206489       0.00211233      -0.00377692
O       -0.67621815       1.79900454       3.26029349       36      -0.00267982       0.00124269      -0.00377692
O       -0.94848636      -0.77515514       5.17797890       37       0.00206489       0.00432707      -0.00005913
O       -0.41466116       5.06057455       1.59078556       38       0.00339131      -0.00174579       0.00290553
O        3.70065464       4.79229904       5.10581578       39       0.00277638      -0.00261543       0.00290553
