40
Lattice="9.477847050132299 7.428471171522233e-10 3.2862601528904634e-14 -3.159282350744465 8.935799893349001 -1.2866836485159183e-09 -3.1592823496939433 -4.467899945931633 7.7386297116322815" Properties=species:S:1:pos:R:3:spacegroup_kinds:I:1:forces:R:3 spacegroup="P 1" unit_cell=conventional occupancy="_JSON {\"0\": {\"In\": 1}, \"1\": {\"In\": 1}, \"2\": {\"In\": 1}, \"3\": {\"In\": 1}, \"4\": {\"In\": 1}, \"5\": {\"In\": 1}, \"6\": {\"In\": 1}, \"7\": {\"In\": 1}, \"8\": {\"In\": 1}, \"9\": {\"In\": 1}, \"10\": {\"In\": 1}, \"11\": {\"In\": 1}, \"12\": {\"In\": 1}, \"13\": {\"In\": 1}, \"14\": {\"In\": 1}, \"15\": {\"In\": 1}, \"16\": {\"O\": 1}, \"17\": {\"O\": 1}, \"18\": {\"O\": 1}, \"19\": {\"O\": 1}, \"20\": {\"O\": 1}, \"21\": {\"O\": 1}, \"22\": {\"O\": 1}, \"23\": {\"O\": 1}, \"24\": {\"O\": 1}, \"25\": {\"O\": 1}, \"26\": {\"O\": 1}, \"27\": {\"O\": 1}, \"28\": {\"O\": 1}, \"29\": {\"O\": 1}, \"30\": {\"O\": 1}, \"31\": {\"O\": 1}, \"32\": {\"O\": 1}, \"33\": {\"O\": 1}, \"34\": {\"O\": 1}, \"35\": {\"O\": 1}, \"36\": {\"O\": 1}, \"37\": {\"O\": 1}, \"38\": {\"O\": 1}, \"39\": {\"O\": 1}}" n_minim_iter=1 energy=-45146.15981154213 stress="0.10259837597872226 4.2289657536229616e-13 6.588084973399035e-14 4.2289657536229616e-13 0.10259837597791205 4.906100669850386e-13 6.588084973399035e-14 4.906100669850386e-13 0.10259837597670156" free_energy=-45146.15981154213 pbc="T T T"
In      -4.46124149       3.15457411       6.14406193        0       0.07926968      -0.05605213       0.09708513
In       7.62052384       1.31332584       1.59456778        1      -0.07926968       0.05605213      -0.09708513
In       1.30195914      -0.92062413       5.46388263        2      -0.07926968       0.05605213      -0.09708513
In      -1.57964118      -2.23394997       3.86931485        3      -0.00000000       0.00000000      -0.00000000
In      -1.30195914       4.27154910       3.52922520        4       0.07926968      -0.05605213      -0.09708513
In       5.01660556      -2.95822326       5.80397228        5       0.07926968       0.11210425      -0.00000000
In      -1.30195914       1.50967669       5.80397228        6       0.07926968       0.11210425      -0.00000000
In      -1.85732321       7.42612321       1.93465742        7      -0.07926968      -0.11210425       0.00000000
In       4.46124149       0.19635085       4.20940450        8      -0.07926968       0.05605213       0.09708513
In      -1.57964118       4.46789995      -0.00000000        9       0.00000000       0.00000000      -0.00000000
In       4.46124149       6.89820077       0.34008964       10      -0.07926968       0.05605213       0.09708513
In      -1.30195914      -2.43030082       7.39854006       11       0.07926968      -0.05605213      -0.09708513
In       4.46124149       2.95822326       1.93465742       12      -0.07926968      -0.11210425       0.00000000
In       1.85732321       5.38852409       2.27474707       13       0.07926968      -0.05605213       0.09708513
In       4.73892352       0.00000000      -0.00000000       14      -0.00000000       0.00000000      -0.00000000
In       1.57964117       2.23394998       3.86931485       15       0.00000000       0.00000000       0.00000000
O        1.03167970       4.47222538       4.16961305       16       0.04278613      -0.00677295      -0.06061263
O       -2.12760265       3.60882811       5.65007725       17       0.04278613      -0.04910560       0.03617186
O       -0.46196940       2.43104755      -0.04857669       18      -0.03842076       0.00831634      -0.06328586
O       -1.03167971      -0.85474640       2.08106059       19      -0.04278613      -0.05587855      -0.02444077
O        4.11163665       5.29460059       2.12963728       20      -0.06055925       0.01934044       0.03884509
O        2.20692805       3.03693028       1.78076239       21       0.06055925      -0.02397061       0.03617186
O        2.20692805       6.72557025       0.34887488       22       0.06055925       0.04331105       0.00267323
O       -2.44600341       6.32704967       3.82073816       23      -0.02064764       0.03345132      -0.06328586
O        3.62125175       2.03685240       7.78720640       24       0.03842076      -0.00831634       0.06328586
O        5.60528576      -1.85914972       3.91789154       25       0.02064764      -0.03345132       0.06328586
O        6.78053410       3.40740510       1.73967757       26       0.03842076      -0.05064899      -0.03884509
O        3.87256129       2.37928146       4.21818974       27      -0.02064764      -0.07153283       0.00267323
O        0.71327894       4.69736873       7.43833151       28      -0.02064764       0.03808150       0.06061263
O        2.44600341      -0.22946877       0.30029819       29       0.02064764      -0.03808150      -0.06061263
O       -3.62125175       1.06049485       5.99895213       30      -0.03842076       0.05064899       0.03884509
O        5.28688499       0.85907184       2.08855246       31      -0.04278613       0.04910560      -0.03617186
O        0.95235430       1.43096967       5.95786731       32      -0.06055925       0.02397061      -0.03617186
O        3.62125175      -0.97635755       5.95037544       33       0.03842076       0.05896533      -0.02444077
O        2.12760264      -0.00432543       3.56901666       34      -0.04278613       0.00677295       0.06061263
O        0.95235430      -2.25767030       7.38975482       35      -0.06055925      -0.04331105      -0.00267323
O       -0.71327894       2.08861850       3.52043997       36       0.02064764       0.07153283      -0.00267323
O       -0.95235430      -0.82670063       5.60899243       37       0.06055925      -0.01934044      -0.03884509
O       -0.46196940       5.44425750       1.78825426       38      -0.03842076      -0.05896533       0.02444077
O        4.19096205       5.32264635       5.65756912       39       0.04278613       0.05587855       0.02444077
40
Lattice="9.47784705013231 7.428471171522237e-10 3.2862601528904615e-14 -3.159282350744467 8.935799893349005 -1.2866836485159196e-09 -3.159282349693945 -4.467899945931634 7.738629711632289" Properties=species:S:1:pos:R:3:spacegroup_kinds:I:1:forces:R:3 spacegroup="P 1" unit_cell=conventional occupancy="_JSON {\"0\": {\"In\": 1}, \"1\": {\"In\": 1}, \"2\": {\"In\": 1}, \"3\": {\"In\": 1}, \"4\": {\"In\": 1}, \"5\": {\"In\": 1}, \"6\": {\"In\": 1}, \"7\": {\"In\": 1}, \"8\": {\"In\": 1}, \"9\": {\"In\": 1}, \"10\": {\"In\": 1}, \"11\": {\"In\": 1}, \"12\": {\"In\": 1}, \"13\": {\"In\": 1}, \"14\": {\"In\": 1}, \"15\": {\"In\": 1}, \"16\": {\"O\": 1}, \"17\": {\"O\": 1}, \"18\": {\"O\": 1}, \"19\": {\"O\": 1}, \"20\": {\"O\": 1}, \"21\": {\"O\": 1}, \"22\": {\"O\": 1}, \"23\": {\"O\": 1}, \"24\": {\"O\": 1}, \"25\": {\"O\": 1}, \"26\": {\"O\": 1}, \"27\": {\"O\": 1}, \"28\": {\"O\": 1}, \"29\": {\"O\": 1}, \"30\": {\"O\": 1}, \"31\": {\"O\": 1}, \"32\": {\"O\": 1}, \"33\": {\"O\": 1}, \"34\": {\"O\": 1}, \"35\": {\"O\": 1}, \"36\": {\"O\": 1}, \"37\": {\"O\": 1}, \"38\": {\"O\": 1}, \"39\": {\"O\": 1}}" n_minim_iter=2 energy=-45146.186405172615 stress="0.09864376143307861 -8.677981086230067e-14 -6.097773996145048e-13 -8.677981086230067e-14 0.09864376143420725 6.782806257614656e-13 -6.097773996145048e-13 6.782806257614656e-13 0.09864376143415458" free_energy=-45146.186405172615 pbc="T T T"
In      -4.44938594       3.14619097       6.15858195        0       0.00182528      -0.00129067       0.00223550
In       7.60866829       1.32170898       1.58004776        1      -0.00182528       0.00129067      -0.00223550
In       1.29010359      -0.91224100       5.44936261        2      -0.00182528       0.00129067      -0.00223550
In      -1.57964118      -2.23394997       3.86931485        3      -0.00000000       0.00000000       0.00000000
In      -1.29010359       4.26316596       3.51470518        4       0.00182528      -0.00129067      -0.00223550
In       5.02846111      -2.94145698       5.80397228        5       0.00182528       0.00258134       0.00000000
In      -1.29010359       1.52644297       5.80397228        6       0.00182528       0.00258134       0.00000000
In      -1.86917876       7.40935693       1.93465742        7      -0.00182528      -0.00258134       0.00000000
In       4.44938594       0.20473399       4.22392452        8      -0.00182528       0.00129067       0.00223550
In      -1.57964118       4.46789995      -0.00000000        9       0.00000000      -0.00000000      -0.00000000
In       4.44938594       6.90658391       0.35460967       10      -0.00182528       0.00129067       0.00223550
In      -1.29010359      -2.43868396       7.38402004       11       0.00182528      -0.00129067      -0.00223550
In       4.44938594       2.94145699       1.93465742       12      -0.00182528      -0.00258134      -0.00000000
In       1.86917876       5.38014095       2.28926709       13       0.00182528      -0.00129067       0.00223550
In       4.73892352       0.00000000      -0.00000000       14       0.00000000       0.00000000      -0.00000000
In       1.57964117       2.23394998       3.86931485       15       0.00000000      -0.00000000       0.00000000
O        1.03807878       4.47121242       4.16054784       16       0.02215997      -0.02782199       0.03051083
O       -2.12120357       3.60148389       5.65548710       17       0.02215997       0.04033415       0.00883914
O       -0.46771560       2.43229134      -0.05804171       18       0.01918323       0.04243902       0.00519339
O       -1.03807879      -0.86310358       2.07740523       19      -0.02215997       0.01251215       0.03934997
O        4.10257943       5.29749314       2.13544694       20       0.03064074      -0.00951375       0.03415658
O        2.21598527       3.03334524       1.78617224       21      -0.03064074      -0.03433734       0.00883914
O        2.21598527       6.73204784       0.34927469       22      -0.03064074       0.02482359       0.02531744
O       -2.44909147       6.33205264       3.81127315       23      -0.03361748      -0.03223246       0.00519339
O        3.62699795       2.03560861       7.79667141       24      -0.01918323      -0.04243902      -0.00519339
O        5.60837381      -1.86415269       3.92735656       25       0.03361748       0.03223246      -0.00519339
O        6.78628030       3.39983005       1.73386791       26      -0.01918323       0.02571712      -0.03415658
O        3.86947323       2.36858303       4.21858955       27      -0.03361748       0.02061384       0.02531744
O        0.71019088       4.70306418       7.44739672       28      -0.03361748       0.01161862      -0.03051083
O        2.44909146      -0.23516423       0.29123299       29       0.03361748      -0.01161862       0.03051083
O       -3.62699795       1.06806990       6.00476179       30       0.01918323      -0.02571712       0.03415658
O        5.28048591       0.86641606       2.08314261       31      -0.02215997      -0.04033415      -0.00883914
O        0.94329708       1.43455471       5.95245746       32       0.03064074       0.03433734      -0.00883914
O        3.62699795      -0.96753871       5.94672009       33      -0.01918323       0.01672190       0.03934997
O        2.12120356      -0.00331247       3.57808186       34      -0.02215997       0.02782199      -0.03051083
O        0.94329708      -2.26414789       7.38935501       35       0.03064074      -0.02482359      -0.02531744
O       -0.71019089       2.09931692       3.52004016       36       0.03361748      -0.02061384      -0.02531744
O       -0.94329708      -0.82959319       5.60318277       37      -0.03064074       0.00951375      -0.03415658
O       -0.46771560       5.43543866       1.79190962       38       0.01918323      -0.01672190      -0.03934997
O        4.19736113       5.33100353       5.66122447       39       0.02215997      -0.01251215      -0.03934997
40
Lattice="9.477847050132311 7.428471171522241e-10 3.28626015289046e-14 -3.159282350744468 8.93579989334901 -1.2866836485159191e-09 -3.159282349693946 -4.467899945931637 7.7386297116322895" Properties=species:S:1:pos:R:3:spacegroup_kinds:I:1:forces:R:3 spacegroup="P 1" unit_cell=conventional occupancy="_JSON {\"0\": {\"In\": 1}, \"1\": {\"In\": 1}, \"2\": {\"In\": 1}, \"3\": {\"In\": 1}, \"4\": {\"In\": 1}, \"5\": {\"In\": 1}, \"6\": {\"In\": 1}, \"7\": {\"In\": 1}, \"8\": {\"In\": 1}, \"9\": {\"In\": 1}, \"10\": {\"In\": 1}, \"11\": {\"In\": 1}, \"12\": {\"In\": 1}, \"13\": {\"In\": 1}, \"14\": {\"In\": 1}, \"15\": {\"In\": 1}, \"16\": {\"O\": 1}, \"17\": {\"O\": 1}, \"18\": {\"O\": 1}, \"19\": {\"O\": 1}, \"20\": {\"O\": 1}, \"21\": {\"O\": 1}, \"22\": {\"O\": 1}, \"23\": {\"O\": 1}, \"24\": {\"O\": 1}, \"25\": {\"O\": 1}, \"26\": {\"O\": 1}, \"27\": {\"O\": 1}, \"28\": {\"O\": 1}, \"29\": {\"O\": 1}, \"30\": {\"O\": 1}, \"31\": {\"O\": 1}, \"32\": {\"O\": 1}, \"33\": {\"O\": 1}, \"34\": {\"O\": 1}, \"35\": {\"O\": 1}, \"36\": {\"O\": 1}, \"37\": {\"O\": 1}, \"38\": {\"O\": 1}, \"39\": {\"O\": 1}}" n_minim_iter=3 energy=-45146.18845087167 stress="0.09905580707374509 4.018368468865086e-15 -4.007501321402154e-13 4.018368468865086e-15 0.0990558070723934 6.516330329551608e-13 -4.007501321402154e-13 6.516330329551608e-13 0.09905580707187231" free_energy=-45146.18845087167 pbc="T T T"
In      -4.45020377       3.14676926       6.15758032        0       0.01147981      -0.00811745       0.01405984
In       7.60948612       1.32113069       1.58104938        1      -0.01147981       0.00811745      -0.01405984
In       1.29092142      -0.91281929       5.45036424        2      -0.01147981       0.00811745      -0.01405984
In      -1.57964118      -2.23394997       3.86931485        3      -0.00000000       0.00000000       0.00000000
In      -1.29092142       4.26374425       3.51570681        4       0.01147981      -0.00811745      -0.01405984
In       5.02764328      -2.94261356       5.80397228        5       0.01147981       0.01623491      -0.00000000
In      -1.29092142       1.52528639       5.80397228        6       0.01147981       0.01623491      -0.00000000
In      -1.86836093       7.41051351       1.93465742        7      -0.01147981      -0.01623491       0.00000000
In       4.45020377       0.20415570       4.22292289        8      -0.01147981       0.00811745       0.01405984
In      -1.57964118       4.46789995      -0.00000000        9      -0.00000000       0.00000000      -0.00000000
In       4.45020377       6.90600562       0.35360804       10      -0.01147981       0.00811745       0.01405984
In      -1.29092142      -2.43810567       7.38502167       11       0.01147981      -0.00811745      -0.01405984
In       4.45020377       2.94261357       1.93465742       12      -0.01147981      -0.01623491       0.00000000
In       1.86836093       5.38071924       2.28826547       13       0.01147981      -0.00811745       0.01405984
In       4.73892352       0.00000000      -0.00000000       14      -0.00000000       0.00000000       0.00000000
In       1.57964117       2.23394998       3.86931485       15       0.00000000       0.00000000      -0.00000000
O        1.03910138       4.46936947       4.16337920       16       0.02059187       0.00036796       0.00225850
O       -2.12018097       3.60485739       5.65566746       17       0.02059187       0.00177194      -0.00144791
O       -0.46593172       2.43512653      -0.05692896       18       0.00888147       0.01005244      -0.01579016
O       -1.03910138      -0.86157303       2.08041695       19      -0.02059187       0.00213990       0.00081059
O        4.10541913       5.29660503       2.13734591       20      -0.00519336      -0.01125635       0.01660075
O        2.21314557       3.03125663       1.78635261       21       0.00519336      -0.02000485      -0.00144791
O        2.21314557       6.73324835       0.35099330       22       0.00519336       0.00874850       0.01804866
O       -2.45116988       6.32942571       3.81238589       23      -0.00651705      -0.01172435      -0.01579016
O        3.62521406       2.03277342       7.79555867       24      -0.00888147      -0.01005244       0.01579016
O        5.61045223      -1.86152576       3.92624381       25       0.00651705       0.01172435       0.01579016
O        6.78449641       3.40221131       1.73196894       26      -0.00888147      -0.00864846      -0.01660075
O        3.86739482       2.37086015       4.22030816       27      -0.00651705      -0.00781251       0.01804866
O        0.70811247       4.70341398       7.44456536       28      -0.00651705       0.01953686      -0.00225850
O        2.45116988      -0.23551403       0.29406434       29       0.00651705      -0.01953686       0.00225850
O       -3.62521407       1.06568864       6.00666077       30       0.00888147       0.00864846       0.01660075
O        5.27946331       0.86304256       2.08296224       31      -0.02059187      -0.00177194       0.00144791
O        0.94613678       1.43664332       5.95227710       32      -0.00519336       0.02000485       0.00144791
O        3.62521407      -0.96708478       5.94973181       33      -0.00888147       0.01870090       0.00081059
O        2.12018097      -0.00146952       3.57525051       34      -0.02059187      -0.00036796      -0.00225850
O        0.94613678      -2.26534840       7.38763640       35      -0.00519336      -0.00874850      -0.01804866
O       -0.70811247       2.09703980       3.51832155       36       0.00651705       0.00781251      -0.01804866
O       -0.94613678      -0.82870508       5.60128379       37       0.00519336       0.01125635      -0.01660075
O       -0.46593172       5.43498473       1.78889790       38       0.00888147      -0.01870090      -0.00081059
O        4.19838373       5.32947298       5.65821275       39       0.02059187      -0.00213990      -0.00081059
40
Lattice="9.477847050132315 7.428471171522248e-10 3.28626015289046e-14 -3.15928235074447 8.935799893349019 -1.2866836485159198e-09 -3.159282349693948 -4.4678999459316415 7.738629711632294" Properties=species:S:1:pos:R:3:spacegroup_kinds:I:1:forces:R:3 spacegroup="P 1" unit_cell=conventional occupancy="_JSON {\"0\": {\"In\": 1}, \"1\": {\"In\": 1}, \"2\": {\"In\": 1}, \"3\": {\"In\": 1}, \"4\": {\"In\": 1}, \"5\": {\"In\": 1}, \"6\": {\"In\": 1}, \"7\": {\"In\": 1}, \"8\": {\"In\": 1}, \"9\": {\"In\": 1}, \"10\": {\"In\": 1}, \"11\": {\"In\": 1}, \"12\": {\"In\": 1}, \"13\": {\"In\": 1}, \"14\": {\"In\": 1}, \"15\": {\"In\": 1}, \"16\": {\"O\": 1}, \"17\": {\"O\": 1}, \"18\": {\"O\": 1}, \"19\": {\"O\": 1}, \"20\": {\"O\": 1}, \"21\": {\"O\": 1}, \"22\": {\"O\": 1}, \"23\": {\"O\": 1}, \"24\": {\"O\": 1}, \"25\": {\"O\": 1}, \"26\": {\"O\": 1}, \"27\": {\"O\": 1}, \"28\": {\"O\": 1}, \"29\": {\"O\": 1}, \"30\": {\"O\": 1}, \"31\": {\"O\": 1}, \"32\": {\"O\": 1}, \"33\": {\"O\": 1}, \"34\": {\"O\": 1}, \"35\": {\"O\": 1}, \"36\": {\"O\": 1}, \"37\": {\"O\": 1}, \"38\": {\"O\": 1}, \"39\": {\"O\": 1}}" n_minim_iter=4 energy=-45146.18946862057 stress="0.09863000743747166 6.096903406814574e-14 1.0055736026666524e-12 6.096903406814574e-14 0.0986300074387706 -8.1747819354428e-14 1.0055736026666524e-12 -8.1747819354428e-14 0.09863000743875301" free_energy=-45146.18946862057 pbc="T T T"
In      -4.44872668       3.14572480       6.15938938        0       0.00324317      -0.00229327       0.00397206
In       7.60800903       1.32217515       1.57924033        1      -0.00324317       0.00229327      -0.00397206
In       1.28944433      -0.91177483       5.44855518        2      -0.00324317       0.00229327      -0.00397206
In      -1.57964118      -2.23394997       3.86931485        3       0.00000000      -0.00000000       0.00000000
In      -1.28944433       4.26269979       3.51389775        4       0.00324317      -0.00229327      -0.00397206
In       5.02912037      -2.94052464       5.80397228        5       0.00324317       0.00458654      -0.00000000
In      -1.28944433       1.52737530       5.80397228        6       0.00324317       0.00458654      -0.00000000
In      -1.86983802       7.40842459       1.93465742        7      -0.00324317      -0.00458654      -0.00000000
In       4.44872668       0.20520016       4.22473195        8      -0.00324317       0.00229327       0.00397206
In      -1.57964118       4.46789995      -0.00000000        9       0.00000000       0.00000000       0.00000000
In       4.44872668       6.90705008       0.35541710       10      -0.00324317       0.00229327       0.00397206
In      -1.28944433      -2.43915013       7.38321261       11       0.00324317      -0.00229327      -0.00397206
In       4.44872668       2.94052465       1.93465742       12      -0.00324317      -0.00458654       0.00000000
In       1.86983802       5.37967478       2.29007452       13       0.00324317      -0.00229327       0.00397206
In       4.73892352       0.00000000      -0.00000000       14       0.00000000       0.00000000      -0.00000000
In       1.57964117       2.23394998       3.86931485       15      -0.00000000      -0.00000000      -0.00000000
O        1.04082102       4.46835124       4.16347410       16       0.01560430       0.00992630       0.00220184
O       -2.11846133       3.60544870       5.65650183       17       0.01560429      -0.00305630      -0.00969735
O       -0.46576102       2.43681310      -0.05799165       18       0.01167853      -0.00028036      -0.01450541
O       -1.04082102      -0.86199996       2.08134622       19      -0.01560430       0.00687000      -0.00749551
O        4.10540341       5.29641842       2.13933787       20      -0.00808294      -0.01524470       0.00700990
O        2.21316129       3.02943824       1.78718697       21       0.00808294      -0.01369310      -0.00969735
O        2.21316129       6.73488013       0.35215089       22       0.00808294      -0.00155160       0.01670725
O       -2.45270310       6.32870259       3.81132321       23       0.00415717      -0.01091717      -0.01450541
O        3.62504337       2.03108685       7.79662135       24      -0.01167853       0.00028036       0.01450541
O        5.61198544      -1.86080264       3.92730650       25      -0.00415717       0.01091717       0.01450541
O        6.78432572       3.40213429       1.72997698       26      -0.01167853      -0.01270223      -0.00700990
O        3.86586160       2.37030140       4.22146575       27       0.00415717      -0.00710347       0.01670725
O        0.70657925       4.70469586       7.44447046       28       0.00415717       0.01802064      -0.00220184
O        2.45270309      -0.23679590       0.29415925       29      -0.00415717      -0.01802064       0.00220184
O       -3.62504337       1.06576566       6.00865273       30       0.01167853       0.01270223       0.00700990
O        5.27774368       0.86245125       2.08212788       31      -0.01560430       0.00305630       0.00969735
O        0.94612106       1.43846171       5.95144273       32      -0.00808294       0.01369310       0.00969735
O        3.62504337      -0.96532118       5.95066108       33      -0.01167853       0.01242187      -0.00749551
O        2.11846133      -0.00045128       3.57515560       34      -0.01560430      -0.00992630      -0.00220184
O        0.94612106      -2.26698018       7.38647881       35      -0.00808294       0.00155160      -0.01670725
O       -0.70657926       2.09759855       3.51716396       36      -0.00415717       0.00710347      -0.01670725
O       -0.94612106      -0.82851847       5.59929184       37       0.00808294       0.01524470      -0.00700990
O       -0.46576102       5.43322113       1.78796863       38       0.01167853      -0.01242187       0.00749551
O        4.20010337       5.32989991       5.65728348       39       0.01560429      -0.00687000       0.00749551
40
Lattice="9.47784705013232 7.428471171522252e-10 3.286260152890459e-14 -3.1592823507444714 8.935799893349023 -1.2866836485159204e-09 -3.1592823496939495 -4.467899945931643 7.7386297116322975" Properties=species:S:1:pos:R:3:spacegroup_kinds:I:1:forces:R:3 spacegroup="P 1" unit_cell=conventional occupancy="_JSON {\"0\": {\"In\": 1}, \"1\": {\"In\": 1}, \"2\": {\"In\": 1}, \"3\": {\"In\": 1}, \"4\": {\"In\": 1}, \"5\": {\"In\": 1}, \"6\": {\"In\": 1}, \"7\": {\"In\": 1}, \"8\": {\"In\": 1}, \"9\": {\"In\": 1}, \"10\": {\"In\": 1}, \"11\": {\"In\": 1}, \"12\": {\"In\": 1}, \"13\": {\"In\": 1}, \"14\": {\"In\": 1}, \"15\": {\"In\": 1}, \"16\": {\"O\": 1}, \"17\": {\"O\": 1}, \"18\": {\"O\": 1}, \"19\": {\"O\": 1}, \"20\": {\"O\": 1}, \"21\": {\"O\": 1}, \"22\": {\"O\": 1}, \"23\": {\"O\": 1}, \"24\": {\"O\": 1}, \"25\": {\"O\": 1}, \"26\": {\"O\": 1}, \"27\": {\"O\": 1}, \"28\": {\"O\": 1}, \"29\": {\"O\": 1}, \"30\": {\"O\": 1}, \"31\": {\"O\": 1}, \"32\": {\"O\": 1}, \"33\": {\"O\": 1}, \"34\": {\"O\": 1}, \"35\": {\"O\": 1}, \"36\": {\"O\": 1}, \"37\": {\"O\": 1}, \"38\": {\"O\": 1}, \"39\": {\"O\": 1}}" n_minim_iter=5 energy=-45146.18980044577 stress="0.09832260828324273 3.044348086424628e-13 7.60660104100212e-13 3.044348086424628e-13 0.09832260828427035 -2.306034974475014e-13 7.60660104100212e-13 -2.306034974475014e-13 0.09832260828414445" free_energy=-45146.18980044577 pbc="T T T"
In      -4.44768684       3.14498952       6.16066292        0      -0.00308936       0.00218451      -0.00378367
In       7.60696918       1.32291043       1.57796678        1       0.00308936      -0.00218450       0.00378367
In       1.28840448      -0.91103955       5.44728164        2       0.00308936      -0.00218450       0.00378367
In      -1.57964118      -2.23394997       3.86931485        3       0.00000000       0.00000000       0.00000000
In      -1.28840449       4.26196451       3.51262421        4      -0.00308936       0.00218450       0.00378367
In       5.03016021      -2.93905408       5.80397228        5      -0.00308936      -0.00436901      -0.00000000
In      -1.28840449       1.52884586       5.80397228        6      -0.00308936      -0.00436901       0.00000000
In      -1.87087787       7.40695403       1.93465742        7       0.00308936       0.00436901       0.00000000
In       4.44768683       0.20593544       4.22600549        8       0.00308936      -0.00218450      -0.00378367
In      -1.57964118       4.46789995      -0.00000000        9       0.00000000       0.00000000      -0.00000000
In       4.44768683       6.90778536       0.35669064       10       0.00308936      -0.00218450      -0.00378367
In      -1.28840449      -2.43988541       7.38193907       11      -0.00308936       0.00218450       0.00378367
In       4.44768683       2.93905409       1.93465742       12       0.00308936       0.00436901       0.00000000
In       1.87087786       5.37893950       2.29134807       13      -0.00308936       0.00218450      -0.00378367
In       4.73892352       0.00000000      -0.00000000       14      -0.00000000      -0.00000000       0.00000000
In       1.57964117       2.23394998       3.86931485       15      -0.00000000      -0.00000000      -0.00000000
O        1.04220302       4.46789313       4.16351484       16       0.01190505       0.01369265       0.00289044
O       -2.11707933       3.60571304       5.65687819       17       0.01190505      -0.00434314      -0.01330340
O       -0.46548304       2.43785809      -0.05896743       18       0.01278316      -0.00496405      -0.01222794
O       -1.04220302      -0.86219373       2.08176332       19      -0.01190505       0.00934952      -0.01041297
O        4.10519196       5.29604882       2.14073075       20      -0.00806310      -0.01640932       0.00181498
O        2.21337274       3.02804717       1.78756333       21       0.00806310      -0.00977648      -0.01330340
O        2.21337274       6.73590160       0.35316742       22       0.00806310      -0.00663284       0.01511838
O       -2.45359567       6.32809217       3.81034742       23       0.00894120      -0.01039739      -0.01222794
O        3.62476539       2.03004186       7.79759714       24      -0.01278316       0.00496405       0.01222794
O        5.61287801      -1.86019222       3.92828228       25      -0.00894120       0.01039739       0.01222794
O        6.78404774       3.40181173       1.72858410       26      -0.01278316      -0.01307174      -0.00181498
O        3.86496903       2.36976156       4.22248227       27       0.00894120      -0.00539101       0.01511838
O        0.70568668       4.70584612       7.44442972       28       0.00894120       0.01578841      -0.00289044
O        2.45359566      -0.23794616       0.29419999       29      -0.00894120      -0.01578841       0.00289044
O       -3.62476539       1.06608822       6.01004561       30       0.01278316       0.01307174       0.00181498
O        5.27636168       0.86218692       2.08175152       31      -0.01190505       0.00434314       0.01330340
O        0.94590961       1.43985278       5.95106637       32      -0.00806310       0.00977648       0.01330340
O        3.62476539      -0.96395363       5.95107818       33      -0.01278316       0.00810769      -0.01041297
O        2.11707933       0.00000682       3.57511486       34      -0.01190505      -0.01369265      -0.00289044
O        0.94590961      -2.26800165       7.38546229       35      -0.00806310       0.00663284      -0.01511838
O       -0.70568669       2.09813839       3.51614743       36      -0.00894120       0.00539101      -0.01511838
O       -0.94590961      -0.82814887       5.59789895       37       0.00806310       0.01640932      -0.00181498
O       -0.46548304       5.43185358       1.78755153       38       0.01278316      -0.00810769       0.01041297
O        4.20148537       5.33009368       5.65686638       39       0.01190505      -0.00934952       0.01041297
40