40
Lattice="8.365025388977395 6.556242987682369e-10 1.4949527937527967e-14 -2.7883417969439304 7.886621569572871 -1.1355925236545142e-09 -2.7883417960167463 -3.9433107841307993 6.8300146300414495" Properties=species:S:1:pos:R:3:spacegroup_kinds:I:1:forces:R:3 spacegroup="P 1" unit_cell=conventional occupancy="_JSON {\"0\": {\"In\": 1}, \"1\": {\"In\": 1}, \"2\": {\"In\": 1}, \"3\": {\"In\": 1}, \"4\": {\"In\": 1}, \"5\": {\"In\": 1}, \"6\": {\"In\": 1}, \"7\": {\"In\": 1}, \"8\": {\"In\": 1}, \"9\": {\"In\": 1}, \"10\": {\"In\": 1}, \"11\": {\"In\": 1}, \"12\": {\"In\": 1}, \"13\": {\"In\": 1}, \"14\": {\"In\": 1}, \"15\": {\"In\": 1}, \"16\": {\"O\": 1}, \"17\": {\"O\": 1}, \"18\": {\"O\": 1}, \"19\": {\"O\": 1}, \"20\": {\"O\": 1}, \"21\": {\"O\": 1}, \"22\": {\"O\": 1}, \"23\": {\"O\": 1}, \"24\": {\"O\": 1}, \"25\": {\"O\": 1}, \"26\": {\"O\": 1}, \"27\": {\"O\": 1}, \"28\": {\"O\": 1}, \"29\": {\"O\": 1}, \"30\": {\"O\": 1}, \"31\": {\"O\": 1}, \"32\": {\"O\": 1}, \"33\": {\"O\": 1}, \"34\": {\"O\": 1}, \"35\": {\"O\": 1}, \"36\": {\"O\": 1}, \"37\": {\"O\": 1}, \"38\": {\"O\": 1}, \"39\": {\"O\": 1}}" n_minim_iter=7 energy=-45146.71855527244 stress="-0.143316396200511 -5.542414001066999e-13 1.954619655328412e-13 -5.542414001066999e-13 -0.14331639619891381 -1.258605799188699e-12 1.954619655328412e-13 -1.258605799188699e-12 -0.14331639619914494" free_energy=-45146.71855527244 pbc="T T T"
In      -3.97780452       2.81273255       5.37322626        0      -0.00040722       0.00028795      -0.00049874
In       6.76614631       1.13057824       1.45678837        1       0.00040722      -0.00028795       0.00049874
In       1.18946272      -0.84107715       4.87179568        2       0.00040722      -0.00028795       0.00049874
In      -1.39417090      -1.97165539       3.41500731        3       0.00000000      -0.00000000       0.00000000
In      -1.18946272       3.79856025       3.16429202        4      -0.00040722       0.00028795       0.00049874
In       4.38722087      -2.66798201       5.12251097        5      -0.00040722      -0.00057589      -0.00000000
In      -1.18946272       1.27532878       5.12251097        6      -0.00040722      -0.00057589       0.00000000
In      -1.59887908       6.61129280       1.70750365        7       0.00040722       0.00057589       0.00000000
In       3.97780452       0.14475054       3.66572260        8       0.00040722      -0.00028795      -0.00049874
In      -1.39417090       3.94331079      -0.00000000        9      -0.00000000      -0.00000000      -0.00000000
In       3.97780452       6.05971672       0.25071529       10       0.00040722      -0.00028795      -0.00049874
In      -1.18946272      -2.11640593       6.57929934       11      -0.00040722       0.00028795       0.00049874
In       3.97780452       2.66798201       1.70750365       12       0.00040722       0.00057589      -0.00000000
In       1.59887907       4.78438794       1.95821894       13      -0.00040722       0.00028795      -0.00049874
In       4.18251269       0.00000000      -0.00000000       14      -0.00000000       0.00000000      -0.00000000
In       1.39417090       1.97165539       3.41500731       15       0.00000000      -0.00000000      -0.00000000
O        0.81817696       3.93473753       3.75913176       16       0.00019339      -0.00000745       0.00047553
O       -1.97016484       3.25979023       4.95787341       17       0.00019339       0.00041554      -0.00023132
O       -0.37978665       2.13522303       0.07566630       18       0.00044922       0.00023464       0.00008201
O       -0.81817696      -0.69209381       1.88699054       19      -0.00019339       0.00040810       0.00024421
O        3.73008131       4.67909056       1.81132423       20       0.00032732      -0.00036075       0.00016220
O        1.84660227       2.74254787       1.54286609       21      -0.00032732      -0.00032084      -0.00023132
O        1.84660227       5.87985348       0.26845814       22      -0.00032732      -0.00003991       0.00039351
O       -2.13970313       5.56129146       3.49067362       23      -0.00007148      -0.00050174       0.00008202
O        3.16812845       1.80808776       6.75434832       24      -0.00044922      -0.00023464      -0.00008202
O        4.92804493      -1.61798067       3.33934101       25       0.00007148       0.00050174      -0.00008202
O        5.95647024       3.10479585       1.60368308       26      -0.00044922       0.00018835      -0.00016220
O        3.43698046       2.21402170       3.68346545       27      -0.00007148       0.00032190       0.00039351
O        0.64863866       4.05461920       6.48589018       28      -0.00007148       0.00017984      -0.00047553
O        2.13970313      -0.11130841       0.34412444       29       0.00007148      -0.00017984       0.00047553
O       -3.16812845       0.83851493       5.22633155       30       0.00044922      -0.00018835       0.00016220
O        4.75850663       0.68352056       1.87214122       31      -0.00019339      -0.00041554       0.00023132
O        0.94173952       1.20076292       5.28714853       32       0.00032732       0.00032084       0.00023132
O        3.16812845      -0.96957282       5.30199785       33      -0.00044922       0.00004629       0.00024421
O        1.97016484       0.00857326       3.07088287       34      -0.00019339       0.00000745      -0.00047553
O        0.94173952      -1.93654269       6.56155649       35       0.00032732       0.00003991      -0.00039351
O       -0.64863867       1.72928909       3.14654917       36       0.00007148      -0.00032190      -0.00039351
O       -0.94173952      -0.73577977       5.01869039       37      -0.00032732       0.00036075      -0.00016220
O       -0.37978665       4.91288361       1.52801677       38       0.00044922      -0.00004629      -0.00024421
O        3.60651875       4.63540460       4.94302409       39       0.00019339      -0.00040810      -0.00024421
