40
Lattice="9.206901756519947 7.216129915832425e-10 1.687538997430238e-14 -3.068967252853658 8.68035022076425 -1.2498846402309027e-09 -3.0689672518331577 -4.340175109660503 7.517403805760946" Properties=species:S:1:pos:R:3:spacegroup_kinds:I:1:forces:R:3 spacegroup="P 1" unit_cell=conventional occupancy="_JSON {\"0\": {\"In\": 1}, \"1\": {\"In\": 1}, \"2\": {\"In\": 1}, \"3\": {\"In\": 1}, \"4\": {\"In\": 1}, \"5\": {\"In\": 1}, \"6\": {\"In\": 1}, \"7\": {\"In\": 1}, \"8\": {\"In\": 1}, \"9\": {\"In\": 1}, \"10\": {\"In\": 1}, \"11\": {\"In\": 1}, \"12\": {\"In\": 1}, \"13\": {\"In\": 1}, \"14\": {\"In\": 1}, \"15\": {\"In\": 1}, \"16\": {\"O\": 1}, \"17\": {\"O\": 1}, \"18\": {\"O\": 1}, \"19\": {\"O\": 1}, \"20\": {\"O\": 1}, \"21\": {\"O\": 1}, \"22\": {\"O\": 1}, \"23\": {\"O\": 1}, \"24\": {\"O\": 1}, \"25\": {\"O\": 1}, \"26\": {\"O\": 1}, \"27\": {\"O\": 1}, \"28\": {\"O\": 1}, \"29\": {\"O\": 1}, \"30\": {\"O\": 1}, \"31\": {\"O\": 1}, \"32\": {\"O\": 1}, \"33\": {\"O\": 1}, \"34\": {\"O\": 1}, \"35\": {\"O\": 1}, \"36\": {\"O\": 1}, \"37\": {\"O\": 1}, \"38\": {\"O\": 1}, \"39\": {\"O\": 1}}" n_minim_iter=1 energy=-45150.336183717154 stress="0.05622086365255809 -8.593237757375193e-13 -4.08769407098162e-13 -8.593237757375193e-13 0.056220863650844895 -9.13059467828366e-13 -4.08769407098162e-13 -9.13059467828366e-13 0.05622086365229035" free_energy=-45150.336183717154 pbc="T T T"
In      -4.37569003       3.09408009       5.91700179        0       0.07178623      -0.05076053       0.08791981
In       7.44465728       1.24609502       1.60040201        1      -0.07178623       0.05076053      -0.08791981
In       1.30672277      -0.92399253       5.35910392        2      -0.07178623       0.05076053      -0.08791981
In      -1.53448363      -2.17008755       3.75870190        3       0.00000000       0.00000000      -0.00000000
In      -1.30672278       4.17912387       3.47975296        4       0.07178623      -0.05076053      -0.08791981
In       4.83121173      -2.93302884       5.63805285        5       0.07178623       0.10152105       0.00000000
In      -1.30672278       1.40714627       5.63805285        6       0.07178623       0.10152105       0.00000000
In      -1.76224448       7.27320396       1.87935095        7      -0.07178623      -0.10152105       0.00000000
In       4.37569002       0.16105125       4.03765084        8      -0.07178623       0.05076053       0.08791981
In      -1.53448363       4.34017511      -0.00000000        9       0.00000000      -0.00000000       0.00000000
In       4.37569002       6.67131391       0.27894893       10      -0.07178623       0.05076053       0.08791981
In      -1.30672277      -2.33113880       7.23845487       11       0.07178623      -0.05076053      -0.08791981
In       4.37569002       2.93302885       1.87935095       12      -0.07178623      -0.10152105       0.00000000
In       1.76224448       5.26416765       2.15829988       13       0.07178623      -0.05076053       0.08791981
In       4.60345088       0.00000000      -0.00000000       14       0.00000000       0.00000000       0.00000000
In       1.53448362       2.17008756       3.75870190       15      -0.00000000      -0.00000000      -0.00000000
O        0.94647076       4.34549140       4.07237025       16       0.02787980      -0.01559523      -0.06724467
O       -2.12249649       3.52411796       5.47661464       17       0.02787980      -0.05043798       0.04712820
O       -0.44888357       2.34069491       0.00895967       18      -0.05296344       0.00672683      -0.05188415
O       -0.94647076      -0.81074087       2.03158109       19      -0.02787980      -0.06603321      -0.02011647
O        4.03006910       5.15608885       2.02262141       20      -0.05684665       0.03607788       0.03176768
O        2.10786540       2.99649046       1.71791273       21       0.05684665      -0.00947267       0.04712820
O        2.10786540       6.49977351       0.30470868       22       0.05684665       0.04555056      -0.01536053
O       -2.35645618       6.15324252       3.76766157       23      -0.02399659       0.04769213      -0.05188415
O        3.51785082       1.99948021       7.50844413       24       0.05296344      -0.00672683       0.05188415
O        5.42542343      -1.81306741       3.74974223       25       0.02399659      -0.04769213       0.05188415
O        6.58681807       3.34819432       1.73608048       26       0.05296344      -0.04156957      -0.03176768
O        3.78147832       2.35635694       4.06341058       27      -0.02399659      -0.06877906      -0.01536053
O        0.71251107       4.51092588       7.20373545       28      -0.02399659       0.02108692       0.06724467
O        2.35645618      -0.17075077       0.31366835       29       0.02399659      -0.02108692      -0.06724467
O       -3.51785082       0.99198080       5.78132332       30      -0.05296344       0.04156957       0.03176768
O        5.19146374       0.81605716       2.04078916       31      -0.02787980       0.05043798      -0.04712820
O        0.96110185       1.34368466       5.79949107       32      -0.05684665       0.00947267      -0.04712820
O        3.51785082      -1.00749940       5.79028299       33       0.05296344       0.04829640      -0.02011647
O        2.12249649      -0.00531628       3.44503355       34      -0.02787980       0.01559523       0.06724467
O        0.96110185      -2.15959840       7.21269512       35      -0.05684665      -0.04555056       0.01536053
O       -0.71251107       1.98381818       3.45399322       36       0.02399659       0.06877906       0.01536053
O       -0.96110185      -0.81591374       5.49478239       37       0.05684665      -0.03607788      -0.03176768
O       -0.44888357       5.34767452       1.72712081       38      -0.05296344      -0.04829640       0.02011647
O        4.01543801       5.15091598       5.48582271       39       0.02787980       0.06603321       0.02011647
40
Lattice="9.20690175651995 7.216129915832428e-10 1.6875389974302383e-14 -3.0689672528536587 8.680350220764252 -1.2498846402309031e-09 -3.0689672518331585 -4.340175109660504 7.5174038057609485" Properties=species:S:1:pos:R:3:spacegroup_kinds:I:1:forces:R:3 spacegroup="P 1" unit_cell=conventional occupancy="_JSON {\"0\": {\"In\": 1}, \"1\": {\"In\": 1}, \"2\": {\"In\": 1}, \"3\": {\"In\": 1}, \"4\": {\"In\": 1}, \"5\": {\"In\": 1}, \"6\": {\"In\": 1}, \"7\": {\"In\": 1}, \"8\": {\"In\": 1}, \"9\": {\"In\": 1}, \"10\": {\"In\": 1}, \"11\": {\"In\": 1}, \"12\": {\"In\": 1}, \"13\": {\"In\": 1}, \"14\": {\"In\": 1}, \"15\": {\"In\": 1}, \"16\": {\"O\": 1}, \"17\": {\"O\": 1}, \"18\": {\"O\": 1}, \"19\": {\"O\": 1}, \"20\": {\"O\": 1}, \"21\": {\"O\": 1}, \"22\": {\"O\": 1}, \"23\": {\"O\": 1}, \"24\": {\"O\": 1}, \"25\": {\"O\": 1}, \"26\": {\"O\": 1}, \"27\": {\"O\": 1}, \"28\": {\"O\": 1}, \"29\": {\"O\": 1}, \"30\": {\"O\": 1}, \"31\": {\"O\": 1}, \"32\": {\"O\": 1}, \"33\": {\"O\": 1}, \"34\": {\"O\": 1}, \"35\": {\"O\": 1}, \"36\": {\"O\": 1}, \"37\": {\"O\": 1}, \"38\": {\"O\": 1}, \"39\": {\"O\": 1}}" n_minim_iter=2 energy=-45150.35129208065 stress="0.05465224029095039 6.571812432328411e-13 3.673149524626111e-13 6.571812432328411e-13 0.054652240290637116 -3.009230726723794e-13 3.673149524626111e-13 -3.009230726723794e-13 0.054652240289059545" free_energy=-45150.35129208065 pbc="T T T"
In      -4.37056244       3.09045434       5.92328177        0       0.02805770      -0.01983979       0.03436352
In       7.43952969       1.24972078       1.59412203        1      -0.02805770       0.01983979      -0.03436352
In       1.30159518      -0.92036678       5.35282393        2      -0.02805770       0.01983979      -0.03436352
In      -1.53448363      -2.17008755       3.75870190        3      -0.00000000      -0.00000000      -0.00000000
In      -1.30159519       4.17549812       3.47347298        4       0.02805770      -0.01983979      -0.03436352
In       4.83633932      -2.92577734       5.63805285        5       0.02805770       0.03967957      -0.00000000
In      -1.30159519       1.41439777       5.63805285        6       0.02805770       0.03967957       0.00000000
In      -1.76737207       7.26595245       1.87935095        7      -0.02805770      -0.03967957      -0.00000000
In       4.37056244       0.16467700       4.04393082        8      -0.02805770       0.01983979       0.03436352
In      -1.53448363       4.34017511      -0.00000000        9      -0.00000000       0.00000000       0.00000000
In       4.37056244       6.67493966       0.28522892       10      -0.02805770       0.01983979       0.03436352
In      -1.30159519      -2.33476455       7.23217488       11       0.02805770      -0.01983979      -0.03436352
In       4.37056244       2.92577734       1.87935095       12      -0.02805770      -0.03967957       0.00000000
In       1.76737206       5.26054189       2.16457987       13       0.02805770      -0.01983979       0.03436352
In       4.60345088       0.00000000      -0.00000000       14       0.00000000      -0.00000000      -0.00000000
In       1.53448362       2.17008756       3.75870190       15      -0.00000000      -0.00000000      -0.00000000
O        0.94846217       4.34437745       4.06756706       16       0.02986762       0.00547375      -0.00890111
O       -2.12050508       3.52051524       5.47998094       17       0.02986762      -0.01044546      -0.00028986
O       -0.45266667       2.34117540       0.00525366       18       0.00526850       0.00694874      -0.03041750
O       -0.94846218      -0.81545753       2.03014420       19      -0.02986762      -0.00497171      -0.00919096
O        4.02600862       5.15866585       2.02489053       20      -0.01980395      -0.01258984       0.02122654
O        2.11192588       2.99581384       1.72127903       21       0.01980395      -0.02467764      -0.00028986
O        2.11192588       6.50302712       0.30361150       22       0.01980395       0.01208780       0.02151640
O       -2.35817022       6.15664910       3.76395556       23      -0.00479517      -0.00728344      -0.03041750
O        3.52163392       1.99899972       7.51215014       24      -0.00526850      -0.00694874       0.03041750
O        5.42713747      -1.81647399       3.75344824       25       0.00479517       0.00728344       0.03041750
O        6.59060118       3.34522506       1.73381136       26      -0.00526850      -0.02286796      -0.02122654
O        3.77976428       2.35144415       4.06231340       27      -0.00479517      -0.02270061       0.02151640
O        0.71079703       4.51243209       7.20853864       28      -0.00479517       0.02998405       0.00890111
O        2.35817022      -0.17225697       0.30886516       29       0.00479517      -0.02998405      -0.00890111
O       -3.52163393       0.99495005       5.78359244       30       0.00526850       0.02286796       0.02122654
O        5.18947233       0.81965987       2.03742286       31      -0.02986762       0.01044546       0.00028986
O        0.95704137       1.34436128       5.79612477       32      -0.01980395       0.02467764       0.00028986
O        3.52163392      -1.00404966       5.78884610       33      -0.00526850       0.02981670      -0.00919096
O        2.12050507      -0.00420234       3.44983674       34      -0.02986762      -0.00547375       0.00890111
O        0.95704137      -2.16285201       7.21379230       35      -0.01980395      -0.01208780      -0.02151639
O       -0.71079703       1.98873097       3.45509040       36       0.00479517       0.02270061      -0.02151639
O       -0.95704137      -0.81849073       5.49251327       37       0.01980395       0.01258984      -0.02122654
O       -0.45266667       5.34422478       1.72855770       38       0.00526850      -0.02981670       0.00919096
O        4.01742943       5.15563264       5.48725960       39       0.02986762       0.00497171       0.00919096
40
Lattice="9.20690175651995 7.216129915832428e-10 1.687538997430239e-14 -3.0689672528536587 8.680350220764252 -1.2498846402309036e-09 -3.0689672518331585 -4.340175109660504 7.517403805760949" Properties=species:S:1:pos:R:3:spacegroup_kinds:I:1:forces:R:3 spacegroup="P 1" unit_cell=conventional occupancy="_JSON {\"0\": {\"In\": 1}, \"1\": {\"In\": 1}, \"2\": {\"In\": 1}, \"3\": {\"In\": 1}, \"4\": {\"In\": 1}, \"5\": {\"In\": 1}, \"6\": {\"In\": 1}, \"7\": {\"In\": 1}, \"8\": {\"In\": 1}, \"9\": {\"In\": 1}, \"10\": {\"In\": 1}, \"11\": {\"In\": 1}, \"12\": {\"In\": 1}, \"13\": {\"In\": 1}, \"14\": {\"In\": 1}, \"15\": {\"In\": 1}, \"16\": {\"O\": 1}, \"17\": {\"O\": 1}, \"18\": {\"O\": 1}, \"19\": {\"O\": 1}, \"20\": {\"O\": 1}, \"21\": {\"O\": 1}, \"22\": {\"O\": 1}, \"23\": {\"O\": 1}, \"24\": {\"O\": 1}, \"25\": {\"O\": 1}, \"26\": {\"O\": 1}, \"27\": {\"O\": 1}, \"28\": {\"O\": 1}, \"29\": {\"O\": 1}, \"30\": {\"O\": 1}, \"31\": {\"O\": 1}, \"32\": {\"O\": 1}, \"33\": {\"O\": 1}, \"34\": {\"O\": 1}, \"35\": {\"O\": 1}, \"36\": {\"O\": 1}, \"37\": {\"O\": 1}, \"38\": {\"O\": 1}, \"39\": {\"O\": 1}}" n_minim_iter=3 energy=-45150.35367427072 stress="0.05380738848294092 1.0497892599554804e-12 6.938420079685427e-13 1.0497892599554804e-12 0.05380738848230345 7.760472156479773e-13 6.938420079685427e-13 7.760472156479773e-13 0.053807388482363626" free_energy=-45150.35367427072 pbc="T T T"
In      -4.36782547       3.08851901       5.92663386        0       0.00568820      -0.00402217       0.00696659
In       7.43679272       1.25165610       1.59076994        1      -0.00568820       0.00402217      -0.00696659
In       1.29885822      -0.91843145       5.34947184        2      -0.00568820       0.00402217      -0.00696659
In      -1.53448363      -2.17008755       3.75870190        3      -0.00000000      -0.00000000      -0.00000000
In      -1.29885822       4.17356279       3.47012089        4       0.00568820      -0.00402217      -0.00696659
In       4.83907629      -2.92190668       5.63805285        5       0.00568820       0.00804433       0.00000000
In      -1.29885822       1.41826843       5.63805285        6       0.00568820       0.00804433      -0.00000000
In      -1.77010904       7.26208180       1.87935095        7      -0.00568820      -0.00804433       0.00000000
In       4.36782547       0.16661233       4.04728291        8      -0.00568820       0.00402217       0.00696659
In      -1.53448363       4.34017511      -0.00000000        9       0.00000000       0.00000000      -0.00000000
In       4.36782547       6.67687499       0.28858101       10      -0.00568820       0.00402217       0.00696659
In      -1.29885822      -2.33669988       7.22882279       11       0.00568820      -0.00402217      -0.00696659
In       4.36782547       2.92190669       1.87935095       12      -0.00568820      -0.00804433       0.00000000
In       1.77010903       5.25860657       2.16793196       13       0.00568820      -0.00402217       0.00696659
In       4.60345088       0.00000000      -0.00000000       14      -0.00000000      -0.00000000      -0.00000000
In       1.53448362       2.17008756       3.75870190       15       0.00000000      -0.00000000       0.00000000
O        0.94992905       4.34402918       4.06537333       16       0.02928780       0.01228648       0.01835160
O       -2.11903820       3.51878955       5.48137941       17       0.02928780       0.00974971      -0.01981620
O       -0.45413307       2.34152384       0.00305963       18       0.03053852       0.00886532      -0.01828439
O       -0.94992906      -0.81753149       2.02934894       19      -0.02928780       0.02203619      -0.00146460
O        4.02389266       5.15947308       2.02628931       20      -0.00057048      -0.03259269       0.01681979
O        2.11404184       2.99500608       1.72267751       21       0.00057048      -0.03086271      -0.01981620
O        2.11404184       6.50464212       0.30361180       22       0.00057048      -0.00172998       0.03663599
O       -2.35898754       6.15791548       3.76176153       23       0.00182120      -0.03174710      -0.01828439
O        3.52310032       1.99865128       7.51434417       24      -0.03053852      -0.00886532       0.01828439
O        5.42795478      -1.81774037       3.75564227       25      -0.00182120       0.03174710       0.01828439
O        6.59206757       3.34349919       1.73241259       26      -0.03053852      -0.01140209      -0.01681979
O        3.77894697       2.34891087       4.06231370       27       0.00182120       0.00003880       0.03663599
O        0.70997972       4.51369899       7.21073237       28       0.00182120       0.03170830      -0.01835160
O        2.35898753      -0.17352387       0.30667143       29      -0.00182120      -0.03170830       0.01835160
O       -3.52310032       0.99667592       5.78499121       30       0.03053852       0.01140209       0.01681979
O        5.18800545       0.82138557       2.03602439       31      -0.02928780      -0.00974971       0.01981620
O        0.95492541       1.34516904       5.79472629       32      -0.00057048       0.03086271       0.01981620
O        3.52310032      -1.00197535       5.78805084       33      -0.03053852       0.02026741      -0.00146460
O        2.11903819      -0.00385407       3.45203047       34      -0.02928780      -0.01228648      -0.01835160
O        0.95492541      -2.16446700       7.21379200       35      -0.00057048       0.00172998      -0.03663599
O       -0.70997972       1.99126425       3.45509010       36      -0.00182120      -0.00003880      -0.03663599
O       -0.95492541      -0.81929797       5.49111449       37       0.00057048       0.03259269      -0.01681979
O       -0.45413307       5.34215047       1.72935296       38       0.03053852      -0.02026741       0.00146460
O        4.01889631       5.15770661       5.48805486       39       0.02928780      -0.02203619       0.00146460
40
Lattice="9.20690175651995 7.216129915832432e-10 1.6875389974302395e-14 -3.0689672528536605 8.68035022076425 -1.2498846402309038e-09 -3.0689672518331603 -4.340175109660503 7.517403805760952" Properties=species:S:1:pos:R:3:spacegroup_kinds:I:1:forces:R:3 spacegroup="P 1" unit_cell=conventional occupancy="_JSON {\"0\": {\"In\": 1}, \"1\": {\"In\": 1}, \"2\": {\"In\": 1}, \"3\": {\"In\": 1}, \"4\": {\"In\": 1}, \"5\": {\"In\": 1}, \"6\": {\"In\": 1}, \"7\": {\"In\": 1}, \"8\": {\"In\": 1}, \"9\": {\"In\": 1}, \"10\": {\"In\": 1}, \"11\": {\"In\": 1}, \"12\": {\"In\": 1}, \"13\": {\"In\": 1}, \"14\": {\"In\": 1}, \"15\": {\"In\": 1}, \"16\": {\"O\": 1}, \"17\": {\"O\": 1}, \"18\": {\"O\": 1}, \"19\": {\"O\": 1}, \"20\": {\"O\": 1}, \"21\": {\"O\": 1}, \"22\": {\"O\": 1}, \"23\": {\"O\": 1}, \"24\": {\"O\": 1}, \"25\": {\"O\": 1}, \"26\": {\"O\": 1}, \"27\": {\"O\": 1}, \"28\": {\"O\": 1}, \"29\": {\"O\": 1}, \"30\": {\"O\": 1}, \"31\": {\"O\": 1}, \"32\": {\"O\": 1}, \"33\": {\"O\": 1}, \"34\": {\"O\": 1}, \"35\": {\"O\": 1}, \"36\": {\"O\": 1}, \"37\": {\"O\": 1}, \"38\": {\"O\": 1}, \"39\": {\"O\": 1}}" n_minim_iter=4 energy=-45150.35535738856 stress="0.053096519972915555 -5.495789313784337e-13 2.283081091242263e-13 -5.495789313784337e-13 0.05309651997338992 5.711426359164502e-13 2.283081091242263e-13 5.711426359164502e-13 0.0530965199739887" free_energy=-45150.35535738856 pbc="T T T"
In      -4.36494617       3.08648304       5.93016027        0      -0.01430513       0.01011525      -0.01752013
In       7.43391342       1.25369208       1.58724352        1       0.01430513      -0.01011525       0.01752013
In       1.29597891      -0.91639548       5.34594543        2       0.01430513      -0.01011525       0.01752013
In      -1.53448363      -2.17008755       3.75870190        3      -0.00000000      -0.00000000       0.00000000
In      -1.29597892       4.17152681       3.46659448        4      -0.01430513       0.01011525       0.01752013
In       4.84195559      -2.91783473       5.63805285        5      -0.01430513      -0.02023051      -0.00000000
In      -1.29597891       1.42234038       5.63805285        6      -0.01430513      -0.02023051       0.00000000
In      -1.77298834       7.25800985       1.87935095        7       0.01430513       0.02023051      -0.00000000
In       4.36494616       0.16864830       4.05080932        8       0.01430513      -0.01011525      -0.01752013
In      -1.53448363       4.34017511      -0.00000000        9      -0.00000000       0.00000000       0.00000000
In       4.36494616       6.67891097       0.29210742       10       0.01430513      -0.01011525      -0.01752013
In      -1.29597891      -2.33873585       7.22529638       11      -0.01430513       0.01011525       0.01752013
In       4.36494616       2.91783474       1.87935095       12       0.01430513       0.02023051       0.00000000
In       1.77298834       5.25657059       2.17145837       13      -0.01430513       0.01011525      -0.01752013
In       4.60345088       0.00000000      -0.00000000       14       0.00000000      -0.00000000      -0.00000000
In       1.53448362       2.17008756       3.75870190       15      -0.00000000       0.00000000       0.00000000
O        0.95351058       4.34466216       4.06484103       16       0.02409855       0.00530811       0.02954298
O       -2.11545667       3.51801207       5.48109740       17       0.02409855       0.02293092      -0.01936845
O       -0.45307546       2.34253105      -0.00031355       18       0.03465686       0.01546507      -0.00643721
O       -0.95351059      -0.81767599       2.02853462       19      -0.02409855       0.02823903       0.01017453
O        4.02196581       5.15767008       2.02884817       20       0.01358663      -0.03195555       0.01661175
O        2.11596869       2.99188854       1.72239549       21      -0.01358663      -0.03036397      -0.01936845
O        2.11596869       6.50595665       0.30645267       22      -0.01358663      -0.00159158       0.03598020
O       -2.35958461       6.15658263       3.75838835       23      -0.00302832      -0.03782982      -0.00643721
O        3.52204271       1.99764407       7.51771735       24      -0.03465686      -0.01546507       0.00643721
O        5.42855186      -1.81640751       3.75901545       25       0.00302832       0.03782982       0.00643721
O        6.59100996       3.34108154       1.72985373       26      -0.03465686       0.00215774      -0.01661175
O        3.77834990       2.34665604       4.06515458       27      -0.00302832       0.01334012       0.03598020
O        0.70938264       4.51728668       7.21126468       28      -0.00302832       0.02448970      -0.02954298
O        2.35958460      -0.17711156       0.30613912       29       0.00302832      -0.02448970       0.02954298
O       -3.52204271       0.99909358       5.78755007       30       0.03465686      -0.00215774       0.01661175
O        5.18442392       0.82216304       2.03630640       31      -0.02409855      -0.02293092       0.01936845
O        0.95299856       1.34828658       5.79500831       32       0.01358663       0.03036397       0.01936845
O        3.52204271      -0.99855049       5.78723652       33      -0.03465686       0.01330732       0.01017453
O        2.11545666      -0.00448704       3.45256277       34      -0.02409855      -0.00530811      -0.02954298
O        0.95299856      -2.16578154       7.21095113       35       0.01358663       0.00159158      -0.03598020
O       -0.70938265       1.99351908       3.45224922       36       0.00302832      -0.01334012      -0.03598020
O       -0.95299856      -0.81749497       5.48855563       37      -0.01358663       0.03195555      -0.01661175
O       -0.45307546       5.33872560       1.73016728       38       0.03465686      -0.01330732      -0.01017453
O        4.02247784       5.15785111       5.48886918       39       0.02409855      -0.02823903      -0.01017453
40
Lattice="9.206901756519953 7.216129915832435e-10 1.68753899743024e-14 -3.0689672528536627 8.68035022076425 -1.2498846402309044e-09 -3.0689672518331625 -4.340175109660503 7.5174038057609565" Properties=species:S:1:pos:R:3:spacegroup_kinds:I:1:forces:R:3 spacegroup="P 1" unit_cell=conventional occupancy="_JSON {\"0\": {\"In\": 1}, \"1\": {\"In\": 1}, \"2\": {\"In\": 1}, \"3\": {\"In\": 1}, \"4\": {\"In\": 1}, \"5\": {\"In\": 1}, \"6\": {\"In\": 1}, \"7\": {\"In\": 1}, \"8\": {\"In\": 1}, \"9\": {\"In\": 1}, \"10\": {\"In\": 1}, \"11\": {\"In\": 1}, \"12\": {\"In\": 1}, \"13\": {\"In\": 1}, \"14\": {\"In\": 1}, \"15\": {\"In\": 1}, \"16\": {\"O\": 1}, \"17\": {\"O\": 1}, \"18\": {\"O\": 1}, \"19\": {\"O\": 1}, \"20\": {\"O\": 1}, \"21\": {\"O\": 1}, \"22\": {\"O\": 1}, \"23\": {\"O\": 1}, \"24\": {\"O\": 1}, \"25\": {\"O\": 1}, \"26\": {\"O\": 1}, \"27\": {\"O\": 1}, \"28\": {\"O\": 1}, \"29\": {\"O\": 1}, \"30\": {\"O\": 1}, \"31\": {\"O\": 1}, \"32\": {\"O\": 1}, \"33\": {\"O\": 1}, \"34\": {\"O\": 1}, \"35\": {\"O\": 1}, \"36\": {\"O\": 1}, \"37\": {\"O\": 1}, \"38\": {\"O\": 1}, \"39\": {\"O\": 1}}" n_minim_iter=5 energy=-45150.35822812908 stress="0.053244871372925696 -6.058525136502544e-13 -3.1729457562923657e-13 -6.058525136502544e-13 0.053244871373568654 2.0570520660807507e-13 -3.1729457562923657e-13 2.0570520660807507e-13 0.0532448713746563" free_energy=-45150.35822812908 pbc="T T T"
In      -4.36392212       3.08575893       5.93141447        0      -0.01315236       0.00930012      -0.01610828
In       7.43288937       1.25441619       1.58598933        1       0.01315236      -0.00930012       0.01610828
In       1.29495487      -0.91567137       5.34469124        2       0.01315236      -0.00930012       0.01610828
In      -1.53448363      -2.17008755       3.75870190        3      -0.00000000      -0.00000000       0.00000000
In      -1.29495487       4.17080270       3.46534028        4      -0.01315236       0.00930012       0.01610828
In       4.84297963      -2.91638651       5.63805285        5      -0.01315236      -0.01860025       0.00000000
In      -1.29495487       1.42378860       5.63805285        6      -0.01315236      -0.01860025       0.00000000
In      -1.77401238       7.25656163       1.87935095        7       0.01315236       0.01860025      -0.00000000
In       4.36392212       0.16937241       4.05206352        8       0.01315236      -0.00930012      -0.01610828
In      -1.53448363       4.34017511      -0.00000000        9      -0.00000000       0.00000000       0.00000000
In       4.36392212       6.67963508       0.29336161       10       0.01315236      -0.00930012      -0.01610828
In      -1.29495487      -2.33945996       7.22404219       11      -0.01315236       0.00930012       0.01610828
In       4.36392212       2.91638652       1.87935095       12       0.01315236       0.01860025      -0.00000000
In       1.77401238       5.25584648       2.17271256       13      -0.01315236       0.00930012      -0.01610828
In       4.60345088       0.00000000      -0.00000000       14      -0.00000000      -0.00000000      -0.00000000
In       1.53448362       2.17008756       3.75870190       15      -0.00000000       0.00000000      -0.00000000
O        0.95956626       4.34670190       4.06837660       16       0.01227699      -0.02097226      -0.00321318
O       -2.10940100       3.52005410       5.47756313       17       0.01227699       0.00770344       0.01976910
O       -0.44720857       2.34470656      -0.00407903       18      -0.00841764       0.02233675      -0.00557654
O       -0.95956626      -0.81359422       2.02853593       19      -0.01227699      -0.01326882       0.01655592
O        4.02187249       5.15141431       2.03261496       20       0.00317054       0.01004921       0.02213247
O        2.11606201       2.98549852       1.71886123       21      -0.00317054      -0.01414267       0.01976910
O        2.11606201       6.50609090       0.31375372       22      -0.00317054       0.02419188       0.00236336
O       -2.35968007       6.15032610       3.75462288       23      -0.02386517       0.00049064      -0.00557654
O        3.51617582       1.99546855       7.52148283       24       0.00841764      -0.02233675       0.00557654
O        5.42864732      -1.81015098       3.76278092       25       0.02386517      -0.00049064       0.00557654
O        6.58514307       3.33890830       1.72608694       26       0.00841764       0.00633895      -0.02213247
O        3.77825443       2.34652331       4.07245563       27      -0.02386517      -0.00507475       0.00236336
O        0.70928718       4.52367594       7.20772910       28      -0.02386517       0.00458411       0.00321318
O        2.35968007      -0.18350082       0.30967470       29       0.02386517      -0.00458411      -0.00321318
O       -3.51617582       1.00126681       5.79131686       30      -0.00841764      -0.00633895       0.02213247
O        5.17836824       0.82012102       2.03984067       31      -0.01227699      -0.00770344      -0.01976910
O        0.95290524       1.35467659       5.79854257       32       0.00317054       0.01414267      -0.01976910
O        3.51617582      -0.99420173       5.78723784       33       0.00841764       0.01599780       0.01655592
O        2.10940099      -0.00652679       3.44902720       34      -0.01227699       0.02097226       0.00321318
O        0.95290524      -2.16591579       7.20365008       35       0.00317054      -0.02419188      -0.00236336
O       -0.70928718       1.99365181       3.44494817       36       0.02386517       0.00507475      -0.00236336
O       -0.95290524      -0.81123920       5.48478884       37      -0.00317054      -0.01004921      -0.02213247
O       -0.44720857       5.33437685       1.73016596       38      -0.00841764      -0.01599780      -0.01655592
O        4.02853351       5.15376934       5.48886787       39       0.01227699       0.01326882      -0.01655592
40