40
Lattice="9.344338462936685 7.323857076357869e-10 2.6645352591003782e-14 -3.1147794883360613 8.809926790215615 -1.268553706523792e-09 -3.1147794873003365 -4.404963394375408 7.629620406653509" Properties=species:S:1:pos:R:3:spacegroup_kinds:I:1:forces:R:3 spacegroup="P 1" unit_cell=conventional occupancy="_JSON {\"0\": {\"In\": 1}, \"1\": {\"In\": 1}, \"2\": {\"In\": 1}, \"3\": {\"In\": 1}, \"4\": {\"In\": 1}, \"5\": {\"In\": 1}, \"6\": {\"In\": 1}, \"7\": {\"In\": 1}, \"8\": {\"In\": 1}, \"9\": {\"In\": 1}, \"10\": {\"In\": 1}, \"11\": {\"In\": 1}, \"12\": {\"In\": 1}, \"13\": {\"In\": 1}, \"14\": {\"In\": 1}, \"15\": {\"In\": 1}, \"16\": {\"O\": 1}, \"17\": {\"O\": 1}, \"18\": {\"O\": 1}, \"19\": {\"O\": 1}, \"20\": {\"O\": 1}, \"21\": {\"O\": 1}, \"22\": {\"O\": 1}, \"23\": {\"O\": 1}, \"24\": {\"O\": 1}, \"25\": {\"O\": 1}, \"26\": {\"O\": 1}, \"27\": {\"O\": 1}, \"28\": {\"O\": 1}, \"29\": {\"O\": 1}, \"30\": {\"O\": 1}, \"31\": {\"O\": 1}, \"32\": {\"O\": 1}, \"33\": {\"O\": 1}, \"34\": {\"O\": 1}, \"35\": {\"O\": 1}, \"36\": {\"O\": 1}, \"37\": {\"O\": 1}, \"38\": {\"O\": 1}, \"39\": {\"O\": 1}}" n_minim_iter=7 energy=-45148.584638661174 stress="0.07665578234523429 -7.463919511469263e-13 7.732269658461112e-13 -7.463919511469263e-13 0.07665578234762659 -1.4728795536515628e-13 7.732269658461112e-13 -1.4728795536515628e-13 0.07665578234927624" free_energy=-45148.584638661174 pbc="T T T"
In      -4.41067891       3.11882097       6.04247423        0      -0.00473403       0.00334746      -0.00579797
In       7.52545840       1.28614243       1.58714617        1       0.00473403      -0.00334746       0.00579797
In       1.29589942      -0.91633927       5.40195637        2       0.00473403      -0.00334746       0.00579797
In      -1.55738975      -2.20248170       3.81481020        3       0.00000000       0.00000000       0.00000000
In      -1.29589942       4.22006182       3.49455127        4      -0.00473403       0.00334746       0.00579797
In       4.93365955      -2.93391939       5.72221530        5      -0.00473403      -0.00669492       0.00000000
In      -1.29589942       1.47104401       5.72221530        6      -0.00473403      -0.00669492       0.00000000
In      -1.81888007       7.33888278       1.90740510        7       0.00473403       0.00669492       0.00000000
In       4.41067891       0.18490158       4.13506913        8       0.00473403      -0.00334746      -0.00579797
In      -1.55738975       4.40496340      -0.00000000        9      -0.00000000       0.00000000       0.00000000
In       4.41067891       6.79234667       0.32025893       10       0.00473403      -0.00334746      -0.00579797
In      -1.29589942      -2.38738327       7.30936147       11      -0.00473403       0.00334746       0.00579797
In       4.41067891       2.93391939       1.90740510       12       0.00473403       0.00669492      -0.00000000
In       1.81888006       5.32130267       2.22766403       13      -0.00473403       0.00334746      -0.00579797
In       4.67216923       0.00000000      -0.00000000       14      -0.00000000      -0.00000000      -0.00000000
In       1.55738974       2.20248170       3.81481020       15      -0.00000000       0.00000000       0.00000000
O        1.00518566       4.41042497       4.11612829       16       0.00325343      -0.00638229      -0.00357580
O       -2.10959383       3.56194088       5.56682639       17       0.00325343       0.00009441       0.00731512
O       -0.45459814       2.39168221      -0.03584653       18      -0.00484379       0.00582001      -0.00260191
O       -1.00518566      -0.83756094       2.05333428       19      -0.00325343      -0.00628788       0.00373932
O        4.06142801       5.22182834       2.08918081       20      -0.00099546       0.00478567       0.00634123
O        2.16813097       3.00411221       1.75201619       21       0.00099546      -0.00309883       0.00731512
O        2.16813096       6.62267952       0.33716461       22       0.00099546       0.00788450      -0.00097389
O       -2.40643232       6.23881693       3.77896367       23      -0.00710176       0.00262677      -0.00260191
O        3.56937763       2.01328119       7.66546693       24       0.00484379      -0.00582001       0.00260191
O        5.52121181      -1.83385353       3.85065673       25       0.00710176      -0.00262677       0.00260191
O        6.68415712       3.36727880       1.72562939       26       0.00484379       0.00065669      -0.00634123
O        3.82312665       2.35575178       4.15197482       27      -0.00710176      -0.00356670      -0.00097389
O        0.70834717       4.62032148       7.32830231       28      -0.00710176       0.00093993       0.00357580
O        2.40643232      -0.21535808       0.30131809       29       0.00710176      -0.00093993      -0.00357580
O       -3.56937763       1.03768460       5.90399101       30      -0.00484379      -0.00065669       0.00634123
O        5.22437332       0.84302252       2.06279401       31      -0.00325343      -0.00009441      -0.00731512
O        0.94664852       1.40085119       5.87760421       32      -0.00099546       0.00309883      -0.00731512
O        3.56937763      -0.97559659       5.86814448       33       0.00484379       0.00516332       0.00373932
O        2.10959383      -0.00546157       3.51349211       34      -0.00325343       0.00638229       0.00357580
O        0.94664852      -2.21771612       7.29245579       35      -0.00099546      -0.00788450       0.00097389
O       -0.70834717       2.04921162       3.47764558       36       0.00710175       0.00356670       0.00097389
O       -0.94664852      -0.81686494       5.54043959       37       0.00099546      -0.00478567      -0.00634123
O       -0.45459814       5.38055999       1.76147592       38      -0.00484379      -0.00516332      -0.00373932
O        4.11996514       5.24252434       5.57628612       39       0.00325343       0.00628788      -0.00373932
