40
Lattice="8.919682340494338 6.991007772683133e-10 -4.440892098500626e-16 -2.9732274474905647 8.40955715842489 -1.2108789526621422e-09 -2.973227446501887 -4.204778578513344 7.282890134580484" Properties=species:S:1:pos:R:3:spacegroup_kinds:I:1:forces:R:3 spacegroup="P 1" unit_cell=conventional occupancy="_JSON {\"0\": {\"In\": 1}, \"1\": {\"In\": 1}, \"2\": {\"In\": 1}, \"3\": {\"In\": 1}, \"4\": {\"In\": 1}, \"5\": {\"In\": 1}, \"6\": {\"In\": 1}, \"7\": {\"In\": 1}, \"8\": {\"In\": 1}, \"9\": {\"In\": 1}, \"10\": {\"In\": 1}, \"11\": {\"In\": 1}, \"12\": {\"In\": 1}, \"13\": {\"In\": 1}, \"14\": {\"In\": 1}, \"15\": {\"In\": 1}, \"16\": {\"O\": 1}, \"17\": {\"O\": 1}, \"18\": {\"O\": 1}, \"19\": {\"O\": 1}, \"20\": {\"O\": 1}, \"21\": {\"O\": 1}, \"22\": {\"O\": 1}, \"23\": {\"O\": 1}, \"24\": {\"O\": 1}, \"25\": {\"O\": 1}, \"26\": {\"O\": 1}, \"27\": {\"O\": 1}, \"28\": {\"O\": 1}, \"29\": {\"O\": 1}, \"30\": {\"O\": 1}, \"31\": {\"O\": 1}, \"32\": {\"O\": 1}, \"33\": {\"O\": 1}, \"34\": {\"O\": 1}, \"35\": {\"O\": 1}, \"36\": {\"O\": 1}, \"37\": {\"O\": 1}, \"38\": {\"O\": 1}, \"39\": {\"O\": 1}}" n_minim_iter=1 energy=-45151.89591941656 stress="0.0005306067046038107 9.009248075286023e-13 -1.586815895851792e-13 9.009248075286023e-13 0.0005306067043476366 4.235826299860926e-13 -1.586815895851792e-13 4.235826299860926e-13 0.0005306067053905899" free_energy=-45151.89591941656 pbc="T T T"
In      -4.26096793       3.01295932       5.70573658        0       0.00454553      -0.00321418       0.00556712
In       7.23419537       1.19181926       1.57715355        1      -0.00454553       0.00321418      -0.00556712
In       1.28774048      -0.91057003       5.21859862        2      -0.00454553       0.00321418      -0.00556712
In      -1.48661372      -2.10238929       3.64144506        3       0.00000000       0.00000000       0.00000000
In      -1.28774048       4.06415396       3.39787608        4       0.00454553      -0.00321418      -0.00556712
In       4.65871441      -2.87233470       5.46216760        5       0.00454553       0.00642836       0.00000000
In      -1.28774048       1.33244388       5.46216760        6       0.00454553       0.00642836      -0.00000000
In      -1.68548697       7.07711328       1.82072253        7      -0.00454553      -0.00642836      -0.00000000
In       4.26096793       0.14062462       3.88501405        8      -0.00454553       0.00321418       0.00556712
In      -1.48661373       4.20477858      -0.00000000        9       0.00000000      -0.00000000      -0.00000000
In       4.26096793       6.44779249       0.24356898       10      -0.00454553       0.00321418       0.00556712
In      -1.28774048      -2.24301390       7.03932115       11       0.00454553      -0.00321418      -0.00556712
In       4.26096793       2.87233470       1.82072253       12      -0.00454553      -0.00642836       0.00000000
In       1.68548696       5.11534861       2.06429151       13       0.00454553      -0.00321418       0.00556712
In       4.45984117       0.00000000      -0.00000000       14      -0.00000000       0.00000000       0.00000000
In       1.48661372       2.10238929       3.64144506       15       0.00000000      -0.00000000       0.00000000
O        0.86923494       4.20407218       3.96292640       16       0.01787182       0.00994759      -0.00209893
O       -2.10399251       3.43234814       5.30203869       17       0.01787182      -0.00679152      -0.00756540
O       -0.43917542       2.25514469       0.05812474       18       0.00893284      -0.00047071      -0.01851337
O       -0.86923494      -0.77313684       1.98207496       19      -0.01787182       0.00315607      -0.00966433
O        3.93737969       5.01147376       1.92395022       20      -0.01236038      -0.01384477       0.00884904
O        2.00907520       2.94193640       1.66059362       21       0.01236038      -0.01458588      -0.00756540
O        2.00907520       6.27431593       0.26335659       22       0.01236038       0.00074111       0.01641444
O       -2.27256261       5.96951153       3.69956981       23       0.00342141      -0.00826506      -0.01851337
O        3.41240287       1.94963389       7.22476539       24      -0.00893284       0.00047071       0.01851337
O        5.24579006      -1.76473295       3.58332032       25      -0.00342141       0.00826506       0.01851337
O        6.38563031       3.28029914       1.71749485       26      -0.00893284      -0.01626840      -0.00884904
O        3.67389228       2.32155496       3.90480166       27       0.00342141      -0.01190052       0.01641444
O        0.70066483       4.32326925       6.96140879       28       0.00342141       0.02016558       0.00209893
O        2.27256261      -0.11849066       0.32148133       29      -0.00342141      -0.02016558      -0.00209893
O       -3.41240287       0.92447944       5.56539528       30       0.00893284       0.01626840       0.00884904
O        5.07721995       0.77243044       1.98085144       31      -0.01787182       0.00679152       0.00756540
O        0.96415225       1.26284218       5.62229651       32      -0.01236038       0.01458588       0.00756540
O        3.41240287      -1.02515445       5.62352003       33      -0.00893284       0.01579769      -0.00966433
O        2.10399251       0.00070640       3.31996373       34      -0.01787182      -0.00994759       0.00209893
O        0.96415225      -2.06953735       7.01953354       35      -0.01236038      -0.00074111      -0.01641444
O       -0.70066484       1.88322362       3.37808847       36      -0.00342141       0.01190052      -0.01641444
O       -0.96415225      -0.80669517       5.35893991       37       0.01236038       0.01384477      -0.00884904
O       -0.43917542       5.22993303       1.65937010       38       0.00893284      -0.01579769       0.00966433
O        3.84246239       4.97791542       5.30081517       39       0.01787182      -0.00315607       0.00966433
40
Lattice="8.917256268544952 6.989106160837539e-10 -4.131831373342282e-16 -2.97241875684059 8.407269835855539 -1.2105496164112691e-09 -2.9724187558521815 -4.203634917228861 7.280909255128561" Properties=species:S:1:pos:R:3:spacegroup_kinds:I:1:forces:R:3 spacegroup="P 1" unit_cell=conventional occupancy="_JSON {\"0\": {\"In\": 1}, \"1\": {\"In\": 1}, \"2\": {\"In\": 1}, \"3\": {\"In\": 1}, \"4\": {\"In\": 1}, \"5\": {\"In\": 1}, \"6\": {\"In\": 1}, \"7\": {\"In\": 1}, \"8\": {\"In\": 1}, \"9\": {\"In\": 1}, \"10\": {\"In\": 1}, \"11\": {\"In\": 1}, \"12\": {\"In\": 1}, \"13\": {\"In\": 1}, \"14\": {\"In\": 1}, \"15\": {\"In\": 1}, \"16\": {\"O\": 1}, \"17\": {\"O\": 1}, \"18\": {\"O\": 1}, \"19\": {\"O\": 1}, \"20\": {\"O\": 1}, \"21\": {\"O\": 1}, \"22\": {\"O\": 1}, \"23\": {\"O\": 1}, \"24\": {\"O\": 1}, \"25\": {\"O\": 1}, \"26\": {\"O\": 1}, \"27\": {\"O\": 1}, \"28\": {\"O\": 1}, \"29\": {\"O\": 1}, \"30\": {\"O\": 1}, \"31\": {\"O\": 1}, \"32\": {\"O\": 1}, \"33\": {\"O\": 1}, \"34\": {\"O\": 1}, \"35\": {\"O\": 1}, \"36\": {\"O\": 1}, \"37\": {\"O\": 1}, \"38\": {\"O\": 1}, \"39\": {\"O\": 1}}" n_minim_iter=2 energy=-45151.89604272774 stress="-2.1931417409157735e-05 -2.8703241543185214e-13 -2.630209268958254e-13 -2.8703241543185214e-13 -2.193141849607716e-05 1.6349673003690504e-13 -2.630209268958254e-13 1.6349673003690504e-13 -2.1931418381115553e-05" free_energy=-45151.89604272774 pbc="T T T"
In      -4.25980472       3.01213681       5.70418989        0       0.00336221      -0.00237744       0.00411785
In       7.23222348       1.19149812       1.57671936        1      -0.00336221       0.00237744      -0.00411785
In       1.28738596      -0.91031934       5.21717398        2      -0.00336221       0.00237744      -0.00411785
In      -1.48620938      -2.10181746       3.64045463        3       0.00000000       0.00000000      -0.00000000
In      -1.28738597       4.06304554       3.39694667        4       0.00336221      -0.00237744      -0.00411785
In       4.65745155      -2.87154742       5.46068194        5       0.00336221       0.00475489      -0.00000000
In      -1.28738597       1.33208750       5.46068194        6       0.00336221       0.00475489       0.00000000
In      -1.68503279       7.07518234       1.82022731        7      -0.00336221      -0.00475489       0.00000000
In       4.25980472       0.14058939       3.88396258        8      -0.00336221       0.00237744       0.00411785
In      -1.48620938       4.20363492      -0.00000000        9       0.00000000      -0.00000000      -0.00000000
In       4.25980472       6.44604176       0.24350795       10      -0.00336221       0.00237744       0.00411785
In      -1.28738597      -2.24240684       7.03740130       11       0.00336221      -0.00237744      -0.00411785
In       4.25980472       2.87154742       1.82022731       12      -0.00336221      -0.00475489       0.00000000
In       1.68503279       5.11395427       2.06373527       13       0.00336221      -0.00237744       0.00411785
In       4.45862813       0.00000000      -0.00000000       14      -0.00000000      -0.00000000      -0.00000000
In       1.48620938       2.10181746       3.64045462       15      -0.00000000       0.00000000       0.00000000
O        0.86901528       4.20293805       3.96184655       16       0.01734197       0.00985916       0.00045845
O       -2.10340347       3.43140820       5.30058948       17       0.01734197      -0.00453255      -0.00876751
O       -0.43904759       2.25453087       0.05809156       18       0.01080263       0.00009146      -0.01677653
O       -0.86901529      -0.77292359       1.98152679       19      -0.01734197       0.00532661      -0.00830906
O        3.93629716       5.01009769       1.92343522       20      -0.01005399      -0.01501254       0.00846747
O        2.00854034       2.94112254       1.66013486       21       0.01005399      -0.01483932      -0.00876751
O        2.00854034       6.27261007       0.26330036       22       0.01005399      -0.00017323       0.01723498
O       -2.27194129       5.96788013       3.69854619       23       0.00351465      -0.01021530      -0.01677653
O        3.41146634       1.94910405       7.22281769       24      -0.01080263      -0.00009146       0.01677653
O        5.24436004      -1.76424520       3.58236306       25      -0.00351465       0.01021530       0.01677653
O        6.38388510       3.27939167       1.71701940       26      -0.01080263      -0.01448317      -0.00846747
O        3.67289623       2.32091236       3.90375499       27       0.00351465      -0.00942125       0.01723498
O        0.70047747       4.32211228       6.95951732       28       0.00351465       0.01963656      -0.00045845
O        2.27194128      -0.11847735       0.32139193       29      -0.00351465      -0.01963656       0.00045845
O       -3.41146635       0.92424326       5.56388985       30       0.01080263       0.01448317       0.00846747
O        5.07582223       0.77222672       1.98031976       31      -0.01734197       0.00453256       0.00876751
O        0.96387841       1.26251238       5.62077439       32      -0.01005399       0.01483932       0.00876751
O        3.41146634      -1.02486079       5.62198141       33      -0.01080263       0.01457463      -0.00830906
O        2.10340347       0.00069688       3.31906270       34      -0.01734197      -0.00985916      -0.00045845
O        0.96387841      -2.06897515       7.01760889       35      -0.01005399       0.00017323      -0.01723498
O       -0.70047747       1.88272256       3.37715426       36      -0.00351465       0.00942125      -0.01723498
O       -0.96387841      -0.80646277       5.35747403       37       0.01005399       0.01501254      -0.00846747
O       -0.43904759       5.22849571       1.65892784       38       0.01080263      -0.01457463       0.00830906
O        3.84143404       4.97655851       5.29938246       39       0.01734197      -0.00532661       0.00830906
40
Lattice="8.917969583962645 6.98966525474709e-10 -4.116324410462583e-16 -2.97265652864654 8.40794235608082 -1.210646457992335e-09 -2.972656527658052 -4.203971177341447 7.281491674728278" Properties=species:S:1:pos:R:3:spacegroup_kinds:I:1:forces:R:3 spacegroup="P 1" unit_cell=conventional occupancy="_JSON {\"0\": {\"In\": 1}, \"1\": {\"In\": 1}, \"2\": {\"In\": 1}, \"3\": {\"In\": 1}, \"4\": {\"In\": 1}, \"5\": {\"In\": 1}, \"6\": {\"In\": 1}, \"7\": {\"In\": 1}, \"8\": {\"In\": 1}, \"9\": {\"In\": 1}, \"10\": {\"In\": 1}, \"11\": {\"In\": 1}, \"12\": {\"In\": 1}, \"13\": {\"In\": 1}, \"14\": {\"In\": 1}, \"15\": {\"In\": 1}, \"16\": {\"O\": 1}, \"17\": {\"O\": 1}, \"18\": {\"O\": 1}, \"19\": {\"O\": 1}, \"20\": {\"O\": 1}, \"21\": {\"O\": 1}, \"22\": {\"O\": 1}, \"23\": {\"O\": 1}, \"24\": {\"O\": 1}, \"25\": {\"O\": 1}, \"26\": {\"O\": 1}, \"27\": {\"O\": 1}, \"28\": {\"O\": 1}, \"29\": {\"O\": 1}, \"30\": {\"O\": 1}, \"31\": {\"O\": 1}, \"32\": {\"O\": 1}, \"33\": {\"O\": 1}, \"34\": {\"O\": 1}, \"35\": {\"O\": 1}, \"36\": {\"O\": 1}, \"37\": {\"O\": 1}, \"38\": {\"O\": 1}, \"39\": {\"O\": 1}}" n_minim_iter=3 energy=-45151.89701017074 stress="-3.4976205880089645e-06 6.305847869446913e-13 -6.258460278405418e-14 6.305847869446913e-13 -3.497621801077612e-06 -1.5921531082075785e-13 -6.258460278405418e-14 -1.5921531082075785e-13 -3.4976218210867904e-06" free_energy=-45151.89701017074 pbc="T T T"
In      -4.25948459       3.01191044       5.70545560        0       0.00923122      -0.00652746       0.01130589
In       7.23214112       1.19206074       1.57603607        1      -0.00923122       0.00652746      -0.01130589
In       1.28682806      -0.90992485       5.21678191        2      -0.00923122       0.00652746      -0.01130589
In      -1.48632827      -2.10198559       3.64074584        3       0.00000000       0.00000000       0.00000000
In      -1.28682807       4.06290324       3.39640899        4       0.00923122      -0.00652746      -0.01130589
In       4.65848499      -2.87084249       5.46111875        5       0.00923122       0.01305491      -0.00000000
In      -1.28682807       1.33312869       5.46111875        6       0.00923122       0.01305491      -0.00000000
In      -1.68582847       7.07481367       1.82037292        7      -0.00923122      -0.01305491      -0.00000000
In       4.25948459       0.14106795       3.88508268        8      -0.00923122       0.00652746       0.01130589
In      -1.48632827       4.20397118      -0.00000000        9      -0.00000000       0.00000000      -0.00000000
In       4.25948459       6.44702471       0.24433684       10      -0.00923122       0.00652746       0.01130589
In      -1.28682807      -2.24305353       7.03715483       11       0.00923122      -0.00652746      -0.01130589
In       4.25948459       2.87084250       1.82037292       12      -0.00923122      -0.01305491       0.00000000
In       1.68582846       5.11389603       2.06470976       13       0.00923122      -0.00652746       0.01130589
In       4.45898479       0.00000000      -0.00000000       14      -0.00000000       0.00000000       0.00000000
In       1.48632826       2.10198559       3.64074583       15       0.00000000       0.00000000       0.00000000
O        0.87245216       4.20518706       3.96223339       16       0.00759685      -0.01791464      -0.00738168
O       -2.10020437       3.43078683       5.29932199       17       0.00759685       0.00256460       0.01920538
O       -0.43700147       2.25472478       0.05482955       18      -0.01193987       0.01637916      -0.00472213
O       -0.87245216      -0.77196847       1.98006371       19      -0.00759685      -0.01535004       0.01182370
O        3.93464496       5.00759550       1.92523416       20      -0.00011436       0.01262372       0.01654583
O        2.01066809       2.93848165       1.65857616       21       0.00011436      -0.00801725       0.01920538
O        2.01066809       6.27308503       0.26665800       22       0.00011436       0.02064097      -0.00265955
O       -2.27144206       5.96639078       3.69557538       23      -0.01942237       0.00579730      -0.00472213
O        3.40965799       1.94924640       7.22666212       24       0.01193987      -0.01637915       0.00472213
O        5.24409859      -1.76241959       3.58591629       25       0.01942237      -0.00579730       0.00472213
O        6.38231452       3.27683176       1.71551167       26       0.01193987       0.00410009      -0.01654583
O        3.67387099       2.31925237       3.90740384       27      -0.01942237      -0.00698814      -0.00265955
O        0.70121447       4.32627039       6.96000412       28      -0.01942237       0.00119083       0.00738168
O        2.27144206      -0.12229921       0.32148755       29       0.01942237      -0.00119083      -0.00738168
O       -3.40965799       0.92713942       5.56597999       30      -0.01193987      -0.00410009       0.01654583
O        5.07286090       0.77318435       1.98216968       31      -0.00759685      -0.00256460      -0.01920538
O        0.96198844       1.26548953       5.62291551       32      -0.00011436       0.00801725      -0.01920538
O        3.40965799      -1.02210698       5.62080954       33       0.01193987       0.01227906       0.01182370
O        2.10020437      -0.00121588       3.31925828       34      -0.00759685       0.01791464       0.00738168
O        0.96198844      -2.06911385       7.01483367       35      -0.00011436      -0.02064097       0.00265955
O       -0.70121447       1.88471881       3.37408783       36       0.01942237       0.00698814       0.00265955
O       -0.96198844      -0.80362432       5.35625751       37       0.00011436      -0.01262372      -0.01654583
O       -0.43700147       5.22607816       1.66068212       38      -0.01193987      -0.01227906      -0.01182370
O        3.84510868       4.97593965       5.30142796       39       0.00759685       0.01535004      -0.01182370
40
Lattice="8.918995550398266 6.990469368589e-10 -4.1257273532273445e-16 -2.9729985174584894 8.408909646512656 -1.2107857394228363e-09 -2.9729985164698873 -4.204454822557285 7.282329372815179" Properties=species:S:1:pos:R:3:spacegroup_kinds:I:1:forces:R:3 spacegroup="P 1" unit_cell=conventional occupancy="_JSON {\"0\": {\"In\": 1}, \"1\": {\"In\": 1}, \"2\": {\"In\": 1}, \"3\": {\"In\": 1}, \"4\": {\"In\": 1}, \"5\": {\"In\": 1}, \"6\": {\"In\": 1}, \"7\": {\"In\": 1}, \"8\": {\"In\": 1}, \"9\": {\"In\": 1}, \"10\": {\"In\": 1}, \"11\": {\"In\": 1}, \"12\": {\"In\": 1}, \"13\": {\"In\": 1}, \"14\": {\"In\": 1}, \"15\": {\"In\": 1}, \"16\": {\"O\": 1}, \"17\": {\"O\": 1}, \"18\": {\"O\": 1}, \"19\": {\"O\": 1}, \"20\": {\"O\": 1}, \"21\": {\"O\": 1}, \"22\": {\"O\": 1}, \"23\": {\"O\": 1}, \"24\": {\"O\": 1}, \"25\": {\"O\": 1}, \"26\": {\"O\": 1}, \"27\": {\"O\": 1}, \"28\": {\"O\": 1}, \"29\": {\"O\": 1}, \"30\": {\"O\": 1}, \"31\": {\"O\": 1}, \"32\": {\"O\": 1}, \"33\": {\"O\": 1}, \"34\": {\"O\": 1}, \"35\": {\"O\": 1}, \"36\": {\"O\": 1}, \"37\": {\"O\": 1}, \"38\": {\"O\": 1}, \"39\": {\"O\": 1}}" n_minim_iter=4 energy=-45151.897669660146 stress="4.364224991419309e-06 -7.003137711466085e-13 -7.389693857541277e-13 -7.003137711466085e-13 4.36422331686306e-06 -5.454758410632015e-13 -7.389693857541277e-13 -5.454758410632015e-13 4.364225377394088e-06" free_energy=-45151.897669660146 pbc="T T T"
In      -4.25898885       3.01155990       5.70731931        0       0.00234114      -0.00165544       0.00286730
In       7.23198736       1.19289493       1.57501006        1      -0.00234114       0.00165544      -0.00286730
In       1.28599033      -0.90933248       5.21617474        2      -0.00234114       0.00165544      -0.00286730
In      -1.48649926      -2.10222741       3.64116468        3       0.00000000       0.00000000       0.00000000
In      -1.28599033       4.06267360       3.39559240        4       0.00234114      -0.00165544      -0.00286730
In       4.66000670      -2.86977867       5.46174703        5       0.00234114       0.00331087       0.00000000
In      -1.28599033       1.33467616       5.46174703        6       0.00234114       0.00331087       0.00000000
In      -1.68700819       7.07423349       1.82058234        7      -0.00234114      -0.00331087      -0.00000000
In       4.25898884       0.14178123       3.88673697        8      -0.00234114       0.00165544       0.00286730
In      -1.48649926       4.20445482      -0.00000000        9      -0.00000000       0.00000000      -0.00000000
In       4.25898884       6.44846346       0.24557228       10      -0.00234114       0.00165544       0.00286730
In      -1.28599033      -2.24400863       7.03675709       11       0.00234114      -0.00165544      -0.00286730
In       4.25898884       2.86977867       1.82058234       12      -0.00234114      -0.00331087      -0.00000000
In       1.68700819       5.11378731       2.06615462       13       0.00234114      -0.00165544       0.00286730
In       4.45949777       0.00000000      -0.00000000       14       0.00000000      -0.00000000       0.00000000
In       1.48649926       2.10222741       3.64116468       15       0.00000000       0.00000000      -0.00000000
O        0.87475904       4.20533740       3.96219634       16       0.00417108      -0.00849430       0.00116968
O       -2.09823948       3.43092141       5.30046686       17       0.00417108       0.00526012       0.00677144
O       -0.43687586       2.25615992       0.05288406       18      -0.00165885       0.00938251      -0.00036874
O       -0.87475904      -0.77265084       1.98033384       19      -0.00417108      -0.00323417       0.00794112
O        3.93411688       5.00763830       1.92744977       20       0.00356893       0.00302128       0.00830986
O        2.01188015       2.93682609       1.65930218       21      -0.00356893      -0.00568591       0.00677144
O        2.01188015       6.27526703       0.26814759       22      -0.00356893       0.00870719       0.00153842
O       -2.27275326       5.96651944       3.69404875       23      -0.00939886      -0.00156352      -0.00036874
O        3.40987437       1.94829490       7.22944530       24       0.00165885      -0.00938251       0.00036874
O        5.24575178      -1.76206461       3.58828062       25       0.00939886       0.00156352       0.00036874
O        6.38287289       3.27610632       1.71371491       26       0.00165885       0.00437192      -0.00830986
O        3.67324377       2.31810776       3.90931228       27      -0.00939886       0.00046243       0.00153842
O        0.70024526       4.32873728       6.96129771       28      -0.00939886       0.00110110      -0.00116968
O        2.27275326      -0.12428245       0.32103166       29       0.00939886      -0.00110110       0.00116968
O       -3.40987437       0.92834851       5.56861446       30      -0.00165885      -0.00437192       0.00830986
O        5.07123799       0.77353342       1.98186250       31      -0.00417108      -0.00526012      -0.00677144
O        0.96111836       1.26762873       5.62302719       32       0.00356893       0.00568591      -0.00677144
O        3.40987437      -1.01994639       5.62149853       33       0.00165885       0.00501059       0.00794112
O        2.09823947      -0.00088257       3.32013302       34      -0.00417108       0.00849430      -0.00116968
O        0.96111836      -2.07081220       7.01418178       35       0.00356893      -0.00870719      -0.00153842
O       -0.70024526       1.88634707       3.37301709       36       0.00939886      -0.00046243      -0.00153842
O       -0.96111836      -0.80318347       5.35487960       37      -0.00356893      -0.00302128      -0.00830986
O       -0.43687586       5.22440122       1.66083084       38      -0.00165885      -0.00501059      -0.00794112
O        3.84775756       4.97710567       5.30199553       39       0.00417108       0.00323417      -0.00794112
