40
Lattice="8.192501220627804 6.421030374070831e-10 2.3536728122053334e-14 -2.730833740814649 7.723964223765958 -1.1121739085240295e-09 -2.7308337399065974 -3.8619821112408657 6.6891492364449014" Properties=species:S:1:pos:R:3:spacegroup_kinds:I:1:forces:R:3 spacegroup="P 1" unit_cell=conventional occupancy="_JSON {\"0\": {\"In\": 1}, \"1\": {\"In\": 1}, \"2\": {\"In\": 1}, \"3\": {\"In\": 1}, \"4\": {\"In\": 1}, \"5\": {\"In\": 1}, \"6\": {\"In\": 1}, \"7\": {\"In\": 1}, \"8\": {\"In\": 1}, \"9\": {\"In\": 1}, \"10\": {\"In\": 1}, \"11\": {\"In\": 1}, \"12\": {\"In\": 1}, \"13\": {\"In\": 1}, \"14\": {\"In\": 1}, \"15\": {\"In\": 1}, \"16\": {\"O\": 1}, \"17\": {\"O\": 1}, \"18\": {\"O\": 1}, \"19\": {\"O\": 1}, \"20\": {\"O\": 1}, \"21\": {\"O\": 1}, \"22\": {\"O\": 1}, \"23\": {\"O\": 1}, \"24\": {\"O\": 1}, \"25\": {\"O\": 1}, \"26\": {\"O\": 1}, \"27\": {\"O\": 1}, \"28\": {\"O\": 1}, \"29\": {\"O\": 1}, \"30\": {\"O\": 1}, \"31\": {\"O\": 1}, \"32\": {\"O\": 1}, \"33\": {\"O\": 1}, \"34\": {\"O\": 1}, \"35\": {\"O\": 1}, \"36\": {\"O\": 1}, \"37\": {\"O\": 1}, \"38\": {\"O\": 1}, \"39\": {\"O\": 1}}" n_minim_iter=6 energy=-45138.4996622808 stress="-0.2880178872087784 3.9885468576237337e-13 5.731875153184431e-13 3.9885468576237337e-13 -0.2880178872070455 1.4786800569454317e-12 5.731875153184431e-13 1.4786800569454317e-12 -0.2880178872086573" free_energy=-45138.4996622808 pbc="T T T"
In      -3.86974764       2.73632480       5.29427028        0      -0.00012678       0.00008965      -0.00015527
In       6.60058138       1.12565732       1.39487895        1       0.00012678      -0.00008965       0.00015527
In       1.13891390      -0.80533374       4.73945357        2       0.00012678      -0.00008965       0.00015527
In      -1.36541687      -1.93099105       3.34457462        3       0.00000000       0.00000000       0.00000000
In      -1.13891390       3.70182033       3.06716626        4      -0.00012678       0.00008965       0.00015527
In       4.32275358      -2.57616300       5.01686193        5      -0.00012678      -0.00017929       0.00000000
In      -1.13891390       1.28581911       5.01686192        6      -0.00012678      -0.00017929      -0.00000000
In      -1.59191985       6.43814512       1.67228731        7       0.00012678       0.00017929       0.00000000
In       3.86974764       0.16016179       3.62198297        8       0.00012678      -0.00008965      -0.00015527
In      -1.36541687       3.86198211      -0.00000000        9       0.00000000       0.00000000      -0.00000000
In       3.86974764       5.95313496       0.27740835       10       0.00012678      -0.00008965      -0.00015527
In      -1.13891390      -2.09115284       6.41174088       11      -0.00012678       0.00008965       0.00015527
In       3.86974764       2.57616301       1.67228731       12       0.00012678       0.00017929       0.00000000
In       1.59191984       4.66731585       1.94969566       13      -0.00012678       0.00008965      -0.00015527
In       4.09625061       0.00000000      -0.00000000       14       0.00000000       0.00000000       0.00000000
In       1.36541687       1.93099106       3.34457462       15       0.00000000      -0.00000000      -0.00000000
O        0.80579559       3.84723069       3.72979631       16      -0.00010749      -0.00011052       0.00082795
O       -1.92503815       3.23747407       4.83702619       17      -0.00010749       0.00077228      -0.00031826
O       -0.33410108       2.11251168       0.09636897       18       0.00058809       0.00028044       0.00053364
O       -0.80579559      -0.63925947       1.87767326       19       0.00010749       0.00066176       0.00050969
O        3.69399921       4.55688024       1.78130429       20       0.00076395      -0.00035366      -0.00002395
O        1.76766827       2.66677641       1.49245157       21      -0.00076395      -0.00015609      -0.00031826
O        1.76766827       5.75208594       0.28885271       22      -0.00076395      -0.00019758       0.00029431
O       -2.10306214       5.40379613       3.44094359       23      -0.00006837      -0.00064793       0.00053364
O        3.06493482       1.74947044       6.59278026       24      -0.00058809      -0.00028044      -0.00053364
O        4.83389587      -1.54181401       3.24820564       25       0.00006837       0.00064793      -0.00053364
O        5.79576856       3.07070488       1.56327032       26      -0.00058809       0.00060237       0.00002395
O        3.35860534       2.20903756       3.63342733       27      -0.00006837       0.00078611       0.00029431
O        0.62777160       3.97311265       6.30392754       28      -0.00006837      -0.00013818      -0.00082795
O        2.10306213      -0.11113054       0.38522169       29       0.00006837       0.00013818       0.00082795
O       -3.06493482       0.79127724       5.12587891       30       0.00058809      -0.00060237      -0.00002395
O        4.65587189       0.62450804       1.85212304       31       0.00010749      -0.00077228       0.00031826
O        0.96316547       1.19520571       5.19669766       32       0.00076395       0.00015609       0.00031826
O        3.06493482      -0.95819320       5.22224788       33      -0.00058809      -0.00032193       0.00050969
O        1.92503815       0.01475143       2.95935292       34       0.00010749       0.00011052      -0.00082795
O        0.96316547      -1.89010383       6.40029652       35       0.00076395       0.00019758      -0.00029431
O       -0.62777161       1.65294456       3.05572190       36       0.00006837      -0.00078611      -0.00029431
O       -0.96316547      -0.69489812       4.90784494       37      -0.00076395       0.00035366       0.00002395
O       -0.33410108       4.82017531       1.46690135       38       0.00058809       0.00032193      -0.00050969
O        3.53662933       4.50124158       4.81147597       39      -0.00010749      -0.00066176      -0.00050969
