40
Lattice="9.411566230938277 7.376539379322367e-10 2.7977620220553945e-14 -3.1371887443415587 8.873309737731145 -1.2776841806783068e-09 -3.1371887432983834 -4.436654868127901 7.684511649374777" Properties=species:S:1:pos:R:3:spacegroup_kinds:I:1:forces:R:3 spacegroup="P 1" unit_cell=conventional occupancy="_JSON {\"0\": {\"In\": 1}, \"1\": {\"In\": 1}, \"2\": {\"In\": 1}, \"3\": {\"In\": 1}, \"4\": {\"In\": 1}, \"5\": {\"In\": 1}, \"6\": {\"In\": 1}, \"7\": {\"In\": 1}, \"8\": {\"In\": 1}, \"9\": {\"In\": 1}, \"10\": {\"In\": 1}, \"11\": {\"In\": 1}, \"12\": {\"In\": 1}, \"13\": {\"In\": 1}, \"14\": {\"In\": 1}, \"15\": {\"In\": 1}, \"16\": {\"O\": 1}, \"17\": {\"O\": 1}, \"18\": {\"O\": 1}, \"19\": {\"O\": 1}, \"20\": {\"O\": 1}, \"21\": {\"O\": 1}, \"22\": {\"O\": 1}, \"23\": {\"O\": 1}, \"24\": {\"O\": 1}, \"25\": {\"O\": 1}, \"26\": {\"O\": 1}, \"27\": {\"O\": 1}, \"28\": {\"O\": 1}, \"29\": {\"O\": 1}, \"30\": {\"O\": 1}, \"31\": {\"O\": 1}, \"32\": {\"O\": 1}, \"33\": {\"O\": 1}, \"34\": {\"O\": 1}, \"35\": {\"O\": 1}, \"36\": {\"O\": 1}, \"37\": {\"O\": 1}, \"38\": {\"O\": 1}, \"39\": {\"O\": 1}}" n_minim_iter=1 energy=-45147.434252541774 stress="0.09178552884585864 -2.449544208107302e-13 4.685668111843701e-13 -2.449544208107302e-13 0.09178552884644486 -7.797418298679925e-15 4.685668111843701e-13 -7.797418298679925e-15 0.09178552884584991" free_energy=-45147.434252541774 pbc="T T T"
In      -4.44241151       3.14125930       6.08594676        0       0.07375751      -0.05215444       0.09033414
In       7.57960025       1.29539557       1.59856488        1      -0.07375751       0.05215444      -0.09033414
In       1.30522276      -0.92293186       5.44082070        2      -0.07375751       0.05215444      -0.09033414
In      -1.56859437      -2.21832743       3.84225582        3       0.00000000      -0.00000000       0.00000000
In      -1.30522276       4.25042302       3.51969279        4       0.07375751      -0.05215444      -0.09033414
In       4.96915473      -2.95502744       5.76338373        5       0.07375751       0.10430888      -0.00000000
In      -1.30522276       1.48162742       5.76338373        6       0.07375751       0.10430888      -0.00000000
In      -1.83196599       7.39168232       1.92112791        7      -0.07375751      -0.10430888       0.00000000
In       4.44241150       0.18623185       4.16481885        8      -0.07375751       0.05215444       0.09033414
In      -1.56859437       4.43665487      -0.00000000        9       0.00000000      -0.00000000      -0.00000000
In       4.44241150       6.84121416       0.32256303       10      -0.07375751       0.05215444       0.09033414
In      -1.30522276      -2.40455928       7.36194862       11       0.07375751      -0.05215444      -0.09033414
In       4.44241150       2.95502745       1.92112791       12      -0.07375751      -0.10430888       0.00000000
In       1.83196598       5.35958674       2.24369094       13       0.07375751      -0.05215444       0.09033414
In       4.70578311       0.00000000      -0.00000000       14       0.00000000       0.00000000      -0.00000000
In       1.56859437       2.21832744       3.84225582       15       0.00000000       0.00000000       0.00000000
O        1.01241746       4.44215574       4.14574174       16       0.03517558      -0.00758764      -0.06920435
O       -2.12477129       3.58756723       5.60687688       17       0.03517558      -0.05613890       0.04117326
O       -0.45786875       2.40888914      -0.03610443       18      -0.04835677       0.00292739      -0.06113255
O       -1.01241746      -0.84358676       2.06810698       19      -0.03517558      -0.06372654      -0.02803108
O        4.09064792       5.25939674       2.10421140       20      -0.06465346       0.02843165       0.03310147
O        2.18372957       3.02572527       1.76462106       21       0.06465346      -0.01445089       0.04117326
O        2.18372957       6.67032634       0.33959034       22       0.06465346       0.04288254      -0.00807179
O       -2.42374538       6.28370205       3.80615139       23      -0.01887889       0.04461540      -0.06113255
O        3.59505749       2.02776573       7.72061607       24       0.04835677      -0.00292739       0.06113255
O        5.56093412      -1.84704718       3.87836025       25       0.01887889      -0.04461540       0.06113255
O        6.73224623       3.39150466       1.73804442       26       0.04835677      -0.05147865      -0.03310147
O        3.85063211       2.37270021       4.18184617       27      -0.01887889      -0.07525004      -0.00807179
O        0.71344336       4.65356235       7.38102573       28      -0.01887889       0.03063464       0.06920435
O        2.42374538      -0.21690748       0.30348592       29       0.01887889      -0.03063464      -0.06920435
O       -3.59505749       1.04515022       5.94646723       30      -0.04835677       0.05147865       0.03310147
O        5.26196003       0.84908764       2.07763476       31      -0.03517558       0.05613890      -0.04117326
O        0.95345917       1.41092960       5.91989059       32      -0.06465346       0.01445089      -0.04117326
O        3.59505749      -0.98261551       5.91036280       33       0.04835677       0.05440604      -0.02803108
O        2.12477128      -0.00550087       3.53876990       34      -0.03517558       0.00758764       0.06920435
O        0.95345917      -2.23367146       7.34492130       35      -0.06465346      -0.04288254       0.00807179
O       -0.71344337       2.06395466       3.50266548       36       0.01887889       0.07525004       0.00807179
O       -0.95345918      -0.82274186       5.58030024       37       0.06465346      -0.02843165      -0.03310147
O       -0.45786875       5.41927038       1.77414884       38      -0.04835677      -0.05440604       0.02803108
O        4.14960620       5.28024164       5.61640467       39       0.03517558       0.06372654       0.02803108
40
Lattice="9.411566230938288 7.376539379322375e-10 2.7977620220554005e-14 -3.1371887443415623 8.873309737731155 -1.2776841806783089e-09 -3.137188743298387 -4.436654868127906 7.684511649374788" Properties=species:S:1:pos:R:3:spacegroup_kinds:I:1:forces:R:3 spacegroup="P 1" unit_cell=conventional occupancy="_JSON {\"0\": {\"In\": 1}, \"1\": {\"In\": 1}, \"2\": {\"In\": 1}, \"3\": {\"In\": 1}, \"4\": {\"In\": 1}, \"5\": {\"In\": 1}, \"6\": {\"In\": 1}, \"7\": {\"In\": 1}, \"8\": {\"In\": 1}, \"9\": {\"In\": 1}, \"10\": {\"In\": 1}, \"11\": {\"In\": 1}, \"12\": {\"In\": 1}, \"13\": {\"In\": 1}, \"14\": {\"In\": 1}, \"15\": {\"In\": 1}, \"16\": {\"O\": 1}, \"17\": {\"O\": 1}, \"18\": {\"O\": 1}, \"19\": {\"O\": 1}, \"20\": {\"O\": 1}, \"21\": {\"O\": 1}, \"22\": {\"O\": 1}, \"23\": {\"O\": 1}, \"24\": {\"O\": 1}, \"25\": {\"O\": 1}, \"26\": {\"O\": 1}, \"27\": {\"O\": 1}, \"28\": {\"O\": 1}, \"29\": {\"O\": 1}, \"30\": {\"O\": 1}, \"31\": {\"O\": 1}, \"32\": {\"O\": 1}, \"33\": {\"O\": 1}, \"34\": {\"O\": 1}, \"35\": {\"O\": 1}, \"36\": {\"O\": 1}, \"37\": {\"O\": 1}, \"38\": {\"O\": 1}, \"39\": {\"O\": 1}}" n_minim_iter=2 energy=-45147.457179797195 stress="0.08836059421553044 -4.204518006954988e-13 7.501946630920862e-13 -4.204518006954988e-13 0.08836059421435195 -1.420567285632429e-12 7.501946630920862e-13 -1.420567285632429e-12 0.08836059421632197" free_energy=-45147.457179797195 pbc="T T T"
In      -4.43248643       3.13424121       6.09810245        0       0.00645907      -0.00456725       0.00791071
In       7.56967517       1.30241366       1.58640919        1      -0.00645907       0.00456725      -0.00791071
In       1.29529768      -0.91591377       5.42866502        2      -0.00645907       0.00456725      -0.00791071
In      -1.56859437      -2.21832743       3.84225582        3      -0.00000000      -0.00000000       0.00000000
In      -1.29529768       4.24340493       3.50753710        4       0.00645907      -0.00456725      -0.00791071
In       4.97907980      -2.94099127       5.76338373        5       0.00645907       0.00913450      -0.00000000
In      -1.29529768       1.49566360       5.76338373        6       0.00645907       0.00913450      -0.00000000
In      -1.84189106       7.37764614       1.92112791        7      -0.00645907      -0.00913450       0.00000000
In       4.43248643       0.19324994       4.17697454        8      -0.00645907       0.00456725       0.00791071
In      -1.56859437       4.43665487      -0.00000000        9      -0.00000000      -0.00000000      -0.00000000
In       4.43248642       6.84823225       0.33471871       10      -0.00645907       0.00456725       0.00791071
In      -1.29529768      -2.41157737       7.34979293       11       0.00645907      -0.00456725      -0.00791071
In       4.43248642       2.94099127       1.92112791       12      -0.00645907      -0.00913450      -0.00000000
In       1.84189106       5.35256865       2.25584663       13       0.00645907      -0.00456725       0.00791071
In       4.70578311       0.00000000      -0.00000000       14      -0.00000000       0.00000000      -0.00000000
In       1.56859437       2.21832744       3.84225582       15       0.00000000       0.00000000      -0.00000000
O        1.01715081       4.44113472       4.13642935       16       0.02073754      -0.01540496       0.02562810
O       -2.12003793       3.58001298       5.61241730       17       0.02073754       0.02989706       0.00052704
O       -0.46437581       2.40928306      -0.04433065       18       0.02057580       0.03001143       0.00032895
O       -1.01715081      -0.85216204       2.06433501       19      -0.02073754       0.01449210       0.02615513
O        4.08194791       5.26322260       2.10866566       20       0.02127471      -0.01430218       0.02582618
O        2.19242957       3.02378071       1.77016148       21      -0.02127471      -0.02951722       0.00052704
O        2.19242957       6.67609677       0.33850417       22      -0.02127471       0.01521504       0.02529915
O       -2.42628579       6.28970566       3.79792518       23      -0.02143645      -0.02940286       0.00032895
O        3.60156455       2.02737181       7.72884229       24      -0.02057580      -0.03001143      -0.00032895
O        5.56347453      -1.85305079       3.88658647       25       0.02143645       0.02940286      -0.00032895
O        6.73875329       3.38457750       1.73359016       26      -0.02057580       0.01529059      -0.02582618
O        3.84809170       2.36257430       4.18076000       27      -0.02143645       0.01498631       0.02529915
O        0.71090295       4.65768466       7.39033811       28      -0.02143645       0.01441655      -0.02562810
O        2.42628579      -0.22102978       0.29417353       29       0.02143645      -0.01441655       0.02562810
O       -3.60156455       1.05207737       5.95092148       30       0.02057580      -0.01529059       0.02582618
O        5.25722667       0.85664189       2.07209434       31      -0.02073754      -0.02989706      -0.00052704
O        0.94475917       1.41287417       5.91435016       32       0.02127471       0.02951722      -0.00052704
O        3.60156455      -0.97529444       5.90659084       33      -0.02057580       0.01472084       0.02615513
O        2.12003793      -0.00447985       3.54808229       34      -0.02073754       0.01540496      -0.02562810
O        0.94475917      -2.23944189       7.34600747       35       0.02127471      -0.01521504      -0.02529915
O       -0.71090295       2.07408058       3.50375165       36       0.02143645      -0.01498631      -0.02529915
O       -0.94475917      -0.82656773       5.57584599       37      -0.02127471       0.01430218      -0.02582618
O       -0.46437581       5.41194931       1.77792081       38       0.02057580      -0.01472084      -0.02615513
O        4.15433955       5.28881691       5.62017663       39       0.02073754      -0.01449210      -0.02615513
40
Lattice="9.411566230938288 7.376539379322377e-10 2.7977620220553992e-14 -3.1371887443415623 8.873309737731157 -1.2776841806783089e-09 -3.137188743298387 -4.436654868127907 7.68451164937479" Properties=species:S:1:pos:R:3:spacegroup_kinds:I:1:forces:R:3 spacegroup="P 1" unit_cell=conventional occupancy="_JSON {\"0\": {\"In\": 1}, \"1\": {\"In\": 1}, \"2\": {\"In\": 1}, \"3\": {\"In\": 1}, \"4\": {\"In\": 1}, \"5\": {\"In\": 1}, \"6\": {\"In\": 1}, \"7\": {\"In\": 1}, \"8\": {\"In\": 1}, \"9\": {\"In\": 1}, \"10\": {\"In\": 1}, \"11\": {\"In\": 1}, \"12\": {\"In\": 1}, \"13\": {\"In\": 1}, \"14\": {\"In\": 1}, \"15\": {\"In\": 1}, \"16\": {\"O\": 1}, \"17\": {\"O\": 1}, \"18\": {\"O\": 1}, \"19\": {\"O\": 1}, \"20\": {\"O\": 1}, \"21\": {\"O\": 1}, \"22\": {\"O\": 1}, \"23\": {\"O\": 1}, \"24\": {\"O\": 1}, \"25\": {\"O\": 1}, \"26\": {\"O\": 1}, \"27\": {\"O\": 1}, \"28\": {\"O\": 1}, \"29\": {\"O\": 1}, \"30\": {\"O\": 1}, \"31\": {\"O\": 1}, \"32\": {\"O\": 1}, \"33\": {\"O\": 1}, \"34\": {\"O\": 1}, \"35\": {\"O\": 1}, \"36\": {\"O\": 1}, \"37\": {\"O\": 1}, \"38\": {\"O\": 1}, \"39\": {\"O\": 1}}" n_minim_iter=3 energy=-45147.45886558174 stress="0.08843002817178715 -9.362437962355323e-14 -4.90254668867551e-13 -9.362437962355323e-14 0.08843002817206203 6.254939253544482e-13 -4.90254668867551e-13 6.254939253544482e-13 0.08843002817262342" free_energy=-45147.45886558174 pbc="T T T"
In      -4.43218745       3.13402980       6.09846862        0       0.00748181      -0.00529044       0.00916331
In       7.56937619       1.30262507       1.58604302        1      -0.00748181       0.00529044      -0.00916331
In       1.29499871      -0.91570236       5.42829885        2      -0.00748181       0.00529044      -0.00916331
In      -1.56859437      -2.21832743       3.84225582        3      -0.00000000       0.00000000       0.00000000
In      -1.29499871       4.24319352       3.50717093        4       0.00748181      -0.00529044      -0.00916331
In       4.97937878      -2.94056845       5.76338373        5       0.00748181       0.01058088      -0.00000000
In      -1.29499871       1.49608642       5.76338373        6       0.00748181       0.01058088      -0.00000000
In      -1.84219004       7.37722332       1.92112791        7      -0.00748181      -0.01058088      -0.00000000
In       4.43218745       0.19346135       4.17734071        8      -0.00748181       0.00529044       0.00916331
In      -1.56859437       4.43665487      -0.00000000        9       0.00000000       0.00000000      -0.00000000
In       4.43218745       6.84844366       0.33508488       10      -0.00748181       0.00529044       0.00916331
In      -1.29499871      -2.41178878       7.34942676       11       0.00748181      -0.00529044      -0.00916331
In       4.43218745       2.94056845       1.92112791       12      -0.00748181      -0.01058088       0.00000000
In       1.84219003       5.35235724       2.25621280       13       0.00748181      -0.00529044       0.00916331
In       4.70578311       0.00000000      -0.00000000       14       0.00000000      -0.00000000      -0.00000000
In       1.56859437       2.21832744       3.84225582       15      -0.00000000       0.00000000      -0.00000000
O        1.01853607       4.44006656       4.13837900       16       0.01743533       0.00056857       0.00798516
O       -2.11865267       3.58223551       5.61236754       17       0.01743533       0.00663107      -0.00448497
O       -0.46282571       2.41138903      -0.04417853       18       0.01259965       0.01005040      -0.01040744
O       -1.01853607      -0.85100767       2.06623489       19      -0.01743533       0.00719963       0.00350019
O        4.08358158       5.26215606       2.11041342       20       0.00044005      -0.01320837       0.01390762
O        2.19079590       3.02173383       1.77011171       21      -0.00044005      -0.01864854      -0.00448497
O        2.19079590       6.67707710       0.34030171       22      -0.00044005       0.00544017       0.01839259
O       -2.42775462       6.28754222       3.79807729       23      -0.00527573      -0.01522920      -0.01040744
O        3.60001445       2.02526584       7.72869017       24      -0.01259965      -0.01005040       0.01040744
O        5.56494336      -1.85088735       3.88643435       25       0.00527573       0.01522920       0.01040744
O        6.73720319       3.38576223       1.73184240       26      -0.01259965      -0.00398790      -0.01390762
O        3.84662287       2.36378775       4.18255753       27      -0.00527573      -0.00139850       0.01839259
O        0.70943412       4.65863464       7.38838846       28      -0.00527573       0.01662771      -0.00798516
O        2.42775462      -0.22197977       0.29612318       29       0.00527573      -0.01662771       0.00798516
O       -3.60001445       1.05089265       5.95266925       30       0.01259965       0.00398790       0.01390762
O        5.25584141       0.85441936       2.07214411       31      -0.01743533      -0.00663107       0.00448497
O        0.94639284       1.41492104       5.91439993       32       0.00044005       0.01864854       0.00448497
O        3.60001445      -0.97437319       5.90849072       33      -0.01259965       0.01403831       0.00350019
O        2.11865267      -0.00341168       3.54613264       34      -0.01743533      -0.00056857      -0.00798516
O        0.94639284      -2.24042223       7.34420994       35       0.00044005      -0.00544017      -0.01839259
O       -0.70943413       2.07286712       3.50195411       36       0.00527573       0.00139850      -0.01839259
O       -0.94639284      -0.82550119       5.57409822       37      -0.00044005       0.01320837      -0.01390762
O       -0.46282571       5.41102806       1.77602092       38       0.01259965      -0.01403831      -0.00350019
O        4.15572481       5.28766255       5.61827675       39       0.01743533      -0.00719963      -0.00350019
40
Lattice="9.411566230938295 7.376539379322381e-10 2.7977620220554036e-14 -3.1371887443415645 8.873309737731162 -1.2776841806783097e-09 -3.137188743298389 -4.43665486812791 7.6845116493747945" Properties=species:S:1:pos:R:3:spacegroup_kinds:I:1:forces:R:3 spacegroup="P 1" unit_cell=conventional occupancy="_JSON {\"0\": {\"In\": 1}, \"1\": {\"In\": 1}, \"2\": {\"In\": 1}, \"3\": {\"In\": 1}, \"4\": {\"In\": 1}, \"5\": {\"In\": 1}, \"6\": {\"In\": 1}, \"7\": {\"In\": 1}, \"8\": {\"In\": 1}, \"9\": {\"In\": 1}, \"10\": {\"In\": 1}, \"11\": {\"In\": 1}, \"12\": {\"In\": 1}, \"13\": {\"In\": 1}, \"14\": {\"In\": 1}, \"15\": {\"In\": 1}, \"16\": {\"O\": 1}, \"17\": {\"O\": 1}, \"18\": {\"O\": 1}, \"19\": {\"O\": 1}, \"20\": {\"O\": 1}, \"21\": {\"O\": 1}, \"22\": {\"O\": 1}, \"23\": {\"O\": 1}, \"24\": {\"O\": 1}, \"25\": {\"O\": 1}, \"26\": {\"O\": 1}, \"27\": {\"O\": 1}, \"28\": {\"O\": 1}, \"29\": {\"O\": 1}, \"30\": {\"O\": 1}, \"31\": {\"O\": 1}, \"32\": {\"O\": 1}, \"33\": {\"O\": 1}, \"34\": {\"O\": 1}, \"35\": {\"O\": 1}, \"36\": {\"O\": 1}, \"37\": {\"O\": 1}, \"38\": {\"O\": 1}, \"39\": {\"O\": 1}}" n_minim_iter=4 energy=-45147.45976236239 stress="0.08806527305103214 -3.7150816286697264e-13 8.432163751617762e-13 -3.7150816286697264e-13 0.08806527304968727 5.447267851301666e-13 8.432163751617762e-13 5.447267851301666e-13 0.08806527305106479" free_energy=-45147.45976236239 pbc="T T T"
In      -4.43065611       3.13294698       6.10034412        0       0.00010200      -0.00007212       0.00012492
In       7.56784486       1.30370789       1.58416752        1      -0.00010200       0.00007212      -0.00012492
In       1.29346737      -0.91461955       5.42642335        2      -0.00010200       0.00007212      -0.00012492
In      -1.56859437      -2.21832743       3.84225582        3      -0.00000000       0.00000000      -0.00000000
In      -1.29346737       4.24211070       3.50529544        4       0.00010200      -0.00007212      -0.00012492
In       4.98091012      -2.93840281       5.76338373        5       0.00010200       0.00014425      -0.00000000
In      -1.29346737       1.49825206       5.76338373        6       0.00010200       0.00014425      -0.00000000
In      -1.84372138       7.37505768       1.92112791        7      -0.00010200      -0.00014425       0.00000000
In       4.43065611       0.19454417       4.17921621        8      -0.00010200       0.00007212       0.00012492
In      -1.56859437       4.43665487      -0.00000000        9       0.00000000       0.00000000      -0.00000000
In       4.43065611       6.84952647       0.33696038       10      -0.00010200       0.00007212       0.00012492
In      -1.29346737      -2.41287160       7.34755126       11       0.00010200      -0.00007212      -0.00012492
In       4.43065611       2.93840282       1.92112791       12      -0.00010200      -0.00014425      -0.00000000
In       1.84372137       5.35127442       2.25808829       13       0.00010200      -0.00007212       0.00012492
In       4.70578311       0.00000000      -0.00000000       14      -0.00000000       0.00000000      -0.00000000
In       1.56859437       2.21832744       3.84225582       15      -0.00000000       0.00000000      -0.00000000
O        1.02081570       4.43894111       4.13947365       16       0.01152618       0.01497260       0.00005338
O       -2.11637305       3.58374623       5.61279488       17       0.01152618      -0.00744007      -0.01299334
O       -0.46170260       2.41371753      -0.04516763       18       0.01094380      -0.00702827      -0.01370662
O       -1.02081570      -0.85062241       2.06775689       19      -0.01152618       0.00753253      -0.01293997
O        4.08424602       5.26119974       2.11292451       20      -0.01085663      -0.01544605       0.00076665
O        2.19013146       3.01908100       1.77053906       21       0.01085663      -0.00838696      -0.01299334
O        2.19013146       6.67877361       0.34238545       22       0.01085663      -0.00705908       0.01375999
O       -2.42957558       6.28570718       3.79708820       23       0.01027425      -0.00797515      -0.01370662
O        3.59889134       2.02293734       7.72967927       24      -0.01094380       0.00702827       0.01370662
O        5.56676432      -1.84905231       3.88742345       25      -0.01027425       0.00797515       0.01370662
O        6.73608009       3.38606989       1.72933131       26      -0.01094380      -0.01538441      -0.00076665
O        3.84480191       2.36384869       4.18464127       27       0.01027425      -0.00788270       0.01375999
O        0.70761316       4.66040874       7.38729382       28       0.01027425       0.01585785      -0.00005338
O        2.42957558      -0.22375387       0.29721782       29      -0.01027425      -0.01585785       0.00005338
O       -3.59889135       1.05058498       5.95518033       30       0.01094380       0.01538441       0.00076665
O        5.25356179       0.85290865       2.07171676       31      -0.01152618       0.00744007       0.01299334
O        0.94705728       1.41757387       5.91397259       32      -0.01085663       0.00838696       0.01299334
O        3.59889134      -0.97235236       5.91001271       33      -0.01094380       0.00835614      -0.01293997
O        2.11637304      -0.00228623       3.54503799       34      -0.01152618      -0.01497260      -0.00005338
O        0.94705728      -2.24211874       7.34212620       35      -0.01085663       0.00705908      -0.01375999
O       -0.70761317       2.07280618       3.49987037       36      -0.01027425       0.00788270      -0.01375999
O       -0.94705728      -0.82454487       5.57158713       37       0.01085663       0.01544605      -0.00076665
O       -0.46170260       5.40900723       1.77449893       38       0.01094380      -0.00835614       0.01293997
O        4.15800444       5.28727728       5.61675476       39       0.01152618      -0.00753253       0.01293997
40
Lattice="9.411566230938302 7.376539379322387e-10 2.797762022055405e-14 -3.137188744341567 8.87330973773117 -1.2776841806783107e-09 -3.137188743298392 -4.436654868127913 7.684511649374802" Properties=species:S:1:pos:R:3:spacegroup_kinds:I:1:forces:R:3 spacegroup="P 1" unit_cell=conventional occupancy="_JSON {\"0\": {\"In\": 1}, \"1\": {\"In\": 1}, \"2\": {\"In\": 1}, \"3\": {\"In\": 1}, \"4\": {\"In\": 1}, \"5\": {\"In\": 1}, \"6\": {\"In\": 1}, \"7\": {\"In\": 1}, \"8\": {\"In\": 1}, \"9\": {\"In\": 1}, \"10\": {\"In\": 1}, \"11\": {\"In\": 1}, \"12\": {\"In\": 1}, \"13\": {\"In\": 1}, \"14\": {\"In\": 1}, \"15\": {\"In\": 1}, \"16\": {\"O\": 1}, \"17\": {\"O\": 1}, \"18\": {\"O\": 1}, \"19\": {\"O\": 1}, \"20\": {\"O\": 1}, \"21\": {\"O\": 1}, \"22\": {\"O\": 1}, \"23\": {\"O\": 1}, \"24\": {\"O\": 1}, \"25\": {\"O\": 1}, \"26\": {\"O\": 1}, \"27\": {\"O\": 1}, \"28\": {\"O\": 1}, \"29\": {\"O\": 1}, \"30\": {\"O\": 1}, \"31\": {\"O\": 1}, \"32\": {\"O\": 1}, \"33\": {\"O\": 1}, \"34\": {\"O\": 1}, \"35\": {\"O\": 1}, \"36\": {\"O\": 1}, \"37\": {\"O\": 1}, \"38\": {\"O\": 1}, \"39\": {\"O\": 1}}" n_minim_iter=5 energy=-45147.4600473368 stress="0.08770515827042528 -2.287876458063744e-13 -7.053109705276336e-13 -2.287876458063744e-13 0.08770515827069811 1.377950738056284e-13 -7.053109705276336e-13 1.377950738056284e-13 0.08770515827108318" free_energy=-45147.4600473368 pbc="T T T"
In      -4.42942815       3.13207869       6.10184806        0      -0.00736504       0.00520787      -0.00902030
In       7.56661689       1.30457619       1.58266359        1       0.00736504      -0.00520787       0.00902030
In       1.29223941      -0.91375125       5.42491941        2       0.00736504      -0.00520787       0.00902030
In      -1.56859437      -2.21832743       3.84225582        3      -0.00000000      -0.00000000       0.00000000
In      -1.29223941       4.24124240       3.50379150        4      -0.00736504       0.00520787       0.00902030
In       4.98213808      -2.93666621       5.76338373        5      -0.00736504      -0.01041575      -0.00000000
In      -1.29223941       1.49998866       5.76338373        6      -0.00736504      -0.01041575       0.00000000
In      -1.84494934       7.37332109       1.92112791        7       0.00736504       0.01041575       0.00000000
In       4.42942815       0.19541247       4.18072015        8       0.00736504      -0.00520787      -0.00902030
In      -1.56859437       4.43665487      -0.00000000        9       0.00000000       0.00000000       0.00000000
In       4.42942815       6.85039477       0.33846432       10       0.00736504      -0.00520787      -0.00902030
In      -1.29223941      -2.41373990       7.34604732       11      -0.00736504       0.00520787       0.00902030
In       4.42942815       2.93666622       1.92112791       12       0.00736504       0.01041575      -0.00000000
In       1.84494933       5.35040612       2.25959223       13      -0.00736504       0.00520787      -0.00902030
In       4.70578311       0.00000000      -0.00000000       14      -0.00000000       0.00000000       0.00000000
In       1.56859437       2.21832744       3.84225582       15      -0.00000000      -0.00000000      -0.00000000
O        1.02289135       4.43891610       4.13988210       16       0.00690744       0.01550553      -0.00099838
O       -2.11429739       3.58411246       5.61261232       17       0.00690744      -0.00861739      -0.01292900
O       -0.46068901       2.41483476      -0.04665095       18       0.00879669      -0.00995329      -0.01061515
O       -1.02289136      -0.85028119       2.06798277       19      -0.00690744       0.00688815      -0.01392737
O        4.08389942       5.26000212       2.11463371       20      -0.01042703      -0.01301681      -0.00331223
O        2.19047806       3.01700198       1.77035649       21       0.01042703      -0.00363993      -0.01292900
O        2.19047806       6.67965501       0.34427722       22       0.01042703      -0.00937687       0.00961677
O       -2.43029104       6.28437915       3.79560488       23       0.01231628      -0.00497583      -0.01061515
O        3.59787775       2.02182012       7.73116259       24      -0.00879669       0.00995329       0.01061515
O        5.56747978      -1.84772428       3.88890677       25      -0.01231628       0.00497583       0.01061515
O        6.73506649       3.38534391       1.72762211       26      -0.00879669      -0.01416963       0.00331223
O        3.84408644       2.36322811       4.18653304       27       0.01231628      -0.00670507       0.00961677
O        0.70689770       4.66235735       7.38688537       28       0.01231628       0.01168090       0.00099838
O        2.43029104      -0.22570248       0.29762627       29      -0.01231628      -0.01168090      -0.00099838
O       -3.59787775       1.05131096       5.95688954       30       0.00879669       0.01416963      -0.00331223
O        5.25148613       0.85254242       2.07189933       31      -0.00690744       0.00861739       0.01292900
O        0.94671068       1.41965289       5.91415515       32      -0.01042703       0.00363993       0.01292900
O        3.59787775      -0.97050915       5.91023859       33      -0.00879669       0.00421634      -0.01392737
O        2.11429739      -0.00226122       3.54462955       34      -0.00690744      -0.01550553       0.00099838
O        0.94671068      -2.24300014       7.34023443       35      -0.01042703       0.00937687      -0.00961677
O       -0.70689770       2.07342676       3.49797860       36      -0.01231628       0.00670507      -0.00961677
O       -0.94671068      -0.82334725       5.56987793       37       0.01042703       0.01301681       0.00331223
O       -0.46068901       5.40716403       1.77427305       38       0.00879669      -0.00421634       0.01392737
O        4.16008010       5.28693606       5.61652887       39       0.00690744      -0.00688815       0.01392737
40