40
Lattice="8.1925012206278 6.421039441491759e-10 1.9334226533766895e-14 -2.73083374081465 7.723964223765942 -1.1121688647012206e-09 -2.7308337399065956 -3.861982111240862 6.6891492364449014" Properties=species:S:1:pos:R:3:spacegroup_kinds:I:1:forces:R:3 spacegroup="P 1" unit_cell=conventional occupancy="_JSON {\"0\": {\"In\": 1}, \"1\": {\"In\": 1}, \"2\": {\"In\": 1}, \"3\": {\"In\": 1}, \"4\": {\"In\": 1}, \"5\": {\"In\": 1}, \"6\": {\"In\": 1}, \"7\": {\"In\": 1}, \"8\": {\"In\": 1}, \"9\": {\"In\": 1}, \"10\": {\"In\": 1}, \"11\": {\"In\": 1}, \"12\": {\"In\": 1}, \"13\": {\"In\": 1}, \"14\": {\"In\": 1}, \"15\": {\"In\": 1}, \"16\": {\"O\": 1}, \"17\": {\"O\": 1}, \"18\": {\"O\": 1}, \"19\": {\"O\": 1}, \"20\": {\"O\": 1}, \"21\": {\"O\": 1}, \"22\": {\"O\": 1}, \"23\": {\"O\": 1}, \"24\": {\"O\": 1}, \"25\": {\"O\": 1}, \"26\": {\"O\": 1}, \"27\": {\"O\": 1}, \"28\": {\"O\": 1}, \"29\": {\"O\": 1}, \"30\": {\"O\": 1}, \"31\": {\"O\": 1}, \"32\": {\"O\": 1}, \"33\": {\"O\": 1}, \"34\": {\"O\": 1}, \"35\": {\"O\": 1}, \"36\": {\"O\": 1}, \"37\": {\"O\": 1}, \"38\": {\"O\": 1}, \"39\": {\"O\": 1}}" n_minim_iter=6 energy=-45141.91694604379 stress="-0.21824705231424726 -1.8291815529042948e-13 2.0836045353591494e-13 -1.8291815529042948e-13 -0.21824705231326816 4.521098392860124e-13 2.0836045353591494e-13 4.521098392860124e-13 -0.2182470523128947" free_energy=-45141.91694604379 pbc="T T T"
In      -3.87697044       2.74143209       5.28542419        0      -0.00469203       0.00331777      -0.00574654
In       6.60780418       1.12055003       1.40372504        1       0.00469203      -0.00331777       0.00574654
In       1.14613670      -0.81044103       4.74829966        2       0.00469203      -0.00331777       0.00574654
In      -1.36541687      -1.93099105       3.34457462        3      -0.00000000       0.00000000      -0.00000000
In      -1.14613670       3.70692762       3.07601235        4      -0.00469203       0.00331777       0.00574654
In       4.31553078      -2.58637759       5.01686193        5      -0.00469203      -0.00663553      -0.00000000
In      -1.14613670       1.27560452       5.01686192        6      -0.00469203      -0.00663553       0.00000000
In      -1.58469704       6.44835970       1.67228731        7       0.00469203       0.00663553      -0.00000000
In       3.87697044       0.15505450       3.61313688        8       0.00469203      -0.00331777      -0.00574654
In      -1.36541687       3.86198211      -0.00000000        9      -0.00000000       0.00000000      -0.00000000
In       3.87697044       5.94802767       0.26856226       10       0.00469203      -0.00331777      -0.00574654
In      -1.14613670      -2.08604555       6.42058697       11      -0.00469203       0.00331777       0.00574654
In       3.87697044       2.58637759       1.67228731       12       0.00469203       0.00663553      -0.00000000
In       1.58469704       4.67242315       1.94084957       13      -0.00469203       0.00331777      -0.00574654
In       4.09625061       0.00000000      -0.00000000       14       0.00000000      -0.00000000      -0.00000000
In       1.36541687       1.93099106       3.34457462       15      -0.00000000       0.00000000       0.00000000
O        0.80461018       3.84781277       3.71485049       16       0.00508162      -0.00161218       0.00551445
O       -1.92622356       3.22423957       4.84399500       17       0.00508162       0.00558174      -0.00136104
O       -0.34642503       2.10715332       0.08969592       18       0.00543641       0.00533087      -0.00092650
O       -0.80461018      -0.65191189       1.86969626       19      -0.00508162       0.00396956       0.00415341
O        3.68191674       4.56567996       1.78000034       20       0.00356864      -0.00450448       0.00507992
O        1.77975074       2.67230552       1.49942038       21      -0.00356864      -0.00665158      -0.00136104
O        1.77975074       5.75535656       0.28057995       22      -0.00356864       0.00214710       0.00644095
O       -2.10211821       5.41720138       3.43427053       23      -0.00321385      -0.00690245      -0.00092650
O        3.07725877       1.75482880       6.59945332       24      -0.00543641      -0.00533087       0.00092650
O        4.83295195      -1.55521926       3.25487870       25       0.00321385       0.00690245       0.00092650
O        5.80809251       3.06224666       1.56457427       26      -0.00543641       0.00186306      -0.00507992
O        3.35954927       2.19655590       3.62515457       27      -0.00321385       0.00264885       0.00644095
O        0.62871553       3.97218907       6.31887336       28      -0.00321385       0.00425360      -0.00551445
O        2.10211821      -0.11020695       0.37027587       29       0.00321385      -0.00425360       0.00551445
O       -3.07725877       0.79973545       5.12457496       30       0.00543641      -0.00186306       0.00507992
O        4.65705730       0.63774254       1.84515423       31      -0.00508162      -0.00558174       0.00136104
O        0.95108300       1.18967659       5.18972885       32       0.00356864       0.00665158       0.00136104
O        3.07725877      -0.95509334       5.21427088       33      -0.00543641       0.00346781       0.00415341
O        1.92622356       0.01416935       2.97429874       34      -0.00508162       0.00161218      -0.00551445
O        0.95108300      -1.89337444       6.40856928       35       0.00356864      -0.00214710      -0.00644095
O       -0.62871553       1.66542622       3.06399466       36       0.00321385      -0.00264885      -0.00644095
O       -0.95108300      -0.70369785       4.90914889       37      -0.00356864       0.00450448      -0.00507992
O       -0.34642503       4.81707545       1.47487835       38       0.00543641      -0.00346781      -0.00415341
O        3.53544392       4.51389400       4.81945297       39       0.00508162      -0.00396956      -0.00415341
