40
Lattice="9.206901756519946 7.216118792123267e-10 1.3425162448346287e-14 -3.0689672528536587 8.680350220764248 -1.2498821764356246e-09 -3.068967251833156 -4.340175109660503 7.51740380576095" Properties=species:S:1:pos:R:3:spacegroup_kinds:I:1:forces:R:3 spacegroup="P 1" unit_cell=conventional occupancy="_JSON {\"0\": {\"In\": 1}, \"1\": {\"In\": 1}, \"2\": {\"In\": 1}, \"3\": {\"In\": 1}, \"4\": {\"In\": 1}, \"5\": {\"In\": 1}, \"6\": {\"In\": 1}, \"7\": {\"In\": 1}, \"8\": {\"In\": 1}, \"9\": {\"In\": 1}, \"10\": {\"In\": 1}, \"11\": {\"In\": 1}, \"12\": {\"In\": 1}, \"13\": {\"In\": 1}, \"14\": {\"In\": 1}, \"15\": {\"In\": 1}, \"16\": {\"O\": 1}, \"17\": {\"O\": 1}, \"18\": {\"O\": 1}, \"19\": {\"O\": 1}, \"20\": {\"O\": 1}, \"21\": {\"O\": 1}, \"22\": {\"O\": 1}, \"23\": {\"O\": 1}, \"24\": {\"O\": 1}, \"25\": {\"O\": 1}, \"26\": {\"O\": 1}, \"27\": {\"O\": 1}, \"28\": {\"O\": 1}, \"29\": {\"O\": 1}, \"30\": {\"O\": 1}, \"31\": {\"O\": 1}, \"32\": {\"O\": 1}, \"33\": {\"O\": 1}, \"34\": {\"O\": 1}, \"35\": {\"O\": 1}, \"36\": {\"O\": 1}, \"37\": {\"O\": 1}, \"38\": {\"O\": 1}, \"39\": {\"O\": 1}}" n_minim_iter=6 energy=-45151.00892868011 stress="0.04217058332408696 -2.6028417897527277e-13 -1.241158796412173e-12 -2.6028417897527277e-13 0.042170583323728694 7.948978094088731e-13 -1.241158796412173e-12 7.948978094088731e-13 0.04217058332568053" free_energy=-45151.00892868011 pbc="T T T"
In      -4.37569003       3.09408009       5.91700179        0      -0.00540679       0.00382318      -0.00662194
In       7.44465728       1.24609502       1.60040201        1       0.00540679      -0.00382318       0.00662194
In       1.30672277      -0.92399253       5.35910392        2       0.00540679      -0.00382318       0.00662194
In      -1.53448363      -2.17008755       3.75870190        3       0.00000000      -0.00000000       0.00000000
In      -1.30672278       4.17912387       3.47975296        4      -0.00540679       0.00382318       0.00662194
In       4.83121173      -2.93302884       5.63805285        5      -0.00540679      -0.00764636       0.00000000
In      -1.30672278       1.40714627       5.63805285        6      -0.00540679      -0.00764636       0.00000000
In      -1.76224448       7.27320396       1.87935095        7       0.00540679       0.00764636      -0.00000000
In       4.37569002       0.16105125       4.03765084        8       0.00540679      -0.00382318      -0.00662194
In      -1.53448363       4.34017511      -0.00000000        9      -0.00000000      -0.00000000       0.00000000
In       4.37569002       6.67131391       0.27894893       10       0.00540679      -0.00382318      -0.00662194
In      -1.30672277      -2.33113880       7.23845487       11      -0.00540679       0.00382318       0.00662194
In       4.37569002       2.93302885       1.87935095       12       0.00540679       0.00764636       0.00000000
In       1.76224448       5.26416765       2.15829988       13      -0.00540679       0.00382318      -0.00662194
In       4.60345088       0.00000000      -0.00000000       14       0.00000000      -0.00000000      -0.00000000
In       1.53448362       2.17008756       3.75870190       15       0.00000000       0.00000000      -0.00000000
O        0.94647076       4.34549140       4.07237025       16       0.00424289      -0.00826180      -0.00039767
O       -2.12249649       3.52411796       5.47661464       17       0.00424289       0.00378650       0.00735376
O       -0.44888357       2.34069491       0.00895967       18      -0.00280505       0.00877015      -0.00127817
O       -0.94647076      -0.81074087       2.03158109       19      -0.00424289      -0.00447529       0.00695609
O        4.03006910       5.15608885       2.02262141       20       0.00215565       0.00373734       0.00823426
O        2.10786540       2.99649046       1.71791273       21      -0.00215565      -0.00526241       0.00735376
O        2.10786540       6.49977351       0.30470868       22      -0.00215565       0.00899975       0.00088050
O       -2.35645618       6.15324252       3.76766157       23      -0.00920359      -0.00027876      -0.00127817
O        3.51785082       1.99948021       7.50844413       24       0.00280505      -0.00877015       0.00127817
O        5.42542343      -1.81306741       3.74974223       25       0.00920359       0.00027876       0.00127817
O        6.58681807       3.34819432       1.73608048       26       0.00280505       0.00327815      -0.00823426
O        3.78147832       2.35635694       4.06341058       27      -0.00920359      -0.00096755       0.00088050
O        0.71251107       4.51092588       7.20373545       28      -0.00920359       0.00124631       0.00039767
O        2.35645618      -0.17075077       0.31366835       29       0.00920359      -0.00124631      -0.00039767
O       -3.51785082       0.99198080       5.78132332       30      -0.00280505      -0.00327815       0.00823426
O        5.19146374       0.81605716       2.04078916       31      -0.00424289      -0.00378650      -0.00735376
O        0.96110185       1.34368466       5.79949107       32       0.00215565       0.00526241      -0.00735376
O        3.51785082      -1.00749940       5.79028299       33       0.00280505       0.00549200       0.00695609
O        2.12249649      -0.00531628       3.44503355       34      -0.00424289       0.00826180       0.00039767
O        0.96110185      -2.15959840       7.21269512       35       0.00215565      -0.00899975      -0.00088050
O       -0.71251107       1.98381818       3.45399322       36       0.00920359       0.00096755      -0.00088050
O       -0.96110185      -0.81591374       5.49478239       37      -0.00215565      -0.00373734      -0.00823426
O       -0.44888357       5.34767452       1.72712081       38      -0.00280505      -0.00549200      -0.00695609
O        4.01543801       5.15091598       5.48582271       39       0.00424289       0.00447529      -0.00695609
