40
Lattice="8.844042464306556 6.931693373369152e-10 -8.80714382614289e-16 -2.9480141554223787 8.33824319925288 -1.2006087817390248e-09 -2.9480141544420877 -4.169121598933265 7.221130434286229" Properties=species:S:1:pos:R:3:spacegroup_kinds:I:1:forces:R:3 spacegroup="P 1" unit_cell=conventional occupancy="_JSON {\"0\": {\"In\": 1}, \"1\": {\"In\": 1}, \"2\": {\"In\": 1}, \"3\": {\"In\": 1}, \"4\": {\"In\": 1}, \"5\": {\"In\": 1}, \"6\": {\"In\": 1}, \"7\": {\"In\": 1}, \"8\": {\"In\": 1}, \"9\": {\"In\": 1}, \"10\": {\"In\": 1}, \"11\": {\"In\": 1}, \"12\": {\"In\": 1}, \"13\": {\"In\": 1}, \"14\": {\"In\": 1}, \"15\": {\"In\": 1}, \"16\": {\"O\": 1}, \"17\": {\"O\": 1}, \"18\": {\"O\": 1}, \"19\": {\"O\": 1}, \"20\": {\"O\": 1}, \"21\": {\"O\": 1}, \"22\": {\"O\": 1}, \"23\": {\"O\": 1}, \"24\": {\"O\": 1}, \"25\": {\"O\": 1}, \"26\": {\"O\": 1}, \"27\": {\"O\": 1}, \"28\": {\"O\": 1}, \"29\": {\"O\": 1}, \"30\": {\"O\": 1}, \"31\": {\"O\": 1}, \"32\": {\"O\": 1}, \"33\": {\"O\": 1}, \"34\": {\"O\": 1}, \"35\": {\"O\": 1}, \"36\": {\"O\": 1}, \"37\": {\"O\": 1}, \"38\": {\"O\": 1}, \"39\": {\"O\": 1}}" n_minim_iter=1 energy=-45151.89766965434 stress="4.36422481315676e-06 1.7815236952407286e-14 3.535845110624186e-13 1.7815236952407286e-14 4.364223811469699e-06 -4.980312190263825e-13 3.535845110624186e-13 -4.980312190263825e-13 4.364223784383693e-06" free_energy=-45151.89766965434 pbc="T T T"
In      -4.22319733       2.98625147       5.65935638        0       0.00234114      -0.00165544       0.00286730
In       7.17121148       1.18287013       1.56177405        1      -0.00234114       0.00165544      -0.00286730
In       1.27518317      -0.90169067       5.17233927        2      -0.00234114       0.00165544      -0.00286730
In      -1.47400708      -2.08456080       3.61056521        3      -0.00000000      -0.00000000       0.00000000
In      -1.27518318       4.02853187       3.36705666        4       0.00234114      -0.00165544      -0.00286730
In       4.62084513      -2.84566174       5.41584782        5       0.00234114       0.00331087       0.00000000
In      -1.27518318       1.32345986       5.41584782        6       0.00234114       0.00331087       0.00000000
In      -1.67283098       7.01478334       1.80528261        7      -0.00234114      -0.00331087       0.00000000
In       4.22319733       0.14058973       3.85407377        8      -0.00234114       0.00165544       0.00286730
In      -1.47400708       4.16912160      -0.00000000        9      -0.00000000      -0.00000000      -0.00000000
In       4.22319733       6.39427213       0.24350855       10      -0.00234114       0.00165544       0.00286730
In      -1.27518318      -2.22515053       6.97762188       11       0.00234114      -0.00165544      -0.00286730
In       4.22319733       2.84566174       1.80528261       12      -0.00234114      -0.00331087      -0.00000000
In       1.67283098       5.07081227       2.04879116       13       0.00234114      -0.00165544       0.00286730
In       4.42202123       0.00000000      -0.00000000       14      -0.00000000       0.00000000       0.00000000
In       1.47400708       2.08456080       3.61056521       15      -0.00000000       0.00000000      -0.00000000
O        0.86740778       4.16999676       3.92889900       16       0.00417108      -0.00849430       0.00116968
O       -2.08060638       3.40208877       5.25592302       17       0.00417108       0.00526012       0.00677144
O       -0.43320446       2.23719970       0.05243964       18      -0.00165885       0.00938251      -0.00036874
O       -0.86740778      -0.76615767       1.96369159       19      -0.00417108      -0.00323417       0.00794112
O        3.90105551       4.96555532       1.91125195       20       0.00356893       0.00302128       0.00830986
O        1.99497280       2.91214572       1.64535780       21      -0.00356893      -0.00568591       0.00677144
O        1.99497280       6.22253120       0.26589414       22      -0.00356893       0.00870719       0.00153842
O       -2.25365359       5.91637825       3.66300486       23      -0.00939886      -0.00156352      -0.00036874
O        3.38121861       1.93192190       7.16869079       24       0.00165885      -0.00938251       0.00036874
O        5.20166774      -1.74725664       3.55812557       25       0.00939886       0.00156352       0.00036874
O        6.32923276       3.24857471       1.69931326       26       0.00165885       0.00437192      -0.00830986
O        3.64237472       2.29862694       3.87645936       27      -0.00939886       0.00046243       0.00153842
O        0.69436056       4.29235962       6.90279664       28      -0.00939886       0.00110110      -0.00116968
O        2.25365359      -0.12323801       0.31833379       29       0.00939886      -0.00110110       0.00116968
O       -3.38121861       0.92054689       5.52181717       30      -0.00165885      -0.00437192       0.00830986
O        5.02862053       0.76703283       1.96520741       31      -0.00417108      -0.00526012      -0.00677144
O        0.95304135       1.25697589       5.57577263       32       0.00356893       0.00568591      -0.00677144
O        3.38121861      -1.01137501       5.57425681       33       0.00165885       0.00501059       0.00794112
O        2.08060638      -0.00087516       3.29223143       34      -0.00417108       0.00849430      -0.00116968
O        0.95304135      -2.05340960       6.95523629       35       0.00356893      -0.00870719      -0.00153842
O       -0.69436057       1.87049466       3.34467107       36       0.00939886      -0.00046243      -0.00153842
O       -0.95304136      -0.79643371       5.30987848       37      -0.00356893      -0.00302128      -0.00830986
O       -0.43320446       5.18049661       1.64687362       38      -0.00165885      -0.00501059      -0.00794112
O        3.81542193       4.93527928       5.25743884       39       0.00417108       0.00323417      -0.00794112
