20
Lattice="5.916444138451284 -5.20973972741055e-60 1.2097351247207936e-42 -6.040406490573279e-60 6.070750304866546 5.568554242732769e-17 -1.7559301464274065e-42 -7.877307461900117e-17 8.587716773750849" Properties=species:S:1:pos:R:3:spacegroup_kinds:I:1:forces:R:3 spacegroup="P 1" unit_cell=conventional occupancy="_JSON {\"0\": {\"In\": 1}, \"1\": {\"In\": 1}, \"2\": {\"In\": 1}, \"3\": {\"In\": 1}, \"4\": {\"In\": 1}, \"5\": {\"In\": 1}, \"6\": {\"In\": 1}, \"7\": {\"In\": 1}, \"8\": {\"O\": 1}, \"9\": {\"O\": 1}, \"10\": {\"O\": 1}, \"11\": {\"O\": 1}, \"12\": {\"O\": 1}, \"13\": {\"O\": 1}, \"14\": {\"O\": 1}, \"15\": {\"O\": 1}, \"16\": {\"O\": 1}, \"17\": {\"O\": 1}, \"18\": {\"O\": 1}, \"19\": {\"O\": 1}}" n_minim_iter=1 energy=-22573.256990167534 stress="0.06786041334490096 4.170653058271186e-13 4.678998551079161e-13 4.170653058271186e-13 0.06746135133811765 7.322578188527615e-13 4.678998551079161e-13 7.322578188527615e-13 0.0656299293337486" free_energy=-22573.256990167534 pbc="T T T"
In       1.45860583       3.27775491       0.99035645        0      -0.01958864       0.00789782      -0.01065862
In       1.49961624       0.24237976       3.30350194        1       0.01958864       0.00789782       0.01065862
In       1.49961624       2.79299539       5.28421484        2       0.01958864      -0.00789782      -0.01065862
In       1.45860583       5.82837055       7.59736032        3      -0.01958864      -0.00789782       0.01065862
In       4.45783831       2.79299539       7.59736032        4       0.01958864      -0.00789782       0.01065862
In       4.41682790       5.82837055       5.28421484        5      -0.01958864      -0.00789782      -0.01065862
In       4.41682790       3.27775491       3.30350194        6      -0.01958864       0.00789782       0.01065862
In       4.45783831       0.24237976       0.99035645        7       0.01958864       0.00789782      -0.01065862
O        2.30940137       3.58667367       7.27956892        8      -0.01832933      -0.01684349      -0.01618430
O        0.64882069       0.55129851       5.60200624        9       0.01832933      -0.01684349       0.01618430
O        0.64882069       2.48407664       2.98571054       10       0.01832933       0.01684349      -0.01618430
O        2.30940137       5.51945179       1.30814785       11      -0.01832933       0.01684349       0.01618430
O        3.60704276       2.48407664       1.30814785       12       0.01832933       0.01684349       0.01618430
O        5.26762344       5.51945179       2.98571054       13      -0.01832933       0.01684349      -0.01618430
O        5.26762344       3.58667367       5.60200624       14      -0.01832933      -0.01684349       0.01618430
O        3.60704276       0.55129851       7.27956892       15       0.01832933      -0.01684349      -0.01618430
O        5.63682117       4.55306273       0.00000000       16       0.02156201       0.00000000       0.00000000
O        3.23784504       1.51768758       4.29385839       17      -0.02156201       0.00000000      -0.00000000
O        0.27962297       1.51768758       0.00000000       18      -0.02156201      -0.00000000      -0.00000000
O        2.67859910       4.55306273       4.29385839       19       0.02156201      -0.00000000       0.00000000
20
Lattice="5.909780741534803 -5.20835890265805e-60 1.1658206017703397e-42 -6.471261940971967e-60 6.067025014879586 5.578255972837668e-17 -1.8211602155683463e-42 -7.872473585832363e-17 8.602678594490042" Properties=species:S:1:pos:R:3:spacegroup_kinds:I:1:forces:R:3 spacegroup="P 1" unit_cell=conventional occupancy="_JSON {\"0\": {\"In\": 1}, \"1\": {\"In\": 1}, \"2\": {\"In\": 1}, \"3\": {\"In\": 1}, \"4\": {\"In\": 1}, \"5\": {\"In\": 1}, \"6\": {\"In\": 1}, \"7\": {\"In\": 1}, \"8\": {\"O\": 1}, \"9\": {\"O\": 1}, \"10\": {\"O\": 1}, \"11\": {\"O\": 1}, \"12\": {\"O\": 1}, \"13\": {\"O\": 1}, \"14\": {\"O\": 1}, \"15\": {\"O\": 1}, \"16\": {\"O\": 1}, \"17\": {\"O\": 1}, \"18\": {\"O\": 1}, \"19\": {\"O\": 1}}" n_minim_iter=2 energy=-22573.257574635223 stress="0.06672355020220716 1.4928943277708699e-12 -2.0032589072358422e-12 1.4928943277708699e-12 0.06668834054670118 -4.587067607157119e-15 -2.0032589072358422e-12 -4.587067607157119e-15 0.06683050157527452" free_energy=-22573.257574635223 pbc="T T T"
In       1.45688152       3.27577643       0.99203738        0      -0.02132293       0.00496323       0.00148272
In       1.49800885       0.24226392       3.30930192        1       0.02132293       0.00496323      -0.00148272
In       1.49800885       2.79124859       5.29337668        2       0.02132293      -0.00496323       0.00148272
In       1.45688152       5.82476109       7.61064122        3      -0.02132293      -0.00496323      -0.00148272
In       4.45289922       2.79124859       7.61064122        4       0.02132293      -0.00496323      -0.00148272
In       4.41177189       5.82476109       5.29337668        5      -0.02132293      -0.00496323       0.00148272
In       4.41177189       3.27577643       3.30930192        6      -0.02132293       0.00496323      -0.00148272
In       4.45289922       0.24226392       0.99203738        7       0.02132293       0.00496323       0.00148272
O        2.30672410       3.58440256       7.29218407        8      -0.02091870      -0.02155209      -0.03201216
O        0.64816627       0.55089005       5.61183383        9       0.02091870      -0.02155209       0.03201216
O        0.64816627       2.48262246       2.99084477       10       0.02091870       0.02155209      -0.03201216
O        2.30672410       5.51613496       1.31049453       11      -0.02091870       0.02155209       0.03201216
O        3.60305664       2.48262246       1.31049453       12       0.02091870       0.02155209       0.03201216
O        5.26161447       5.51613496       2.99084477       13      -0.02091870       0.02155209      -0.03201216
O        5.26161447       3.58440256       5.61183383       14      -0.02091870      -0.02155209       0.03201216
O        3.60305664       0.55089005       7.29218407       15       0.02091870      -0.02155209      -0.03201216
O        5.63056247       4.55026876       0.00000000       16       0.01285569      -0.00000000       0.00000000
O        3.23410864       1.51675625       4.30133930       17      -0.01285569       0.00000000      -0.00000000
O        0.27921827       1.51675625       0.00000000       18      -0.01285569       0.00000000      -0.00000000
O        2.67567210       4.55026876       4.30133930       19       0.01285569       0.00000000       0.00000000
20
Lattice="5.897211510831234 -5.23402893628565e-60 1.1629299334225735e-42 -6.531861168441379e-60 6.074043060725305 5.583686443568624e-17 -1.8256445760782745e-42 -7.881580088675038e-17 8.611053361539582" Properties=species:S:1:pos:R:3:spacegroup_kinds:I:1:forces:R:3 spacegroup="P 1" unit_cell=conventional occupancy="_JSON {\"0\": {\"In\": 1}, \"1\": {\"In\": 1}, \"2\": {\"In\": 1}, \"3\": {\"In\": 1}, \"4\": {\"In\": 1}, \"5\": {\"In\": 1}, \"6\": {\"In\": 1}, \"7\": {\"In\": 1}, \"8\": {\"O\": 1}, \"9\": {\"O\": 1}, \"10\": {\"O\": 1}, \"11\": {\"O\": 1}, \"12\": {\"O\": 1}, \"13\": {\"O\": 1}, \"14\": {\"O\": 1}, \"15\": {\"O\": 1}, \"16\": {\"O\": 1}, \"17\": {\"O\": 1}, \"18\": {\"O\": 1}, \"19\": {\"O\": 1}}" n_minim_iter=3 energy=-22573.259272565057 stress="0.0655250559760881 -4.621457695219558e-12 2.033651721441429e-12 -4.621457695219558e-12 0.0666364707397856 -1.380728586178405e-12 2.033651721441429e-12 -1.380728586178405e-12 0.06575004217530392" free_energy=-22573.259272565057 pbc="T T T"
In       1.45008464       3.28047137       0.99311405        0       0.00694042       0.01085853       0.01237888
In       1.49852112       0.24344984       3.31241263        1      -0.00694042       0.01085853      -0.01237888
In       1.49852112       2.79357169       5.29864073        2      -0.00694042      -0.01085853       0.01237888
In       1.45008464       5.83059323       7.61793931        3       0.00694042      -0.01085853      -0.01237888
In       4.44712687       2.79357169       7.61793931        4      -0.00694042      -0.01085853      -0.01237888
In       4.39869039       5.83059323       5.29864073        5       0.00694042      -0.01085853       0.01237888
In       4.39869039       3.28047137       3.31241263        6       0.00694042       0.01085853      -0.01237888
In       4.44712687       0.24344984       0.99311405        7      -0.00694042       0.01085853       0.01237888
O        2.29820074       3.58483117       7.29384588        8       0.01492928      -0.01016164      -0.01921627
O        0.65040502       0.54780964       5.62273416        9      -0.01492929      -0.01016164       0.01921627
O        0.65040502       2.48921189       2.98831920       10      -0.01492928       0.01016164      -0.01921627
O        2.29820074       5.52623342       1.31720748       11       0.01492928       0.01016164       0.01921627
O        3.59901077       2.48921189       1.31720748       12      -0.01492929       0.01016164       0.01921627
O        5.24680649       5.52623342       2.98831920       13       0.01492928       0.01016164      -0.01921627
O        5.24680649       3.58483117       5.62273416       14       0.01492928      -0.01016164       0.01921627
O        3.59901077       0.54780964       7.29384588       15      -0.01492929      -0.01016164      -0.01921627
O        5.62093657       4.55553230       0.00000000       16      -0.01342370       0.00000000      -0.00000000
O        3.22488070       1.51851077       4.30552668       17       0.01342370       0.00000000       0.00000000
O        0.27627494       1.51851077       0.00000000       18       0.01342370       0.00000000       0.00000000
O        2.67233081       4.55553230       4.30552668       19      -0.01342370       0.00000000      -0.00000000
20
Lattice="5.900408950569662 -5.361301196887416e-60 9.550472112961025e-43 -7.878368578330929e-60 6.068714270651821 5.5122237175818277e-17 -2.038018435383463e-42 -7.978282889119699e-17 8.613944078518474" Properties=species:S:1:pos:R:3:spacegroup_kinds:I:1:forces:R:3 spacegroup="P 1" unit_cell=conventional occupancy="_JSON {\"0\": {\"In\": 1}, \"1\": {\"In\": 1}, \"2\": {\"In\": 1}, \"3\": {\"In\": 1}, \"4\": {\"In\": 1}, \"5\": {\"In\": 1}, \"6\": {\"In\": 1}, \"7\": {\"In\": 1}, \"8\": {\"O\": 1}, \"9\": {\"O\": 1}, \"10\": {\"O\": 1}, \"11\": {\"O\": 1}, \"12\": {\"O\": 1}, \"13\": {\"O\": 1}, \"14\": {\"O\": 1}, \"15\": {\"O\": 1}, \"16\": {\"O\": 1}, \"17\": {\"O\": 1}, \"18\": {\"O\": 1}, \"19\": {\"O\": 1}}" n_minim_iter=4 energy=-22573.259461482492 stress="0.06608378178272868 -1.3063929367657533e-12 -2.2535570711194387e-12 -1.3063929367657533e-12 0.06588265532612425 5.701385972789387e-14 -2.2535570711194387e-12 5.701385972789387e-14 0.06584518644530776" free_energy=-22573.259461482492 pbc="T T T"
In       1.45049592       3.27774834       0.99352669        0       0.01294181       0.00673647       0.01738809
In       1.49970856       0.24339121       3.31344535        1      -0.01294181       0.00673647      -0.01738809
In       1.49970856       2.79096593       5.30049873        2      -0.01294181      -0.00673647       0.01738809
In       1.45049592       5.82532306       7.62041739        3       0.01294181      -0.00673647      -0.01738809
In       4.44991303       2.79096593       7.62041739        4      -0.01294181      -0.00673647      -0.01738809
In       4.40070039       5.82532306       5.30049873        5       0.01294181      -0.00673647       0.01738809
In       4.40070039       3.27774834       3.31344535        6       0.01294181       0.00673647      -0.01738809
In       4.44991303       0.24339121       0.99352669        7      -0.01294181       0.00673647       0.01738809
O        2.29912122       3.58122160       7.29558895        8       0.01951482      -0.00955795      -0.01373703
O        0.65108325       0.54686447       5.62532716        9      -0.01951482      -0.00955795       0.01373703
O        0.65108325       2.48749267       2.98861691       10      -0.01951482       0.00955795      -0.01373703
O        2.29912122       5.52184980       1.31835513       11       0.01951482       0.00955795       0.01373703
O        3.60128773       2.48749267       1.31835513       12      -0.01951482       0.00955795       0.01373703
O        5.24932570       5.52184980       2.98861691       13       0.01951482       0.00955795      -0.01373703
O        5.24932570       3.58122160       5.62532716       14       0.01951482      -0.00955795       0.01373703
O        3.60128773       0.54686447       7.29558895       15      -0.01951482      -0.00955795      -0.01373703
O        5.62417394       4.55153570       0.00000000       16      -0.01458344      -0.00000000       0.00000000
O        3.22643949       1.51717857       4.30697204       17       0.01458344      -0.00000000       0.00000000
O        0.27623501       1.51717857       0.00000000       18       0.01458344      -0.00000000       0.00000000
O        2.67396946       4.55153570       4.30697204       19      -0.01458344       0.00000000       0.00000000
20
Lattice="5.875836906489275 -4.9203003754778527e-60 -3.321289395085165e-42 -2.167408808744817e-59 6.061184642464383 5.172249240987144e-17 -4.240314773249967e-42 -8.492137051267575e-17 8.660712152307593" Properties=species:S:1:pos:R:3:spacegroup_kinds:I:1:forces:R:3 spacegroup="P 1" unit_cell=conventional occupancy="_JSON {\"0\": {\"In\": 1}, \"1\": {\"In\": 1}, \"2\": {\"In\": 1}, \"3\": {\"In\": 1}, \"4\": {\"In\": 1}, \"5\": {\"In\": 1}, \"6\": {\"In\": 1}, \"7\": {\"In\": 1}, \"8\": {\"O\": 1}, \"9\": {\"O\": 1}, \"10\": {\"O\": 1}, \"11\": {\"O\": 1}, \"12\": {\"O\": 1}, \"13\": {\"O\": 1}, \"14\": {\"O\": 1}, \"15\": {\"O\": 1}, \"16\": {\"O\": 1}, \"17\": {\"O\": 1}, \"18\": {\"O\": 1}, \"19\": {\"O\": 1}}" n_minim_iter=5 energy=-22573.261397775554 stress="0.06387103005209273 -4.825434075527941e-13 -1.6918804005983124e-12 -4.825434075527941e-13 0.06377679823207613 3.49253196041411e-12 -1.6918804005983124e-12 3.49253196041411e-12 0.06548088547279793" free_energy=-22573.261397775554 pbc="T T T"
In       1.44428537       3.27693824       1.00458486        0      -0.01902389       0.00897849       0.04765302
In       1.49363308       0.24634591       3.32577121        1       0.01902389       0.00897849      -0.04765302
In       1.49363308       2.78424641       5.33494094        2       0.01902390      -0.00897849       0.04765302
In       1.44428537       5.81483873       7.65612729        3      -0.01902390      -0.00897849      -0.04765302
In       4.43155154       2.78424641       7.65612729        4       0.01902389      -0.00897849      -0.04765302
In       4.38220382       5.81483873       5.33494094        5      -0.01902389      -0.00897849       0.04765302
In       4.38220382       3.27693824       3.32577121        6      -0.01902389       0.00897849      -0.04765302
In       4.43155154       0.24634591       1.00458486        7       0.01902390       0.00897849       0.04765302
O        2.29158760       3.56966720       7.32442235        8       0.00496222       0.01301783      -0.02227327
O        0.64633085       0.53907488       5.66664587        9      -0.00496222       0.01301783       0.02227327
O        0.64633085       2.49151744       2.99406628       10      -0.00496222      -0.01301783      -0.02227327
O        2.29158760       5.52210976       1.33628980       11       0.00496222      -0.01301783       0.02227327
O        3.58424930       2.49151744       1.33628980       12      -0.00496222      -0.01301783       0.02227327
O        5.22950606       5.52210976       2.99406628       13       0.00496222      -0.01301783      -0.02227327
O        5.22950606       3.56966720       5.66664587       14       0.00496222       0.01301783       0.02227327
O        3.58424930       0.53907488       7.32442235       15      -0.00496222       0.01301783      -0.02227327
O        5.59859074       4.54588848       0.00000000       16      -0.00199574       0.00000000       0.00000000
O        3.21516462       1.51529616       4.33035608       17       0.00199574       0.00000000      -0.00000000
O        0.27724617       1.51529616       0.00000000       18       0.00199574      -0.00000000       0.00000000
O        2.66067229       4.54588848       4.33035608       19      -0.00199574       0.00000000      -0.00000000
20
Lattice="5.703768753928397 2.5454544039611044e-59 1.7689512085174405e-42 3.756293708913515e-59 6.047649843787368 1.271291757438545e-16 2.4715181651264484e-42 1.967336647692515e-17 8.94195137700573" Properties=species:S:1:pos:R:3:spacegroup_kinds:I:1:forces:R:3 spacegroup="P 1" unit_cell=conventional occupancy="_JSON {\"0\": {\"In\": 1}, \"1\": {\"In\": 1}, \"2\": {\"In\": 1}, \"3\": {\"In\": 1}, \"4\": {\"In\": 1}, \"5\": {\"In\": 1}, \"6\": {\"In\": 1}, \"7\": {\"In\": 1}, \"8\": {\"O\": 1}, \"9\": {\"O\": 1}, \"10\": {\"O\": 1}, \"11\": {\"O\": 1}, \"12\": {\"O\": 1}, \"13\": {\"O\": 1}, \"14\": {\"O\": 1}, \"15\": {\"O\": 1}, \"16\": {\"O\": 1}, \"17\": {\"O\": 1}, \"18\": {\"O\": 1}, \"19\": {\"O\": 1}}" n_minim_iter=6 energy=-22573.33180251086 stress="0.052020679352121416 4.850723415785223e-13 -3.3930289039919764e-12 4.850723415785223e-13 0.04768370809720834 -6.060830717728552e-12 -3.3930289039919764e-12 -6.060830717728552e-12 0.019172728535264198" free_energy=-22573.33180251086 pbc="T T T"
In       1.39116910       3.29968718       1.09208975        0      -0.16901789       0.16363087      -0.06594984
In       1.46071527       0.27586226       3.37888594        1       0.16901789       0.16363087       0.06594984
In       1.46071527       2.74796267       5.56306544        2       0.16901789      -0.16363087      -0.06594984
In       1.39116910       5.77178759       7.84986162        3      -0.16901789      -0.16363087       0.06594984
In       4.31259965       2.74796267       7.84986162        4       0.16901789      -0.16363087       0.06594983
In       4.24305348       5.77178759       5.56306544        5      -0.16901789      -0.16363087      -0.06594983
In       4.24305348       3.29968718       3.37888594        6      -0.16901789       0.16363087       0.06594984
In       4.31259965       0.27586226       1.09208975        7       0.16901789       0.16363087      -0.06594984
O        2.23527804       3.49975402       7.45878765        8       0.02914109       0.30499121       0.22674955
O        0.61660634       0.47592910       5.95413942        9      -0.02914109       0.30499121      -0.22674955
O        0.61660634       2.54789582       2.98781196       10      -0.02914109      -0.30499121       0.22674955
O        2.23527804       5.57172074       1.48316373       11       0.02914109      -0.30499121      -0.22674955
O        3.46849071       2.54789582       1.48316373       12      -0.02914109      -0.30499121      -0.22674955
O        5.08716242       5.57172074       2.98781196       13       0.02914109      -0.30499121       0.22674955
O        5.08716242       3.49975402       5.95413942       14       0.02914109       0.30499121      -0.22674955
O        3.46849071       0.47592910       7.45878765       15      -0.02914109       0.30499121       0.22674955
O        5.42204922       4.53573738       0.00000000       16       0.18568783       0.00000000      -0.00000000
O        3.13360391       1.51191246       4.47097569       17      -0.18568783      -0.00000000       0.00000000
O        0.28171954       1.51191246       0.00000000       18      -0.18568783       0.00000000      -0.00000000
O        2.57016484       4.53573738       4.47097569       19       0.18568783       0.00000000       0.00000000
20
Lattice="5.699644106036799 -9.8109109916292e-59 1.5856134364909104e-42 -6.595121497852955e-59 6.047235770512449 2.807361637278789e-17 2.1976650353874306e-42 -1.2223603372308258e-16 8.949035104344368" Properties=species:S:1:pos:R:3:spacegroup_kinds:I:1:forces:R:3 spacegroup="P 1" unit_cell=conventional occupancy="_JSON {\"0\": {\"In\": 1}, \"1\": {\"In\": 1}, \"2\": {\"In\": 1}, \"3\": {\"In\": 1}, \"4\": {\"In\": 1}, \"5\": {\"In\": 1}, \"6\": {\"In\": 1}, \"7\": {\"In\": 1}, \"8\": {\"O\": 1}, \"9\": {\"O\": 1}, \"10\": {\"O\": 1}, \"11\": {\"O\": 1}, \"12\": {\"O\": 1}, \"13\": {\"O\": 1}, \"14\": {\"O\": 1}, \"15\": {\"O\": 1}, \"16\": {\"O\": 1}, \"17\": {\"O\": 1}, \"18\": {\"O\": 1}, \"19\": {\"O\": 1}}" n_minim_iter=7 energy=-22573.332056958832 stress="0.051675506715506345 1.590212074557391e-12 -1.9089824157995096e-12 1.590212074557391e-12 0.04727406935343129 1.962879260805278e-12 -1.9089824157995096e-12 1.962879260805278e-12 0.018324181704677815" free_energy=-22573.332056958832 pbc="T T T"
In       1.38990281       3.30016873       1.09424181        0      -0.17146662       0.16631958      -0.08285478
In       1.45991924       0.27655084       3.38027575        1       0.17146662       0.16631958       0.08285478
In       1.45991924       2.74706704       5.56875936        2       0.17146662      -0.16631958      -0.08285478
In       1.38990281       5.77068493       7.85479330        3      -0.17146662      -0.16631958       0.08285478
In       4.30974129       2.74706704       7.85479330        4       0.17146662      -0.16631958       0.08285478
In       4.23972487       5.77068493       5.56875936        5      -0.17146662      -0.16631958      -0.08285478
In       4.23972487       3.30016873       3.38027575        6      -0.17146662       0.16631958       0.08285478
In       4.30974129       0.27655084       1.09424181        7       0.17146662       0.16631958      -0.08285478
O        2.23391143       3.49806908       7.46227106        8       0.03052148       0.31453953       0.23938951
O        0.61591062       0.47445120       5.96128160        9      -0.03052148       0.31453953      -0.23938951
O        0.61591062       2.54916669       2.98775351       10      -0.03052148      -0.31453953       0.23938951
O        2.23391143       5.57278457       1.48676405       11       0.03052148      -0.31453953      -0.23938951
O        3.46573267       2.54916669       1.48676405       12      -0.03052148      -0.31453953      -0.23938951
O        5.08373349       5.57278457       2.98775351       13       0.03052148      -0.31453953       0.23938951
O        5.08373349       3.49806908       5.96128160       14       0.03052148       0.31453953      -0.23938951
O        3.46573267       0.47445120       7.46227106       15      -0.03052148       0.31453953       0.23938951
O        5.41783787       4.53542683       0.00000000       16       0.19327699       0.00000000      -0.00000000
O        3.13162829       1.51180894       4.47451755       17      -0.19327699       0.00000000      -0.00000000
O        0.28180623       1.51180894       0.00000000       18      -0.19327699      -0.00000000       0.00000000
O        2.56801582       4.53542683       4.47451755       19       0.19327699       0.00000000      -0.00000000
20
Lattice="5.556556604761004 3.2382134447158865e-58 -1.9957863994948634e-41 -5.545746695061901e-58 6.0092944866055 2.0691746785677352e-16 6.055068684348971e-42 1.271216716259014e-16 9.237439806093082" Properties=species:S:1:pos:R:3:spacegroup_kinds:I:1:forces:R:3 spacegroup="P 1" unit_cell=conventional occupancy="_JSON {\"0\": {\"In\": 1}, \"1\": {\"In\": 1}, \"2\": {\"In\": 1}, \"3\": {\"In\": 1}, \"4\": {\"In\": 1}, \"5\": {\"In\": 1}, \"6\": {\"In\": 1}, \"7\": {\"In\": 1}, \"8\": {\"O\": 1}, \"9\": {\"O\": 1}, \"10\": {\"O\": 1}, \"11\": {\"O\": 1}, \"12\": {\"O\": 1}, \"13\": {\"O\": 1}, \"14\": {\"O\": 1}, \"15\": {\"O\": 1}, \"16\": {\"O\": 1}, \"17\": {\"O\": 1}, \"18\": {\"O\": 1}, \"19\": {\"O\": 1}}" n_minim_iter=8 energy=-22573.53582835584 stress="0.04561842566222893 1.5247242403070312e-13 -1.926178384919528e-12 1.5247242403070312e-13 0.031701418487416595 4.046083470709313e-12 -1.926178384919528e-12 4.046083470709313e-12 0.021117091714074193" free_energy=-22573.53582835584 pbc="T T T"
In       1.34539600       3.29298156       1.15145904        0      -0.25047780       0.07395939      -0.23588739
In       1.43288230       0.28833432       3.46726086        1       0.25047780       0.07395939       0.23588739
In       1.43288230       2.71631292       5.77017895        2       0.25047780      -0.07395939      -0.23588739
In       1.34539600       5.72096017       8.08598076        3      -0.25047780      -0.07395939       0.23588739
In       4.21116060       2.71631292       8.08598076        4       0.25047780      -0.07395939       0.23588739
In       4.12367430       5.72096017       5.77017895        5      -0.25047780      -0.07395939      -0.23588739
In       4.12367430       3.29298156       3.46726086        6      -0.25047780       0.07395939       0.23588739
In       4.21116060       0.28833432       1.15145904        7       0.25047780       0.07395939      -0.23588739
O        2.18290966       3.47005074       7.67546507        8      -0.14727776       0.34640249       0.23595944
O        0.59536864       0.46540350       6.18069464        9       0.14727776       0.34640249      -0.23595944
O        0.59536864       2.53924374       3.05674516       10       0.14727776      -0.34640249       0.23595944
O        2.18290966       5.54389098       1.56197474       11      -0.14727776      -0.34640249      -0.23595944
O        3.37364694       2.53924374       1.56197474       12       0.14727776      -0.34640249      -0.23595944
O        4.96118796       5.54389098       3.05674516       13      -0.14727776      -0.34640249       0.23595944
O        4.96118796       3.47005074       6.18069464       14      -0.14727776       0.34640249      -0.23595944
O        3.37364694       0.46540350       7.67546507       15       0.14727776       0.34640249       0.23595944
O        5.28135083       4.50697086       0.00000000       16       0.37622130      -0.00000000       0.00000000
O        3.05348407       1.50232362       4.61871990       17      -0.37622130       0.00000000      -0.00000000
O        0.27520577       1.50232362       0.00000000       18      -0.37622130       0.00000000       0.00000000
O        2.50307253       4.50697086       4.61871990       19       0.37622130      -0.00000000      -0.00000000
20
Lattice="5.4517280539328 2.9532548522728692e-58 -2.0775209621030236e-41 -7.192786808504113e-58 6.013232156674509 2.1075807827781944e-16 -5.3218946931421346e-43 1.272049697905362e-16 9.408896609380578" Properties=species:S:1:pos:R:3:spacegroup_kinds:I:1:forces:R:3 spacegroup="P 1" unit_cell=conventional occupancy="_JSON {\"0\": {\"In\": 1}, \"1\": {\"In\": 1}, \"2\": {\"In\": 1}, \"3\": {\"In\": 1}, \"4\": {\"In\": 1}, \"5\": {\"In\": 1}, \"6\": {\"In\": 1}, \"7\": {\"In\": 1}, \"8\": {\"O\": 1}, \"9\": {\"O\": 1}, \"10\": {\"O\": 1}, \"11\": {\"O\": 1}, \"12\": {\"O\": 1}, \"13\": {\"O\": 1}, \"14\": {\"O\": 1}, \"15\": {\"O\": 1}, \"16\": {\"O\": 1}, \"17\": {\"O\": 1}, \"18\": {\"O\": 1}, \"19\": {\"O\": 1}}" n_minim_iter=9 energy=-22573.65565362101 stress="0.045969545549633097 -1.234725763467774e-12 -9.28043844309302e-12 -1.234725763467774e-12 0.027134483060011278 3.099021471633632e-13 -9.28043844309302e-12 3.099021471633632e-13 0.043481596518211804" free_energy=-22573.65565362101 pbc="T T T"
In       1.30806959       3.30037023       1.17723239        0      -0.25380474      -0.01951403      -0.31961747
In       1.41779444       0.29375416       3.52721592        1       0.25380474      -0.01951403       0.31961747
In       1.41779444       2.71286192       5.88168069        2       0.25380474       0.01951403      -0.31961747
In       1.30806959       5.71947800       8.23166422        3      -0.25380474       0.01951403       0.31961747
In       4.14365847       2.71286192       8.23166422        4       0.25380474       0.01951403       0.31961747
In       4.03393361       5.71947800       5.88168069        5      -0.25380474       0.01951403      -0.31961746
In       4.03393361       3.30037023       3.52721592        6      -0.25380474      -0.01951403       0.31961747
In       4.14365847       0.29375416       1.17723239        7       0.25380474      -0.01951403      -0.31961747
O        2.13622802       3.47573455       7.81018888        8      -0.24605783       0.23186340       0.30371883
O        0.58963601       0.46911847       6.30315603        9       0.24605783       0.23186340      -0.30371883
O        0.58963601       2.53749761       3.10574058       10       0.24605783      -0.23186340       0.30371883
O        2.13622802       5.54411369       1.59870773       11      -0.24605783      -0.23186340      -0.30371883
O        3.31550003       2.53749761       1.59870773       12       0.24605783      -0.23186340      -0.30371883
O        4.86209205       5.54411369       3.10574058       13      -0.24605783      -0.23186340       0.30371883
O        4.86209205       3.47573455       6.30315603       14      -0.24605783       0.23186340      -0.30371883
O        3.31550003       0.46911847       7.81018888       15       0.24605783       0.23186340       0.30371883
O        5.18902216       4.50992412       0.00000000       16       0.38691692      -0.00000000       0.00000000
O        2.98856992       1.50330804       4.70444830       17      -0.38691692      -0.00000000       0.00000000
O        0.26270589       1.50330804       0.00000000       18      -0.38691692       0.00000000      -0.00000000
O        2.46315813       4.50992412       4.70444830       19       0.38691692       0.00000000      -0.00000000
20