20
Lattice="5.502534742470997 1.8745640275271446e-58 1.2766152273154256e-43 -1.8554093854242198e-58 5.4302954457415975 2.351382212083962e-17 -1.7961933729252285e-43 -3.352398458894471e-17 7.742048055858882" Properties=species:S:1:pos:R:3:spacegroup_kinds:I:1:forces:R:3 spacegroup="P 1" unit_cell=conventional occupancy="_JSON {\"0\": {\"In\": 1}, \"1\": {\"In\": 1}, \"2\": {\"In\": 1}, \"3\": {\"In\": 1}, \"4\": {\"In\": 1}, \"5\": {\"In\": 1}, \"6\": {\"In\": 1}, \"7\": {\"In\": 1}, \"8\": {\"O\": 1}, \"9\": {\"O\": 1}, \"10\": {\"O\": 1}, \"11\": {\"O\": 1}, \"12\": {\"O\": 1}, \"13\": {\"O\": 1}, \"14\": {\"O\": 1}, \"15\": {\"O\": 1}, \"16\": {\"O\": 1}, \"17\": {\"O\": 1}, \"18\": {\"O\": 1}, \"19\": {\"O\": 1}}" n_minim_iter=1 energy=-22574.98188554978 stress="0.013995290185737025 -6.833886944591323e-12 4.126748792690296e-12 -6.833886944591323e-12 0.02055527455401104 9.613746950343449e-12 4.126748792690296e-12 9.613746950343449e-12 0.012396737642137145" free_energy=-22574.98188554978 pbc="T T T"
In       1.36100403       2.83985772       0.91333497        0      -0.00162708      -0.05006107       0.06138504
In       1.39026334       0.12471000       2.95768906        1       0.00162708      -0.05006107      -0.06138504
In       1.39026334       2.59043772       4.78435900        2       0.00162708       0.05006107       0.06138504
In       1.36100403       5.30558544       6.82871308        3      -0.00162708       0.05006107      -0.06138504
In       4.14153071       2.59043772       6.82871308        4       0.00162708       0.05006107      -0.06138504
In       4.11227140       5.30558544       4.78435900        5      -0.00162708       0.05006107       0.06138504
In       4.11227140       2.83985772       2.95768906        6      -0.00162708      -0.05006107      -0.06138504
In       4.14153071       0.12471000       0.91333497        7       0.00162708      -0.05006107       0.06138504
O        2.13930337       3.28638090       6.61111965        8      -0.05001150       0.02676479       0.15514548
O        0.61196400       0.57123317       5.00195244        9       0.05001150       0.02676479      -0.15514548
O        0.61196400       2.14391455       2.74009562       10       0.05001150      -0.02676479       0.15514548
O        2.13930337       4.85906227       1.13092841       11      -0.05001150      -0.02676479      -0.15514548
O        3.36323137       2.14391455       1.13092841       12       0.05001150      -0.02676479      -0.15514548
O        4.89057074       4.85906227       2.74009562       13      -0.05001150      -0.02676479       0.15514548
O        4.89057074       3.28638090       5.00195244       14      -0.05001150       0.02676479      -0.15514548
O        3.36323137       0.57123317       6.61111965       15       0.05001150       0.02676479       0.15514548
O        5.31820434       4.07272158      -0.00000000       16       0.14712053       0.00000000      -0.00000000
O        2.93559778       1.35757386       3.87102403       17      -0.14712052      -0.00000000       0.00000000
O        0.18433041       1.35757386      -0.00000000       18      -0.14712053      -0.00000000       0.00000000
O        2.56693696       4.07272158       3.87102403       19       0.14712052       0.00000000      -0.00000000
20
Lattice="5.511729084313153 1.7223072247710714e-58 2.167601606202078e-43 -1.8360562955866532e-58 5.403466671434453 4.5508601230319305e-18 1.098192451931611e-44 -6.102467827563528e-17 7.7675091780294006" Properties=species:S:1:pos:R:3:spacegroup_kinds:I:1:forces:R:3 spacegroup="P 1" unit_cell=conventional occupancy="_JSON {\"0\": {\"In\": 1}, \"1\": {\"In\": 1}, \"2\": {\"In\": 1}, \"3\": {\"In\": 1}, \"4\": {\"In\": 1}, \"5\": {\"In\": 1}, \"6\": {\"In\": 1}, \"7\": {\"In\": 1}, \"8\": {\"O\": 1}, \"9\": {\"O\": 1}, \"10\": {\"O\": 1}, \"11\": {\"O\": 1}, \"12\": {\"O\": 1}, \"13\": {\"O\": 1}, \"14\": {\"O\": 1}, \"15\": {\"O\": 1}, \"16\": {\"O\": 1}, \"17\": {\"O\": 1}, \"18\": {\"O\": 1}, \"19\": {\"O\": 1}}" n_minim_iter=2 energy=-22574.98715310648 stress="0.01844454791813035 -5.596799031100913e-12 -8.158834614600178e-13 -5.596799031100913e-12 0.016855885477213457 -3.4152340462143135e-12 -8.158834614600178e-13 -3.4152340462143135e-12 0.01784067661558517" free_energy=-22574.98715310648 pbc="T T T"
In       1.36327106       2.82560982       0.91660739        0      -0.01173873      -0.11919322       0.07555193
In       1.39259348       0.12387648       2.96714720        1       0.01173873      -0.11919322      -0.07555193
In       1.39259348       2.57785685       4.80036198        2       0.01173873       0.11919322       0.07555193
In       1.36327106       5.27959019       6.85090178        3      -0.01173873       0.11919322      -0.07555193
In       4.14845802       2.57785685       6.85090178        4       0.01173873       0.11919322      -0.07555193
In       4.11913560       5.27959019       4.80036198        5      -0.01173873       0.11919322       0.07555193
In       4.11913560       2.82560982       2.96714720        6      -0.01173873      -0.11919322      -0.07555193
In       4.14845802       0.12387648       0.91660739        7       0.01173873      -0.11919322       0.07555193
O        2.14265939       3.27026051       6.63354076        8      -0.03723017      -0.00139959       0.12567569
O        0.61320515       0.56852717       5.01772301        9       0.03723017      -0.00139959      -0.12567569
O        0.61320515       2.13320616       2.74978617       10       0.03723017       0.00139959       0.12567569
O        2.14265939       4.83493950       1.13396842       11      -0.03723017       0.00139959      -0.12567569
O        3.36906969       2.13320616       1.13396842       12       0.03723017       0.00139959      -0.12567569
O        4.89852393       4.83493950       2.74978617       13      -0.03723017       0.00139959       0.12567569
O        4.89852393       3.27026051       5.01772301       14      -0.03723017      -0.00139959      -0.12567569
O        3.36906969       0.56852717       6.63354076       15       0.03723017      -0.00139959       0.12567569
O        5.32773376       4.05260000      -0.00000000       16       0.15851919      -0.00000000       0.00000000
O        2.93985987       1.35086667       3.88375459       17      -0.15851919      -0.00000000      -0.00000000
O        0.18399533       1.35086667      -0.00000000       18      -0.15851919      -0.00000000       0.00000000
O        2.57186921       4.05260000       3.88375459       19       0.15851919       0.00000000      -0.00000000
20
Lattice="5.481566692568958 1.7125720988063982e-58 3.5783565376451113e-43 -1.835755604015156e-58 5.398023346888625 4.580515592909288e-18 -3.1406847134302886e-43 -6.096320345782708e-17 7.818125792960132" Properties=species:S:1:pos:R:3:spacegroup_kinds:I:1:forces:R:3 spacegroup="P 1" unit_cell=conventional occupancy="_JSON {\"0\": {\"In\": 1}, \"1\": {\"In\": 1}, \"2\": {\"In\": 1}, \"3\": {\"In\": 1}, \"4\": {\"In\": 1}, \"5\": {\"In\": 1}, \"6\": {\"In\": 1}, \"7\": {\"In\": 1}, \"8\": {\"O\": 1}, \"9\": {\"O\": 1}, \"10\": {\"O\": 1}, \"11\": {\"O\": 1}, \"12\": {\"O\": 1}, \"13\": {\"O\": 1}, \"14\": {\"O\": 1}, \"15\": {\"O\": 1}, \"16\": {\"O\": 1}, \"17\": {\"O\": 1}, \"18\": {\"O\": 1}, \"19\": {\"O\": 1}}" n_minim_iter=3 energy=-22575.000425478473 stress="0.015290152650547636 -7.589364470864335e-12 -3.5154912370657636e-12 -7.589364470864335e-12 0.02357611194520388 -4.023962585530371e-12 -3.5154912370657636e-12 -4.023962585530371e-12 0.02871719803903494" free_energy=-22575.000425478473 pbc="T T T"
In       1.35512507       2.81549916       0.92761896        0      -0.08357720      -0.10108427       0.02586709
In       1.38565828       0.11648748       2.98144394        1       0.08357720      -0.10108427      -0.02586709
In       1.38565828       2.58252419       4.83668185        2       0.08357720       0.10108427       0.02586709
In       1.35512507       5.28153586       6.89050684        3      -0.08357720       0.10108427      -0.02586709
In       4.12644162       2.58252419       6.89050684        4       0.08357720       0.10108427      -0.02586709
In       4.09590842       5.28153586       4.83668185        5      -0.08357720       0.10108427       0.02586709
In       4.09590842       2.81549916       2.98144394        6      -0.08357720      -0.10108427      -0.02586709
In       4.12644162       0.11648748       0.92761896        7       0.08357720      -0.10108427       0.02586709
O        2.12827419       3.26717610       6.68573079        8      -0.11312671       0.00600093       0.07788306
O        0.61250915       0.56816442       5.04145790        9       0.11312671       0.00600093      -0.07788306
O        0.61250915       2.13084725       2.77666789       10       0.11312671      -0.00600093       0.07788306
O        2.12827419       4.82985892       1.13239501       11      -0.11312671      -0.00600093      -0.07788306
O        3.35329250       2.13084725       1.13239501       12       0.11312671      -0.00600093      -0.07788306
O        4.86905754       4.82985892       2.77666789       13      -0.11312671      -0.00600093       0.07788306
O        4.86905754       3.26717610       5.04145790       14      -0.11312671       0.00600093      -0.07788306
O        3.35329250       0.56816442       6.68573079       15       0.11312671       0.00600093       0.07788306
O        5.30919077       4.04851751      -0.00000000       16       0.06825286       0.00000000       0.00000000
O        2.91315927       1.34950584       3.90906290       17      -0.06825286      -0.00000000       0.00000000
O        0.17237593       1.34950584      -0.00000000       18      -0.06825286       0.00000000       0.00000000
O        2.56840742       4.04851751       3.90906290       19       0.06825286       0.00000000       0.00000000
20
Lattice="5.5288172960903506 2.14807624622111e-58 4.5278137522194025e-43 -1.305953555305325e-58 5.366875756199855 2.811356737537573e-17 7.907883312346497e-44 -2.7041799675404704e-17 7.796296275926414" Properties=species:S:1:pos:R:3:spacegroup_kinds:I:1:forces:R:3 spacegroup="P 1" unit_cell=conventional occupancy="_JSON {\"0\": {\"In\": 1}, \"1\": {\"In\": 1}, \"2\": {\"In\": 1}, \"3\": {\"In\": 1}, \"4\": {\"In\": 1}, \"5\": {\"In\": 1}, \"6\": {\"In\": 1}, \"7\": {\"In\": 1}, \"8\": {\"O\": 1}, \"9\": {\"O\": 1}, \"10\": {\"O\": 1}, \"11\": {\"O\": 1}, \"12\": {\"O\": 1}, \"13\": {\"O\": 1}, \"14\": {\"O\": 1}, \"15\": {\"O\": 1}, \"16\": {\"O\": 1}, \"17\": {\"O\": 1}, \"18\": {\"O\": 1}, \"19\": {\"O\": 1}}" n_minim_iter=4 energy=-22575.027854923446 stress="0.038801546768856957 -1.1050298747147713e-11 3.855870701824631e-12 -1.1050298747147713e-11 0.03530881524429446 -4.882823086405336e-12 3.855870701824631e-12 -4.882823086405336e-12 0.034668103755346166" free_energy=-22575.027854923446 pbc="T T T"
In       1.36369436       2.77784326       0.93930019        0       0.00350612      -0.09849473      -0.03508039
In       1.40071428       0.09440538       2.95884795        1      -0.00350612      -0.09849473       0.03508039
In       1.40071428       2.58903250       4.83744832        2      -0.00350612       0.09849473      -0.03508039
In       1.36369436       5.27247037       6.85699609        3       0.00350612       0.09849473       0.03508039
In       4.16512293       2.58903250       6.85699609        4      -0.00350612       0.09849473       0.03508039
In       4.12810301       5.27247037       4.83744832        5       0.00350612       0.09849473      -0.03508039
In       4.12810301       2.77784326       2.95884795        6       0.00350612      -0.09849473       0.03508039
In       4.16512293       0.09440538       0.93930019        7      -0.00350612      -0.09849473      -0.03508039
O        2.13758866       3.24897555       6.69289398        8       0.02754029      -0.03436726      -0.02309378
O        0.62681999       0.56553768       5.00155044        9      -0.02754029      -0.03436726       0.02309378
O        0.62681999       2.11790020       2.79474584       10      -0.02754029       0.03436726      -0.02309378
O        2.13758866       4.80133808       1.10340230       11       0.02754029       0.03436726       0.02309378
O        3.39122864       2.11790020       1.10340230       12      -0.02754029       0.03436726       0.02309379
O        4.90199731       4.80133808       2.79474584       13       0.02754029       0.03436726      -0.02309378
O        4.90199731       3.24897555       5.00155044       14       0.02754029      -0.03436726       0.02309378
O        3.39122864       0.56553768       6.69289398       15      -0.02754029      -0.03436726      -0.02309378
O        5.38552758       4.02515682      -0.00000000       16      -0.17258439      -0.00000000       0.00000000
O        2.90769836       1.34171894       3.89814814       17       0.17258439       0.00000000      -0.00000000
O        0.14328972       1.34171894      -0.00000000       18       0.17258439      -0.00000000       0.00000000
O        2.62111893       4.02515682       3.89814814       19      -0.17258439       0.00000000       0.00000000
20
Lattice="5.517522813373683 1.9551927903824645e-58 4.068820918103943e-43 -7.9163482088788435e-59 5.37429563981045 8.698900507782852e-17 2.0949845233603665e-43 5.683309573329308e-17 7.801469664424537" Properties=species:S:1:pos:R:3:spacegroup_kinds:I:1:forces:R:3 spacegroup="P 1" unit_cell=conventional occupancy="_JSON {\"0\": {\"In\": 1}, \"1\": {\"In\": 1}, \"2\": {\"In\": 1}, \"3\": {\"In\": 1}, \"4\": {\"In\": 1}, \"5\": {\"In\": 1}, \"6\": {\"In\": 1}, \"7\": {\"In\": 1}, \"8\": {\"O\": 1}, \"9\": {\"O\": 1}, \"10\": {\"O\": 1}, \"11\": {\"O\": 1}, \"12\": {\"O\": 1}, \"13\": {\"O\": 1}, \"14\": {\"O\": 1}, \"15\": {\"O\": 1}, \"16\": {\"O\": 1}, \"17\": {\"O\": 1}, \"18\": {\"O\": 1}, \"19\": {\"O\": 1}}" n_minim_iter=5 energy=-22575.03198673593 stress="0.033662753966089566 1.3879636042489327e-12 2.5701013363834513e-12 1.3879636042489327e-12 0.03354468821828013 -6.1530952717718705e-12 2.5701013363834513e-12 -6.1530952717718705e-12 0.03341283359138596" free_energy=-22575.03198673593 pbc="T T T"
In       1.36132396       2.78482014       0.93663926        0      -0.00874378      -0.06996675      -0.01898050
In       1.39743744       0.09767232       2.96409557        1       0.00874378      -0.06996675       0.01898050
In       1.39743744       2.58947550       4.83737409        2       0.00874378       0.06996675      -0.01898050
In       1.36132396       5.27662332       6.86483040        3      -0.00874378       0.06996675       0.01898050
In       4.15619885       2.58947550       6.86483040        4       0.00874378       0.06996675       0.01898050
In       4.12008537       5.27662332       4.83737409        5      -0.00874378       0.06996675      -0.01898050
In       4.12008537       2.78482014       2.96409557        6      -0.00874378      -0.06996675       0.01898050
In       4.15619885       0.09767232       0.93663926        7       0.00874378      -0.06996675      -0.01898050
O        2.13500677       3.25301259       6.69200539        8      -0.01343597      -0.01032663       0.00851686
O        0.62375463       0.56586477       5.01019911        9       0.01343597      -0.01032663      -0.00851686
O        0.62375463       2.12128305       2.79127055       10       0.01343597       0.01032663       0.00851686
O        2.13500677       4.80843087       1.10946428       11      -0.01343597       0.01032663      -0.00851686
O        3.38251604       2.12128305       1.10946428       12       0.01343597       0.01032663      -0.00851686
O        4.89376818       4.80843087       2.79127055       13      -0.01343597       0.01032663       0.00851686
O        4.89376818       3.25301259       5.01019911       14      -0.01343597      -0.01032663      -0.00851686
O        3.38251604       0.56586477       6.69200539       15       0.01343597      -0.01032663       0.00851686
O        5.36649695       4.03072173      -0.00000000       16      -0.08702080      -0.00000000      -0.00000000
O        2.90978727       1.34357391       3.90073483       17       0.08702080      -0.00000000      -0.00000000
O        0.15102586       1.34357391      -0.00000000       18       0.08702080       0.00000000       0.00000000
O        2.60773554       4.03072173       3.90073483       19      -0.08702080       0.00000000       0.00000000
20
Lattice="5.5098022298607905 3.6549874233377034e-58 6.868267895772411e-43 1.626404182471724e-58 5.370177587725102 1.853996448264812e-16 7.31786753892373e-43 1.9672994893823812e-16 7.8183922760042615" Properties=species:S:1:pos:R:3:spacegroup_kinds:I:1:forces:R:3 spacegroup="P 1" unit_cell=conventional occupancy="_JSON {\"0\": {\"In\": 1}, \"1\": {\"In\": 1}, \"2\": {\"In\": 1}, \"3\": {\"In\": 1}, \"4\": {\"In\": 1}, \"5\": {\"In\": 1}, \"6\": {\"In\": 1}, \"7\": {\"In\": 1}, \"8\": {\"O\": 1}, \"9\": {\"O\": 1}, \"10\": {\"O\": 1}, \"11\": {\"O\": 1}, \"12\": {\"O\": 1}, \"13\": {\"O\": 1}, \"14\": {\"O\": 1}, \"15\": {\"O\": 1}, \"16\": {\"O\": 1}, \"17\": {\"O\": 1}, \"18\": {\"O\": 1}, \"19\": {\"O\": 1}}" n_minim_iter=6 energy=-22575.034887402235 stress="0.03273078256983548 8.678890848208828e-12 -1.5439367624184962e-12 8.678890848208828e-12 0.035510246914508874 1.3256289441251927e-12 -1.5439367624184962e-12 1.3256289441251927e-12 0.034412675220438435" free_energy=-22575.034887402235 pbc="T T T"
In       1.35857544       2.77656412       0.93793891        0       0.00562767      -0.00407701      -0.00591318
In       1.39632567       0.09147532       2.97125723        1      -0.00562767      -0.00407701       0.00591318
In       1.39632567       2.59361347       4.84713505        2      -0.00562767       0.00407701      -0.00591318
In       1.35857544       5.27870227       6.88045336        3       0.00562767       0.00407701       0.00591318
In       4.15122679       2.59361347       6.88045336        4      -0.00562767       0.00407701       0.00591318
In       4.11347656       5.27870227       4.84713505        5       0.00562767       0.00407701      -0.00591318
In       4.11347656       2.77656412       2.97125723        6       0.00562767      -0.00407701       0.00591318
In       4.15122679       0.09147532       0.93793891        7      -0.00562767      -0.00407701      -0.00591318
O        2.13072139       3.24970357       6.70831173        8      -0.05337981       0.01073866       0.00688178
O        0.62417973       0.56461477       5.01927668        9       0.05337981       0.01073866      -0.00688178
O        0.62417973       2.12047402       2.79911560       10       0.05337981      -0.01073866       0.00688178
O        2.13072139       4.80556281       1.11008054       11      -0.05337981      -0.01073866      -0.00688178
O        3.37908084       2.12047402       1.11008054       12       0.05337982      -0.01073866      -0.00688178
O        4.88562250       4.80556281       2.79911560       13      -0.05337981      -0.01073866       0.00688178
O        4.88562250       3.24970357       5.01927668       14      -0.05337981       0.01073866      -0.00688178
O        3.37908084       0.56461477       6.70831173       15       0.05337981       0.01073866       0.00688178
O        5.35386702       4.02763319      -0.00000000       16       0.02106714      -0.00000000       0.00000000
O        2.91083632       1.34254440       3.90919614       17      -0.02106714      -0.00000000      -0.00000000
O        0.15593521       1.34254440      -0.00000000       18      -0.02106714       0.00000000      -0.00000000
O        2.59896591       4.02763319       3.90919614       19       0.02106714       0.00000000       0.00000000
20
Lattice="5.517934459237959 3.693093690753327e-58 7.0028798565381864e-43 1.6552211298397506e-58 5.348579388260441 2.0817353056511547e-16 6.841554559082421e-43 2.2772591139268985e-16 7.83839474250797" Properties=species:S:1:pos:R:3:spacegroup_kinds:I:1:forces:R:3 spacegroup="P 1" unit_cell=conventional occupancy="_JSON {\"0\": {\"In\": 1}, \"1\": {\"In\": 1}, \"2\": {\"In\": 1}, \"3\": {\"In\": 1}, \"4\": {\"In\": 1}, \"5\": {\"In\": 1}, \"6\": {\"In\": 1}, \"7\": {\"In\": 1}, \"8\": {\"O\": 1}, \"9\": {\"O\": 1}, \"10\": {\"O\": 1}, \"11\": {\"O\": 1}, \"12\": {\"O\": 1}, \"13\": {\"O\": 1}, \"14\": {\"O\": 1}, \"15\": {\"O\": 1}, \"16\": {\"O\": 1}, \"17\": {\"O\": 1}, \"18\": {\"O\": 1}, \"19\": {\"O\": 1}}" n_minim_iter=7 energy=-22575.037050558938 stress="0.038941044073604686 3.0576333481114607e-12 1.8380906224657967e-12 3.0576333481114607e-12 0.03793844817034258 2.0436912332905676e-12 1.8380906224657967e-12 2.0436912332905676e-12 0.03779575712934982" free_energy=-22575.037050558938 pbc="T T T"
In       1.35976021       2.75579962       0.94331005        0       0.03156050      -0.01434346      -0.01198490
In       1.39920702       0.08150993       2.97588732        1      -0.03156050      -0.01434346       0.01198490
In       1.39920702       2.59277977       4.86250742        2      -0.03156050       0.01434345      -0.01198490
In       1.35976021       5.26706946       6.89508469        3       0.03156050       0.01434345       0.01198490
In       4.15817425       2.59277977       6.89508469        4      -0.03156050       0.01434346       0.01198490
In       4.11872744       5.26706946       4.86250742        5       0.03156050       0.01434345      -0.01198490
In       4.11872744       2.75579962       2.97588732        6       0.03156050      -0.01434345       0.01198490
In       4.15817425       0.08150993       0.94331005        7      -0.03156050      -0.01434345      -0.01198490
O        2.12958268       3.23636330       6.73299311        8      -0.03473738      -0.02119034      -0.03393591
O        0.62938455       0.56207361       5.02459900        9       0.03473738      -0.02119034       0.03393591
O        0.62938455       2.11221609       2.81379574       10       0.03473738       0.02119034      -0.03393591
O        2.12958268       4.78650578       1.10540163       11      -0.03473738       0.02119034       0.03393591
O        3.38835178       2.11221609       1.10540163       12       0.03473738       0.02119034       0.03393591
O        4.88854991       4.78650578       2.81379574       13      -0.03473738       0.02119034      -0.03393591
O        4.88854991       3.23636330       5.02459900       14      -0.03473738      -0.02119034       0.03393591
O        3.38835178       0.56207361       6.73299311       15       0.03473738      -0.02119034      -0.03393591
O        5.36661088       4.01143454      -0.00000000       16       0.02167823      -0.00000000       0.00000000
O        2.91029081       1.33714485       3.91919737       17      -0.02167823       0.00000000      -0.00000000
O        0.15132358       1.33714485      -0.00000000       18      -0.02167823       0.00000000       0.00000000
O        2.60764365       4.01143454       3.91919737       19       0.02167823       0.00000000       0.00000000
20
Lattice="5.473729762405052 5.4538491837546086e-58 -3.807720726876054e-44 2.7467408900007198e-58 5.275488320786808 7.374377927693443e-16 1.2167055236694835e-42 9.65770822604952e-16 8.0111727439703" Properties=species:S:1:pos:R:3:spacegroup_kinds:I:1:forces:R:3 spacegroup="P 1" unit_cell=conventional occupancy="_JSON {\"0\": {\"In\": 1}, \"1\": {\"In\": 1}, \"2\": {\"In\": 1}, \"3\": {\"In\": 1}, \"4\": {\"In\": 1}, \"5\": {\"In\": 1}, \"6\": {\"In\": 1}, \"7\": {\"In\": 1}, \"8\": {\"O\": 1}, \"9\": {\"O\": 1}, \"10\": {\"O\": 1}, \"11\": {\"O\": 1}, \"12\": {\"O\": 1}, \"13\": {\"O\": 1}, \"14\": {\"O\": 1}, \"15\": {\"O\": 1}, \"16\": {\"O\": 1}, \"17\": {\"O\": 1}, \"18\": {\"O\": 1}, \"19\": {\"O\": 1}}" n_minim_iter=8 energy=-22575.061563198447 stress="0.04567664456509426 9.223228277792873e-13 1.0728531690151562e-11 9.223228277792873e-13 0.04969613773736619 -3.2066136547345854e-12 1.0728531690151562e-11 -3.2066136547345854e-12 0.05491852732150135" free_energy=-22575.061563198447 pbc="T T T"
In       1.35445205       2.67498784       0.96495067        0       0.04370275       0.00046919      -0.06248208
In       1.38241283       0.03724368       3.04063570        1      -0.04370275       0.00046919       0.06248208
In       1.38241283       2.60050048       4.97053704        2      -0.04370275      -0.00046919      -0.06248208
In       1.35445205       5.23824464       7.04622207        3       0.04370275      -0.00046919       0.06248208
In       4.11927771       2.60050048       7.04622207        4      -0.04370275      -0.00046919       0.06248208
In       4.09131693       5.23824464       4.97053704        5       0.04370275      -0.00046919      -0.06248208
In       4.09131693       2.67498784       3.04063570        6       0.04370275       0.00046919       0.06248208
In       4.11927771       0.03724368       0.96495067        7      -0.04370275       0.00046919      -0.06248208
O        2.08287670       3.18370331       6.89371577        8      -0.17060830      -0.11991522      -0.12704605
O        0.65398818       0.54595915       5.12304334        9       0.17060830      -0.11991522       0.12704605
O        0.65398818       2.09178501       2.88812940       10       0.17060830       0.11991522      -0.12704605
O        2.08287670       4.72952917       1.11745697       11      -0.17060830       0.11991522       0.12704605
O        3.39085306       2.09178501       1.11745697       12       0.17060830       0.11991522       0.12704605
O        4.81974158       4.72952917       2.88812940       13      -0.17060830       0.11991522      -0.12704605
O        4.81974158       3.18370331       5.12304334       14      -0.17060830      -0.11991522       0.12704605
O        3.39085306       0.54595915       6.89371577       15       0.17060830      -0.11991522      -0.12704605
O        5.33101545       3.95661624      -0.00000000       16       0.10636334      -0.00000000       0.00000000
O        2.87957919       1.31887208       4.00558637       17      -0.10636333      -0.00000000      -0.00000000
O        0.14271431       1.31887208      -0.00000000       18      -0.10636333       0.00000000      -0.00000000
O        2.59415057       3.95661624       4.00558637       19       0.10636333       0.00000000      -0.00000000
20
Lattice="5.470789855973575 5.942729913715873e-58 -8.538150920989757e-44 3.194831993120788e-58 5.270515902899753 9.59209192067589e-16 1.079180395812926e-42 1.2851922706414047e-15 8.023039933547969" Properties=species:S:1:pos:R:3:spacegroup_kinds:I:1:forces:R:3 spacegroup="P 1" unit_cell=conventional occupancy="_JSON {\"0\": {\"In\": 1}, \"1\": {\"In\": 1}, \"2\": {\"In\": 1}, \"3\": {\"In\": 1}, \"4\": {\"In\": 1}, \"5\": {\"In\": 1}, \"6\": {\"In\": 1}, \"7\": {\"In\": 1}, \"8\": {\"O\": 1}, \"9\": {\"O\": 1}, \"10\": {\"O\": 1}, \"11\": {\"O\": 1}, \"12\": {\"O\": 1}, \"13\": {\"O\": 1}, \"14\": {\"O\": 1}, \"15\": {\"O\": 1}, \"16\": {\"O\": 1}, \"17\": {\"O\": 1}, \"18\": {\"O\": 1}, \"19\": {\"O\": 1}}" n_minim_iter=9 energy=-22575.06235765336 stress="0.045698623173284075 -3.908761359102165e-12 -3.4192504583212607e-12 -3.908761359102165e-12 0.050360922801496344 -3.707633930494022e-12 -3.4192504583212607e-12 -3.707633930494022e-12 0.057316604957435104" free_energy=-22575.06235765336 pbc="T T T"
In       1.35423106       2.66949170       0.96631689        0       0.04414721       0.00677252      -0.06691747
In       1.38116387       0.03423375       3.04520308        1      -0.04414721       0.00677252       0.06691747
In       1.38116387       2.60102421       4.97783685        2      -0.04414721      -0.00677252      -0.06691747
In       1.35423106       5.23628216       7.05672305        3       0.04414721      -0.00677252       0.06691748
In       4.11655880       2.60102421       7.05672305        4      -0.04414721      -0.00677252       0.06691748
In       4.08962598       5.23628216       4.97783685        5       0.04414721      -0.00677252      -0.06691747
In       4.08962598       2.66949170       3.04520308        6       0.04414721       0.00677252       0.06691748
In       4.11655880       0.03423375       0.96631689        7      -0.04414721       0.00677252      -0.06691747
O        2.07954194       3.18002190       6.90454888        8      -0.17133914      -0.12899684      -0.14389059
O        0.65585299       0.54476395       5.13001102        9       0.17133914      -0.12899684       0.14389059
O        0.65585299       2.09049400       2.89302891       10       0.17133914       0.12899684      -0.14389059
O        2.07954194       4.72575195       1.11849105       11      -0.17133914       0.12899684       0.14389059
O        3.39124792       2.09049400       1.11849105       12       0.17133914       0.12899684       0.14389059
O        4.81493686       4.72575195       2.89302891       13      -0.17133914       0.12899684      -0.14389059
O        4.81493686       3.18002190       5.13001102       14      -0.17133914      -0.12899684       0.14389059
O        3.39124792       0.54476395       6.90454888       15       0.17133914      -0.12899684      -0.14389059
O        5.32864070       3.95288693      -0.00000000       16       0.10670308       0.00000000      -0.00000000
O        2.87754408       1.31762898       4.01151997       17      -0.10670308      -0.00000000      -0.00000000
O        0.14214915       1.31762898      -0.00000000       18      -0.10670308      -0.00000000      -0.00000000
O        2.59324578       3.95288693       4.01151997       19       0.10670308       0.00000000      -0.00000000
20