20
Lattice="5.5758211571135305 1.8439056274269713e-58 -5.218131929419066e-43 -1.6643245532212092e-58 5.576187948497209 5.75788903598419e-17 4.761625968968774e-43 -1.0252364566874387e-16 7.853748175610566" Properties=species:S:1:pos:R:3:spacegroup_kinds:I:1:forces:R:3 spacegroup="P 1" unit_cell=conventional occupancy="_JSON {\"0\": {\"In\": 1}, \"1\": {\"In\": 1}, \"2\": {\"In\": 1}, \"3\": {\"In\": 1}, \"4\": {\"In\": 1}, \"5\": {\"In\": 1}, \"6\": {\"In\": 1}, \"7\": {\"In\": 1}, \"8\": {\"O\": 1}, \"9\": {\"O\": 1}, \"10\": {\"O\": 1}, \"11\": {\"O\": 1}, \"12\": {\"O\": 1}, \"13\": {\"O\": 1}, \"14\": {\"O\": 1}, \"15\": {\"O\": 1}, \"16\": {\"O\": 1}, \"17\": {\"O\": 1}, \"18\": {\"O\": 1}, \"19\": {\"O\": 1}}" n_minim_iter=7 energy=-22574.91540809957 stress="-0.0033099364557001077 -5.175053238262123e-12 1.8144181153502263e-12 -5.175053238262123e-12 -0.00332060694460683 -2.1061155598723564e-12 1.8144181153502263e-12 -2.1061155598723564e-12 -0.0033172489270512284" free_energy=-22574.91540809957 pbc="T T T"
In       1.38210385       2.93406663       0.91982590        0       0.00500547      -0.00196232      -0.00454313
In       1.40580672       0.14597265       3.00704819        1      -0.00500547      -0.00196232       0.00454313
In       1.40580672       2.64212132       4.84669998        2      -0.00500547       0.00196232      -0.00454313
In       1.38210385       5.43021530       6.93392228        3       0.00500547       0.00196232       0.00454313
In       4.19371730       2.64212132       6.93392228        4      -0.00500547       0.00196232       0.00454313
In       4.17001443       5.43021530       4.84669998        5       0.00500547       0.00196232      -0.00454313
In       4.17001443       2.93406663       3.00704819        6       0.00500547      -0.00196232       0.00454313
In       4.19371730       0.14597265       0.91982590        7      -0.00500547      -0.00196232      -0.00454313
O        2.17338884       3.37540410       6.69302588        8      -0.00176805       0.00097655       0.00037658
O        0.61452174       0.58731012       5.08759638        9       0.00176805       0.00097655      -0.00037658
O        0.61452174       2.20078385       2.76615180       10       0.00176805      -0.00097655       0.00037658
O        2.17338884       4.98887782       1.16072229       11      -0.00176805      -0.00097655      -0.00037658
O        3.40243232       2.20078385       1.16072229       12       0.00176805      -0.00097655      -0.00037658
O        4.96129941       4.98887782       2.76615180       13      -0.00176805      -0.00097655       0.00037658
O        4.96129941       3.37540410       5.08759638       14      -0.00176805       0.00097655      -0.00037658
O        3.40243232       0.58731012       6.69302588       15       0.00176805       0.00097655       0.00037658
O        5.36273053       4.18214096      -0.00000000       16       0.00132319       0.00000000       0.00000000
O        3.00100120       1.39404699       3.92687409       17      -0.00132319       0.00000000      -0.00000000
O        0.21309063       1.39404699      -0.00000000       18      -0.00132319       0.00000000       0.00000000
O        2.57481995       4.18214096       3.92687409       19       0.00132319      -0.00000000       0.00000000
