20
Lattice="5.540579919807782 1.787971706356721e-58 -3.455911805264596e-43 -1.7663157833043116e-58 5.600004722602541 6.546354513946066e-17 4.908932052787006e-43 -9.200061300722207e-17 7.87008809598082" Properties=species:S:1:pos:R:3:spacegroup_kinds:I:1:forces:R:3 spacegroup="P 1" unit_cell=conventional occupancy="_JSON {\"0\": {\"In\": 1}, \"1\": {\"In\": 1}, \"2\": {\"In\": 1}, \"3\": {\"In\": 1}, \"4\": {\"In\": 1}, \"5\": {\"In\": 1}, \"6\": {\"In\": 1}, \"7\": {\"In\": 1}, \"8\": {\"O\": 1}, \"9\": {\"O\": 1}, \"10\": {\"O\": 1}, \"11\": {\"O\": 1}, \"12\": {\"O\": 1}, \"13\": {\"O\": 1}, \"14\": {\"O\": 1}, \"15\": {\"O\": 1}, \"16\": {\"O\": 1}, \"17\": {\"O\": 1}, \"18\": {\"O\": 1}, \"19\": {\"O\": 1}}" n_minim_iter=1 energy=-22574.90486249595 stress="-0.012704178254106137 7.97404027178982e-12 8.694740184783256e-13 7.97404027178982e-12 -0.003657179348742409 3.758897534267517e-12 8.694740184783256e-13 3.758897534267517e-12 -0.00485341899879432" free_energy=-22574.90486249595 pbc="T T T"
In       1.37309077       2.94966099       0.92003251        0      -0.02746990      -0.00145427       0.01481322
In       1.39719919       0.14965863       3.01501154        1       0.02746990      -0.00145427      -0.01481322
In       1.39719919       2.65034374       4.85507656        2       0.02746990       0.00145427       0.01481322
In       1.37309077       5.45034610       6.95005559        3      -0.02746990       0.00145427      -0.01481322
In       4.16748915       2.65034374       6.95005559        4       0.02746990       0.00145427      -0.01481322
In       4.14338073       5.45034610       4.85507656        5      -0.02746990       0.00145427       0.01481322
In       4.14338073       2.94966099       3.01501154        6      -0.02746990      -0.00145427      -0.01481322
In       4.16748915       0.14965863       0.92003251        7       0.02746990      -0.00145427       0.01481322
O        2.16145991       3.39815225       6.70314530        8      -0.02162464      -0.02179238       0.03366340
O        0.60883005       0.59814989       5.10198685        9       0.02162464      -0.02179238      -0.03366340
O        0.60883005       2.20185247       2.76810125       10       0.02162464       0.02179238       0.03366340
O        2.16145991       5.00185483       1.16694280       11      -0.02162464       0.02179238      -0.03366340
O        3.37912001       2.20185247       1.16694280       12       0.02162464       0.02179238      -0.03366340
O        4.93174987       5.00185483       2.76810125       13      -0.02162464       0.02179238       0.03366340
O        4.93174987       3.39815225       5.10198685       14      -0.02162464      -0.02179238      -0.03366340
O        3.37912001       0.59814989       6.70314530       15       0.02162464      -0.02179238       0.03366340
O        5.31419365       4.20000354      -0.00000000       16       0.08098983      -0.00000000       0.00000000
O        2.99667623       1.40000118       3.93504405       17      -0.08098983       0.00000000       0.00000000
O        0.22638627       1.40000118      -0.00000000       18      -0.08098983       0.00000000      -0.00000000
O        2.54390369       4.20000354       3.93504405       19       0.08098983      -0.00000000      -0.00000000
20
Lattice="5.5682281619773555 1.8103467193908574e-58 -3.3205483947309423e-43 -1.7618503177965105e-58 5.583132492925455 4.68951384475955e-17 4.4718830734452425e-43 -1.1770320960728858e-16 7.854675614582398" Properties=species:S:1:pos:R:3:spacegroup_kinds:I:1:forces:R:3 spacegroup="P 1" unit_cell=conventional occupancy="_JSON {\"0\": {\"In\": 1}, \"1\": {\"In\": 1}, \"2\": {\"In\": 1}, \"3\": {\"In\": 1}, \"4\": {\"In\": 1}, \"5\": {\"In\": 1}, \"6\": {\"In\": 1}, \"7\": {\"In\": 1}, \"8\": {\"O\": 1}, \"9\": {\"O\": 1}, \"10\": {\"O\": 1}, \"11\": {\"O\": 1}, \"12\": {\"O\": 1}, \"13\": {\"O\": 1}, \"14\": {\"O\": 1}, \"15\": {\"O\": 1}, \"16\": {\"O\": 1}, \"17\": {\"O\": 1}, \"18\": {\"O\": 1}, \"19\": {\"O\": 1}}" n_minim_iter=2 energy=-22574.910229822784 stress="-0.005145275691965791 -8.776709510718506e-12 3.823510739729421e-12 -8.776709510718506e-12 -0.005425735225082219 -3.779983768927516e-12 3.823510739729421e-12 -3.779983768927516e-12 -0.0048939206363146645" free_energy=-22574.910229822784 pbc="T T T"
In       1.37984276       2.94076872       0.91828426        0       0.01510458      -0.01308321       0.01837570
In       1.40427132       0.14920247       3.00905355        1      -0.01510458      -0.01308321      -0.01837570
In       1.40427132       2.64236377       4.84562207        2      -0.01510458       0.01308321       0.01837570
In       1.37984276       5.43393002       6.93639136        3       0.01510458       0.01308321      -0.01837570
In       4.18838540       2.64236377       6.93639136        4      -0.01510458       0.01308321      -0.01837570
In       4.16395684       5.43393002       4.84562207        5       0.01510458       0.01308321       0.01837570
In       4.16395684       2.94076872       3.00905355        6       0.01510458      -0.01308321      -0.01837570
In       4.18838540       0.14920247       0.91828426        7      -0.01510458      -0.01308321       0.01837570
O        2.17216723       3.38783534       6.69013970        8      -0.00160754      -0.05118351       0.02461212
O        0.61194685       0.59626910       5.09187372        9       0.00160754      -0.05118351      -0.02461212
O        0.61194685       2.19529715       2.76280190       10       0.00160754       0.05118350       0.02461212
O        2.17216723       4.98686340       1.16453591       11      -0.00160754       0.05118350      -0.02461212
O        3.39606093       2.19529715       1.16453591       12       0.00160754       0.05118351      -0.02461212
O        4.95628131       4.98686340       2.76280190       13      -0.00160754       0.05118350       0.02461212
O        4.95628131       3.38783534       5.09187372       14      -0.00160754      -0.05118351      -0.02461212
O        3.39606093       0.59626910       6.69013970       15       0.00160754      -0.05118350       0.02461212
O        5.34100677       4.18734937      -0.00000000       16       0.09902920       0.00000000      -0.00000000
O        3.01133547       1.39578312       3.92733781       17      -0.09902920       0.00000000       0.00000000
O        0.22722139       1.39578312      -0.00000000       18      -0.09902920      -0.00000000       0.00000000
O        2.55689269       4.18734937       3.92733781       19       0.09902920      -0.00000000      -0.00000000
20
Lattice="5.57249021480645 1.8972146805804115e-58 -5.154484750503447e-43 -1.6713099945195036e-58 5.590745518779769 4.1277051214631924e-17 7.040098292920923e-43 -1.2564012930908535e-16 7.837980376940966" Properties=species:S:1:pos:R:3:spacegroup_kinds:I:1:forces:R:3 spacegroup="P 1" unit_cell=conventional occupancy="_JSON {\"0\": {\"In\": 1}, \"1\": {\"In\": 1}, \"2\": {\"In\": 1}, \"3\": {\"In\": 1}, \"4\": {\"In\": 1}, \"5\": {\"In\": 1}, \"6\": {\"In\": 1}, \"7\": {\"In\": 1}, \"8\": {\"O\": 1}, \"9\": {\"O\": 1}, \"10\": {\"O\": 1}, \"11\": {\"O\": 1}, \"12\": {\"O\": 1}, \"13\": {\"O\": 1}, \"14\": {\"O\": 1}, \"15\": {\"O\": 1}, \"16\": {\"O\": 1}, \"17\": {\"O\": 1}, \"18\": {\"O\": 1}, \"19\": {\"O\": 1}}" n_minim_iter=3 energy=-22574.91136033275 stress="-0.004422959586758831 1.0059275206305876e-12 -1.6178081130511613e-12 1.0059275206305876e-12 -0.0032733941970663027 -1.200750535971874e-12 -1.6178081130511613e-12 -1.200750535971874e-12 -0.006742793448551607" free_energy=-22574.91136033275 pbc="T T T"
In       1.38131334       2.94441007       0.91685713        0       0.01912204       0.00561153       0.00550344
In       1.40493176       0.14903731       3.00213306        1      -0.01912204       0.00561153      -0.00550344
In       1.40493176       2.64633545       4.83584732        2      -0.01912204      -0.00561153       0.00550344
In       1.38131334       5.44170820       6.92112325        3       0.01912204      -0.00561153      -0.00550344
In       4.19117687       2.64633545       6.92112325        4      -0.01912204      -0.00561153      -0.00550344
In       4.16755845       5.44170820       4.83584732        5       0.01912204      -0.00561153       0.00550344
In       4.16755845       2.94441007       3.00213306        6       0.01912204       0.00561153      -0.00550344
In       4.19117687       0.14903731       0.91685713        7      -0.01912204       0.00561153       0.00550344
O        2.17377082       3.39100314       6.67663081        8       0.00197803      -0.03637498       0.03245371
O        0.61247429       0.59563038       5.08033976        9      -0.00197803      -0.03637498      -0.03245371
O        0.61247429       2.19974238       2.75764062       10      -0.00197803       0.03637498       0.03245371
O        2.17377082       4.99511514       1.16134957       11       0.00197803       0.03637498      -0.03245371
O        3.39871940       2.19974238       1.16134957       12      -0.00197803       0.03637498      -0.03245371
O        4.96001593       4.99511514       2.75764062       13       0.00197803       0.03637498       0.03245371
O        4.96001593       3.39100314       5.08033976       14       0.00197803      -0.03637498      -0.03245371
O        3.39871940       0.59563038       6.67663081       15      -0.00197803      -0.03637498       0.03245371
O        5.34797076       4.19305914      -0.00000000       16       0.07877028      -0.00000000       0.00000000
O        3.01076456       1.39768638       3.91899019       17      -0.07877028      -0.00000000       0.00000000
O        0.22451945       1.39768638      -0.00000000       18      -0.07877028       0.00000000       0.00000000
O        2.56172565       4.19305914       3.91899019       19       0.07877028       0.00000000      -0.00000000
20
Lattice="5.577171734521651 1.8985115433224224e-58 -5.162932481857037e-43 -1.6679488835348674e-58 5.580197899117816 4.132035881845092e-17 7.021441355858114e-43 -1.2540309396312309e-16 7.846203933103946" Properties=species:S:1:pos:R:3:spacegroup_kinds:I:1:forces:R:3 spacegroup="P 1" unit_cell=conventional occupancy="_JSON {\"0\": {\"In\": 1}, \"1\": {\"In\": 1}, \"2\": {\"In\": 1}, \"3\": {\"In\": 1}, \"4\": {\"In\": 1}, \"5\": {\"In\": 1}, \"6\": {\"In\": 1}, \"7\": {\"In\": 1}, \"8\": {\"O\": 1}, \"9\": {\"O\": 1}, \"10\": {\"O\": 1}, \"11\": {\"O\": 1}, \"12\": {\"O\": 1}, \"13\": {\"O\": 1}, \"14\": {\"O\": 1}, \"15\": {\"O\": 1}, \"16\": {\"O\": 1}, \"17\": {\"O\": 1}, \"18\": {\"O\": 1}, \"19\": {\"O\": 1}}" n_minim_iter=4 energy=-22574.914846058848 stress="-0.003399151248588757 1.6265639423501959e-12 -2.8082371859466903e-12 1.6265639423501959e-12 -0.0035336207005592585 -8.036329666726258e-13 -2.8082371859466903e-12 -8.036329666726258e-13 -0.004102225996277982" free_energy=-22574.914846058848 pbc="T T T"
In       1.38383622       2.93796733       0.91927966        0      -0.01453289      -0.01287005      -0.00538022
In       1.40474965       0.14786838       3.00382231        1       0.01453289      -0.01287005       0.00538022
In       1.40474965       2.64223057       4.84238162        2       0.01453289       0.01287005      -0.00538022
In       1.38383622       5.43232952       6.92692427        3      -0.01453289       0.01287005       0.00538022
In       4.19333552       2.64223057       6.92692427        4       0.01453289       0.01287005       0.00538022
In       4.17242208       5.43232952       4.84238162        5      -0.01453289       0.01287005      -0.00538022
In       4.17242208       2.93796733       3.00382231        6      -0.01453289      -0.01287005       0.00538022
In       4.19333552       0.14786838       0.91927966        7       0.01453289      -0.01287005      -0.00538022
O        2.17546730       3.38027797       6.68597082        8      -0.01263426      -0.01615695       0.00288689
O        0.61311857       0.59017902       5.08333508        9       0.01263426      -0.01615695      -0.00288689
O        0.61311857       2.19991993       2.76286885       10       0.01263426       0.01615695       0.00288689
O        2.17546730       4.99001887       1.16023311       11      -0.01263426       0.01615695      -0.00288689
O        3.40170444       2.19991993       1.16023311       12       0.01263426       0.01615695      -0.00288689
O        4.96405317       4.99001887       2.76286885       13      -0.01263426       0.01615695       0.00288689
O        4.96405317       3.38027797       5.08333508       14      -0.01263426      -0.01615695      -0.00288689
O        3.40170444       0.59017902       6.68597082       15       0.01263426      -0.01615695       0.00288689
O        5.36117713       4.18514842      -0.00000000       16       0.01189842       0.00000000       0.00000000
O        3.00458048       1.39504947       3.92310197       17      -0.01189842       0.00000000      -0.00000000
O        0.21599461       1.39504947      -0.00000000       18      -0.01189842       0.00000000      -0.00000000
O        2.57259126       4.18514842       3.92310197       19       0.01189842      -0.00000000       0.00000000
20
Lattice="5.576778966385238 1.898746474921206e-58 -3.3390679677365137e-43 -1.6669243347418975e-58 5.578315921115511 4.134986753316892e-17 7.024739536236883e-43 -1.253430124860589e-16 7.849403825627378" Properties=species:S:1:pos:R:3:spacegroup_kinds:I:1:forces:R:3 spacegroup="P 1" unit_cell=conventional occupancy="_JSON {\"0\": {\"In\": 1}, \"1\": {\"In\": 1}, \"2\": {\"In\": 1}, \"3\": {\"In\": 1}, \"4\": {\"In\": 1}, \"5\": {\"In\": 1}, \"6\": {\"In\": 1}, \"7\": {\"In\": 1}, \"8\": {\"O\": 1}, \"9\": {\"O\": 1}, \"10\": {\"O\": 1}, \"11\": {\"O\": 1}, \"12\": {\"O\": 1}, \"13\": {\"O\": 1}, \"14\": {\"O\": 1}, \"15\": {\"O\": 1}, \"16\": {\"O\": 1}, \"17\": {\"O\": 1}, \"18\": {\"O\": 1}, \"19\": {\"O\": 1}}" n_minim_iter=5 energy=-22574.915099298876 stress="-0.0034665098466106488 -4.700163527342508e-12 1.6861220125991242e-12 -4.700163527342508e-12 -0.0034587523247943492 -6.811244803024166e-12 1.6861220125991242e-12 -6.811244803024166e-12 -0.003512611121649956" free_energy=-22574.915099298876 pbc="T T T"
In       1.38372561       2.93653709       0.91988575        0      -0.01840100      -0.01379687      -0.00768147
In       1.40466387       0.14737913       3.00481616        1       0.01840100      -0.01379687       0.00768147
In       1.40466387       2.64177883       4.84458767        2       0.01840100       0.01379687      -0.00768147
In       1.38372561       5.43093679       6.92951807        3      -0.01840100       0.01379687       0.00768147
In       4.19305336       2.64177883       6.92951807        4       0.01840100       0.01379687       0.00768146
In       4.17211509       5.43093679       4.84458767        5      -0.01840100       0.01379687      -0.00768147
In       4.17211509       2.93653709       3.00481616        6      -0.01840100      -0.01379687       0.00768147
In       4.19305336       0.14737913       0.91988575        7       0.01840100      -0.01379687      -0.00768147
O        2.17504765       3.37797129       6.68920085        8      -0.01401704      -0.00882774      -0.00196635
O        0.61334184       0.58881333       5.08490489        9       0.01401704      -0.00882774       0.00196635
O        0.61334184       2.20034463       2.76449893       10       0.01401704       0.00882774      -0.00196635
O        2.17504765       4.98950259       1.16020298       11      -0.01401704       0.00882774       0.00196635
O        3.40173132       2.20034463       1.16020298       12       0.01401704       0.00882774       0.00196635
O        4.96343713       4.98950259       2.76449893       13      -0.01401704       0.00882774      -0.00196635
O        4.96343713       3.37797129       5.08490489       14      -0.01401704      -0.00882774       0.00196635
O        3.40173132       0.58881333       6.68920085       15       0.01401704      -0.00882774      -0.00196635
O        5.36279728       4.18373694      -0.00000000       16      -0.00238915      -0.00000000       0.00000000
O        3.00237117       1.39457898       3.92470191       17       0.00238915       0.00000000       0.00000000
O        0.21398169       1.39457898      -0.00000000       18       0.00238915       0.00000000      -0.00000000
O        2.57440780       4.18373694       3.92470191       19      -0.00238915       0.00000000      -0.00000000
20
Lattice="5.576033843920686 1.9068854472569865e-58 -5.159971391107472e-43 -1.6684477330967326e-58 5.575692819857807 5.594817653619456e-17 4.440112949492736e-43 -1.0481029340341243e-16 7.85414600614606" Properties=species:S:1:pos:R:3:spacegroup_kinds:I:1:forces:R:3 spacegroup="P 1" unit_cell=conventional occupancy="_JSON {\"0\": {\"In\": 1}, \"1\": {\"In\": 1}, \"2\": {\"In\": 1}, \"3\": {\"In\": 1}, \"4\": {\"In\": 1}, \"5\": {\"In\": 1}, \"6\": {\"In\": 1}, \"7\": {\"In\": 1}, \"8\": {\"O\": 1}, \"9\": {\"O\": 1}, \"10\": {\"O\": 1}, \"11\": {\"O\": 1}, \"12\": {\"O\": 1}, \"13\": {\"O\": 1}, \"14\": {\"O\": 1}, \"15\": {\"O\": 1}, \"16\": {\"O\": 1}, \"17\": {\"O\": 1}, \"18\": {\"O\": 1}, \"19\": {\"O\": 1}}" n_minim_iter=6 energy=-22574.915303404003 stress="-0.0034199300120206673 1.9085281702466994e-12 -2.561832064969263e-12 1.9085281702466994e-12 -0.0033382288783489087 -1.43436226455142e-14 -2.561832064969263e-12 -1.43436226455142e-14 -0.0029547572242077246" free_energy=-22574.915303404003 pbc="T T T"
In       1.38279786       2.93415535       0.92037923        0      -0.00924178      -0.00883154      -0.00829671
In       1.40521907       0.14630894       3.00669377        1       0.00924178      -0.00883154       0.00829671
In       1.40521907       2.64153747       4.84745224        2       0.00924178       0.00883154      -0.00829671
In       1.38279786       5.42938388       6.93376677        3      -0.00924178       0.00883154       0.00829671
In       4.19323599       2.64153747       6.93376677        4       0.00924178       0.00883154       0.00829671
In       4.17081478       5.42938388       4.84745224        5      -0.00924178       0.00883154      -0.00829671
In       4.17081478       2.93415535       3.00669377        6      -0.00924178      -0.00883154       0.00829671
In       4.19323599       0.14630894       0.92037923        7       0.00924178      -0.00883154      -0.00829671
O        2.17391896       3.37482194       6.69368998        8      -0.00882845       0.00167917      -0.00414904
O        0.61409796       0.58697553       5.08752903        9       0.00882845       0.00167917       0.00414904
O        0.61409796       2.20087088       2.76661697       10       0.00882845      -0.00167917      -0.00414904
O        2.17391896       4.98871729       1.16045603       11      -0.00882845      -0.00167917       0.00414904
O        3.40211488       2.20087088       1.16045603       12       0.00882845      -0.00167917       0.00414904
O        4.96193589       4.98871729       2.76661697       13      -0.00882845      -0.00167917      -0.00414904
O        4.96193589       3.37482194       5.08752903       14      -0.00882845       0.00167917       0.00414904
O        3.40211488       0.58697553       6.69368998       15       0.00882845       0.00167917      -0.00414904
O        5.36407013       4.18176961      -0.00000000       16      -0.01179518       0.00000000       0.00000000
O        2.99998063       1.39392320       3.92707300       17       0.01179518       0.00000000      -0.00000000
O        0.21196371       1.39392320      -0.00000000       18       0.01179518      -0.00000000       0.00000000
O        2.57605321       4.18176961       3.92707300       19      -0.01179518      -0.00000000      -0.00000000
20
Lattice="5.5758211571135305 1.8439056274269713e-58 -5.218131929419066e-43 -1.6643245532212092e-58 5.576187948497209 5.75788903598419e-17 4.761625968968774e-43 -1.0252364566874387e-16 7.853748175610566" Properties=species:S:1:pos:R:3:spacegroup_kinds:I:1:forces:R:3 spacegroup="P 1" unit_cell=conventional occupancy="_JSON {\"0\": {\"In\": 1}, \"1\": {\"In\": 1}, \"2\": {\"In\": 1}, \"3\": {\"In\": 1}, \"4\": {\"In\": 1}, \"5\": {\"In\": 1}, \"6\": {\"In\": 1}, \"7\": {\"In\": 1}, \"8\": {\"O\": 1}, \"9\": {\"O\": 1}, \"10\": {\"O\": 1}, \"11\": {\"O\": 1}, \"12\": {\"O\": 1}, \"13\": {\"O\": 1}, \"14\": {\"O\": 1}, \"15\": {\"O\": 1}, \"16\": {\"O\": 1}, \"17\": {\"O\": 1}, \"18\": {\"O\": 1}, \"19\": {\"O\": 1}}" n_minim_iter=7 energy=-22574.91540809957 stress="-0.0033099364557001077 -5.175053238262123e-12 1.8144181153502263e-12 -5.175053238262123e-12 -0.00332060694460683 -2.1061155598723564e-12 1.8144181153502263e-12 -2.1061155598723564e-12 -0.0033172489270512284" free_energy=-22574.91540809957 pbc="T T T"
In       1.38210385       2.93406663       0.91982590        0       0.00500547      -0.00196232      -0.00454313
In       1.40580672       0.14597265       3.00704819        1      -0.00500547      -0.00196232       0.00454313
In       1.40580672       2.64212132       4.84669998        2      -0.00500547       0.00196232      -0.00454313
In       1.38210385       5.43021530       6.93392228        3       0.00500547       0.00196232       0.00454313
In       4.19371730       2.64212132       6.93392228        4      -0.00500547       0.00196232       0.00454313
In       4.17001443       5.43021530       4.84669998        5       0.00500547       0.00196232      -0.00454313
In       4.17001443       2.93406663       3.00704819        6       0.00500547      -0.00196232       0.00454313
In       4.19371730       0.14597265       0.91982590        7      -0.00500547      -0.00196232      -0.00454313
O        2.17338884       3.37540410       6.69302588        8      -0.00176805       0.00097655       0.00037658
O        0.61452174       0.58731012       5.08759638        9       0.00176805       0.00097655      -0.00037658
O        0.61452174       2.20078385       2.76615180       10       0.00176805      -0.00097655       0.00037658
O        2.17338884       4.98887782       1.16072229       11      -0.00176805      -0.00097655      -0.00037658
O        3.40243232       2.20078385       1.16072229       12       0.00176805      -0.00097655      -0.00037658
O        4.96129941       4.98887782       2.76615180       13      -0.00176805      -0.00097655       0.00037658
O        4.96129941       3.37540410       5.08759638       14      -0.00176805       0.00097655      -0.00037658
O        3.40243232       0.58731012       6.69302588       15       0.00176805       0.00097655       0.00037658
O        5.36273053       4.18214096      -0.00000000       16       0.00132319       0.00000000       0.00000000
O        3.00100120       1.39404699       3.92687409       17      -0.00132319       0.00000000      -0.00000000
O        0.21309063       1.39404699      -0.00000000       18      -0.00132319       0.00000000       0.00000000
O        2.57481995       4.18214096       3.92687409       19       0.00132319      -0.00000000       0.00000000
