20
Lattice="5.58876129402639 1.864746309862931e-58 -8.723494239617544e-43 -2.726048779777882e-59 5.648702860174942 -6.456982860526654e-17 4.951620561151172e-43 -9.280065849484245e-17 7.938527079837047" Properties=species:S:1:pos:R:3:spacegroup_kinds:I:1:forces:R:3 spacegroup="P 1" unit_cell=conventional occupancy="_JSON {\"0\": {\"In\": 1}, \"1\": {\"In\": 1}, \"2\": {\"In\": 1}, \"3\": {\"In\": 1}, \"4\": {\"In\": 1}, \"5\": {\"In\": 1}, \"6\": {\"In\": 1}, \"7\": {\"In\": 1}, \"8\": {\"O\": 1}, \"9\": {\"O\": 1}, \"10\": {\"O\": 1}, \"11\": {\"O\": 1}, \"12\": {\"O\": 1}, \"13\": {\"O\": 1}, \"14\": {\"O\": 1}, \"15\": {\"O\": 1}, \"16\": {\"O\": 1}, \"17\": {\"O\": 1}, \"18\": {\"O\": 1}, \"19\": {\"O\": 1}}" n_minim_iter=13 energy=-22574.9415282024 stress="-0.002459194923709639 -1.1497879370017801e-12 7.653004884794656e-12 -1.1497879370017801e-12 -0.0025566048043252918 8.912214517800097e-13 7.653004884794656e-12 8.912214517800097e-13 -0.002639587532839355" free_energy=-22574.9415282024 pbc="T T T"
In       1.38503129       2.97531150       0.92803319        0       0.00189524      -0.00101969       0.00157893
In       1.40934936       0.15096007       3.04123035        1      -0.00189524      -0.00101969      -0.00157893
In       1.40934936       2.67339136       4.89729673        2      -0.00189524       0.00101969       0.00157893
In       1.38503129       5.49774279       7.01049389        3       0.00189524       0.00101969      -0.00157893
In       4.20373001       2.67339136       7.01049389        4      -0.00189524       0.00101969      -0.00157893
In       4.17941193       5.49774279       4.89729673        5       0.00189524       0.00101969       0.00157893
In       4.17941193       2.97531150       3.04123035        6       0.00189524      -0.00101969      -0.00157893
In       4.20373001       0.15096007       0.92803319        7      -0.00189524      -0.00101969       0.00157893
O        2.18025615       3.42770289       6.76143644        8       0.00230150      -0.00179888       0.00093444
O        0.61412449       0.60335146       5.14635418        9      -0.00230150      -0.00179888      -0.00093444
O        0.61412449       2.22099997       2.79217290       10      -0.00230150       0.00179888       0.00093444
O        2.18025615       5.04535140       1.17709064       11       0.00230150       0.00179888      -0.00093444
O        3.40850514       2.22099997       1.17709064       12      -0.00230150       0.00179888      -0.00093444
O        4.97463680       5.04535140       2.79217290       13       0.00230150       0.00179888       0.00093444
O        4.97463680       3.42770289       5.14635418       14       0.00230150      -0.00179888      -0.00093444
O        3.40850514       0.60335146       6.76143644       15      -0.00230150      -0.00179888       0.00093444
O        5.36040635       4.23652715      -0.00000000       16       0.00576179       0.00000000      -0.00000000
O        3.02273559       1.41217572       3.96926354       17      -0.00576179      -0.00000000      -0.00000000
O        0.22835494       1.41217572      -0.00000000       18      -0.00576179       0.00000000      -0.00000000
O        2.56602570       4.23652715       3.96926354       19       0.00576179       0.00000000       0.00000000
