20
Lattice="5.499244405128463 7.724177885512254e-58 9.975305286660083e-43 -3.340805977586914e-58 5.154379929197279 -2.399493862808344e-15 -3.895193944243863e-43 3.608529542430217e-15 7.934657947181501" Properties=species:S:1:pos:R:3:spacegroup_kinds:I:1:forces:R:3 spacegroup="P 1" unit_cell=conventional occupancy="_JSON {\"0\": {\"In\": 1}, \"1\": {\"In\": 1}, \"2\": {\"In\": 1}, \"3\": {\"In\": 1}, \"4\": {\"In\": 1}, \"5\": {\"In\": 1}, \"6\": {\"In\": 1}, \"7\": {\"In\": 1}, \"8\": {\"O\": 1}, \"9\": {\"O\": 1}, \"10\": {\"O\": 1}, \"11\": {\"O\": 1}, \"12\": {\"O\": 1}, \"13\": {\"O\": 1}, \"14\": {\"O\": 1}, \"15\": {\"O\": 1}, \"16\": {\"O\": 1}, \"17\": {\"O\": 1}, \"18\": {\"O\": 1}, \"19\": {\"O\": 1}}" n_minim_iter=9 energy=-22575.61164453086 stress="0.06145860783084096 4.540952325186709e-12 4.116814783276326e-12 4.540952325186709e-12 0.061318626217000634 -5.1593702526145004e-12 4.116814783276326e-12 -5.1593702526145004e-12 0.06148817586315386" free_energy=-22575.61164453086 pbc="T T T"
In       1.40968584       2.57342990       0.90506671        0      -0.00187611      -0.00340896      -0.00118694
In       1.33993636      -0.00376007       3.06226227        1       0.00187612      -0.00340896       0.00118694
In       1.33993636       2.58095003       4.87239568        2       0.00187612       0.00340896      -0.00118694
In       1.40968584       5.15814000       7.02959124        3      -0.00187612       0.00340896       0.00118694
In       4.08955856       2.58095003       7.02959124        4       0.00187612       0.00340896       0.00118694
In       4.15930804       5.15814000       4.87239568        5      -0.00187612       0.00340896      -0.00118694
In       4.15930804       2.57342990       3.06226227        6      -0.00187612      -0.00340896       0.00118694
In       4.08955856      -0.00376007       0.90506671        7       0.00187612      -0.00340896      -0.00118694
O        2.04837221       3.04639571       6.78452446        8       0.00142576      -0.00436525       0.00088052
O        0.70124999       0.46920574       5.11746246        9      -0.00142576      -0.00436525      -0.00088052
O        0.70124999       2.10798422       2.81719549       10      -0.00142576       0.00436525       0.00088052
O        2.04837221       4.68517419       1.15013348       11       0.00142576       0.00436525      -0.00088052
O        3.45087220       2.10798422       1.15013348       12      -0.00142576       0.00436525      -0.00088052
O        4.79799441       4.68517419       2.81719549       13       0.00142576       0.00436525       0.00088052
O        4.79799441       3.04639571       5.11746246       14       0.00142576      -0.00436525      -0.00088052
O        3.45087220       0.46920574       6.78452446       15      -0.00142576      -0.00436525       0.00088052
O        5.41104142       3.86578495      -0.00000000       16      -0.00093792       0.00000000       0.00000000
O        2.83782518       1.28859498       3.96732897       17       0.00093792       0.00000000      -0.00000000
O        0.08820298       1.28859498      -0.00000000       18       0.00093792       0.00000000      -0.00000000
O        2.66141922       3.86578495       3.96732897       19      -0.00093792       0.00000000       0.00000000
