20
Lattice="5.677748015380645 1.3171643723420508e-60 7.266178983486067e-43 -3.664809766787529e-60 5.7717663095279494 1.756771494371374e-17 -2.434481284179283e-42 1.9789329069440874e-17 8.235767003051997" Properties=species:S:1:pos:R:3:spacegroup_kinds:I:1:forces:R:3 spacegroup="P 1" unit_cell=conventional occupancy="_JSON {\"0\": {\"In\": 1}, \"1\": {\"In\": 1}, \"2\": {\"In\": 1}, \"3\": {\"In\": 1}, \"4\": {\"In\": 1}, \"5\": {\"In\": 1}, \"6\": {\"In\": 1}, \"7\": {\"In\": 1}, \"8\": {\"O\": 1}, \"9\": {\"O\": 1}, \"10\": {\"O\": 1}, \"11\": {\"O\": 1}, \"12\": {\"O\": 1}, \"13\": {\"O\": 1}, \"14\": {\"O\": 1}, \"15\": {\"O\": 1}, \"16\": {\"O\": 1}, \"17\": {\"O\": 1}, \"18\": {\"O\": 1}, \"19\": {\"O\": 1}}" n_minim_iter=6 energy=-22574.768129479286 stress="0.025793525347910014 -1.0419114671107172e-11 -5.992097692575108e-12 -1.0419114671107172e-11 0.026181473867893906 -7.482329574523437e-13 -5.992097692575108e-12 -7.482329574523437e-13 0.025537171393076832" free_energy=-22574.768129479286 pbc="T T T"
In       1.40527443       3.04978044       0.94039201        0      -0.00173641       0.00633276       0.00016329
In       1.43359958       0.16389729       3.17749149        1       0.00173641       0.00633276      -0.00016329
In       1.43359958       2.72198587       5.05827551        2       0.00173641      -0.00633276       0.00016329
In       1.40527443       5.60786902       7.29537500        3      -0.00173640      -0.00633276      -0.00016329
In       4.27247358       2.72198587       7.29537500        4       0.00173641      -0.00633276      -0.00016329
In       4.24414844       5.60786902       5.05827551        5      -0.00173640      -0.00633276       0.00016329
In       4.24414844       3.04978044       3.17749149        6      -0.00173641       0.00633276      -0.00016329
In       4.27247358       0.16389729       0.94039201        7       0.00173640       0.00633276       0.00016329
O        2.22068892       3.48235361       6.98889913        8      -0.00082275      -0.00159342       0.00502788
O        0.61818509       0.59647046       5.36475137        9       0.00082275      -0.00159342      -0.00502788
O        0.61818509       2.28941270       2.87101563       10       0.00082275       0.00159342       0.00502788
O        2.22068892       5.17529585       1.24686787       11      -0.00082275       0.00159342      -0.00502788
O        3.45705910       2.28941270       1.24686787       12       0.00082275       0.00159342      -0.00502788
O        5.05956293       5.17529585       2.87101563       13      -0.00082275       0.00159342       0.00502788
O        5.05956293       3.48235361       5.36475137       14      -0.00082275      -0.00159342      -0.00502788
O        3.45705910       0.59647046       6.98889913       15       0.00082275      -0.00159342       0.00502788
O        5.43907539       4.32882473      -0.00000000       16       0.00254424       0.00000000      -0.00000000
O        3.07754663       1.44294158       4.11788350       17      -0.00254424      -0.00000000      -0.00000000
O        0.23867262       1.44294158      -0.00000000       18      -0.00254424       0.00000000       0.00000000
O        2.60020138       4.32882473       4.11788350       19       0.00254424      -0.00000000      -0.00000000
