20
Lattice="4.67881121551341 -1.146399286740264e-56 -1.1476640891487705e-41 1.4923434565776607e-57 4.979110411223272 -5.311100375856831e-15 -1.667779710127041e-43 4.3579991098091694e-15 8.275106460777332" Properties=species:S:1:pos:R:3:spacegroup_kinds:I:1:forces:R:3 spacegroup="P 1" unit_cell=conventional occupancy="_JSON {\"0\": {\"In\": 1}, \"1\": {\"In\": 1}, \"2\": {\"In\": 1}, \"3\": {\"In\": 1}, \"4\": {\"In\": 1}, \"5\": {\"In\": 1}, \"6\": {\"In\": 1}, \"7\": {\"In\": 1}, \"8\": {\"O\": 1}, \"9\": {\"O\": 1}, \"10\": {\"O\": 1}, \"11\": {\"O\": 1}, \"12\": {\"O\": 1}, \"13\": {\"O\": 1}, \"14\": {\"O\": 1}, \"15\": {\"O\": 1}, \"16\": {\"O\": 1}, \"17\": {\"O\": 1}, \"18\": {\"O\": 1}, \"19\": {\"O\": 1}}" n_minim_iter=32 energy=-22581.190271594067 stress="0.28152262427202984 1.4113306407727711e-11 -9.870969479371e-12 1.4113306407727711e-11 0.2817722574209464 -4.588021748429134e-12 -9.870969479371e-12 -4.588021748429134e-12 0.2814987813440071" free_energy=-22581.190271594067 pbc="T T T"
In       1.27376162       2.69986024       0.86744207        0       0.00124071       0.00306204       0.00097712
In       1.06564399       0.21030503       3.27011116        1      -0.00124071       0.00306204      -0.00097712
In       1.06564399       2.27925017       5.00499530        2      -0.00124071      -0.00306204       0.00097712
In       1.27376162       4.76880538       7.40766439        3       0.00124071      -0.00306204      -0.00097712
In       3.40504959       2.27925017       7.40766439        4      -0.00124071      -0.00306204      -0.00097712
In       3.61316723       4.76880538       5.00499530        5       0.00124071      -0.00306204       0.00097712
In       3.61316723       2.69986024       3.27011116        6       0.00124071       0.00306204      -0.00097712
In       3.40504959       0.21030503       0.86744207        7      -0.00124071       0.00306204       0.00097712
O        1.97502901       3.24148494       6.44850463        8       0.00462909      -0.00070270      -0.00084738
O        0.36437660       0.75192973       5.96415506        9      -0.00462909      -0.00070270       0.00084738
O        0.36437660       1.73762547       2.31095140       10      -0.00462909       0.00070270      -0.00084738
O        1.97502901       4.22718068       1.82660183       11       0.00462909       0.00070270       0.00084738
O        2.70378221       1.73762547       1.82660183       12      -0.00462909       0.00070270       0.00084738
O        4.31443462       4.22718068       2.31095140       13       0.00462909       0.00070270      -0.00084738
O        4.31443462       3.24148494       5.96415506       14       0.00462909      -0.00070270       0.00084738
O        2.70378221       0.75192973       6.44850463       15      -0.00462909      -0.00070270      -0.00084738
O        4.39054335       3.73433281      -0.00000000       16       0.00647501       0.00000000      -0.00000000
O        2.62767347       1.24477760       4.13755323       17      -0.00647501      -0.00000000      -0.00000000
O        0.28826786       1.24477760      -0.00000000       18      -0.00647501      -0.00000000      -0.00000000
O        2.05113774       3.73433281       4.13755323       19       0.00647501       0.00000000      -0.00000000
