20
Lattice="5.887135782612895 -2.616738818888764e-59 3.1844819443139533e-43 2.420264537922377e-59 6.056993951287722 5.0279614126123594e-17 -4.581535095385566e-43 -7.030902501115099e-17 8.4698609290284" Properties=species:S:1:pos:R:3:spacegroup_kinds:I:1:forces:R:3 spacegroup="P 1" unit_cell=conventional occupancy="_JSON {\"0\": {\"In\": 1}, \"1\": {\"In\": 1}, \"2\": {\"In\": 1}, \"3\": {\"In\": 1}, \"4\": {\"In\": 1}, \"5\": {\"In\": 1}, \"6\": {\"In\": 1}, \"7\": {\"In\": 1}, \"8\": {\"O\": 1}, \"9\": {\"O\": 1}, \"10\": {\"O\": 1}, \"11\": {\"O\": 1}, \"12\": {\"O\": 1}, \"13\": {\"O\": 1}, \"14\": {\"O\": 1}, \"15\": {\"O\": 1}, \"16\": {\"O\": 1}, \"17\": {\"O\": 1}, \"18\": {\"O\": 1}, \"19\": {\"O\": 1}}" n_minim_iter=1 energy=-22573.62993626413 stress="0.05962507361357931 1.0182717814021831e-12 -5.038515732623846e-13 1.0182717814021831e-12 0.06245600129807214 -2.360440808088723e-12 -5.038515732623846e-13 -2.360440808088723e-12 0.055889601384097404" free_energy=-22573.62993626413 pbc="T T T"
In       1.44452736       3.28311799       0.99514385        0       0.01275481       0.00380178      -0.05887738
In       1.49904053       0.25462102       3.23978661        1      -0.01275481       0.00380178       0.05887738
In       1.49904053       2.77387596       5.23007432        2      -0.01275481      -0.00380178      -0.05887738
In       1.44452736       5.80237293       7.47471708        3       0.01275481      -0.00380178       0.05887738
In       4.44260842       2.77387596       7.47471708        4      -0.01275481      -0.00380178       0.05887738
In       4.38809525       5.80237293       5.23007432        5       0.01275481      -0.00380178      -0.05887738
In       4.38809525       3.28311799       3.23978661        6       0.01275481       0.00380178       0.05887738
In       4.44260842       0.25462102       0.99514385        7      -0.01275481       0.00380178      -0.05887738
O        2.30790119       3.58595946       7.19557279        8      -0.04534280      -0.01057181      -0.05531384
O        0.63566670       0.55746249       5.50921861        9       0.04534280      -0.01057181       0.05531384
O        0.63566670       2.47103449       2.96064232       10       0.04534280       0.01057181      -0.05531384
O        2.30790119       5.49953146       1.27428814       11      -0.04534280       0.01057181       0.05531384
O        3.57923459       2.47103449       1.27428814       12       0.04534280       0.01057181       0.05531384
O        5.25146908       5.49953146       2.96064232       13      -0.04534280       0.01057181      -0.05531384
O        5.25146908       3.58595946       5.50921861       14      -0.04534280      -0.01057181       0.05531384
O        3.57923459       0.55746249       7.19557279       15       0.04534280      -0.01057181      -0.05531384
O        5.60525626       4.54274546       0.00000000       16       0.05221799       0.00000000      -0.00000000
O        3.22544741       1.51424849       4.23493046       17      -0.05221799       0.00000000      -0.00000000
O        0.28187952       1.51424849       0.00000000       18      -0.05221799       0.00000000       0.00000000
O        2.66168837       4.54274546       4.23493046       19       0.05221799       0.00000000       0.00000000
20
Lattice="5.884542648591767 -2.7132771842560037e-59 3.287230042952354e-43 2.3929485713749094e-59 6.029333797080865 3.2653955160515045e-17 -4.6832548348306315e-43 -9.546149022963878e-17 8.512466764156924" Properties=species:S:1:pos:R:3:spacegroup_kinds:I:1:forces:R:3 spacegroup="P 1" unit_cell=conventional occupancy="_JSON {\"0\": {\"In\": 1}, \"1\": {\"In\": 1}, \"2\": {\"In\": 1}, \"3\": {\"In\": 1}, \"4\": {\"In\": 1}, \"5\": {\"In\": 1}, \"6\": {\"In\": 1}, \"7\": {\"In\": 1}, \"8\": {\"O\": 1}, \"9\": {\"O\": 1}, \"10\": {\"O\": 1}, \"11\": {\"O\": 1}, \"12\": {\"O\": 1}, \"13\": {\"O\": 1}, \"14\": {\"O\": 1}, \"15\": {\"O\": 1}, \"16\": {\"O\": 1}, \"17\": {\"O\": 1}, \"18\": {\"O\": 1}, \"19\": {\"O\": 1}}" n_minim_iter=2 energy=-22573.636328397635 stress="0.05754725143232363 5.02484589772042e-12 5.0015561332599725e-12 5.02484589772042e-12 0.05747377204978303 4.742004513868876e-13 5.0015561332599725e-12 4.742004513868876e-13 0.055829458499039815" free_energy=-22573.636328397635 pbc="T T T"
In       1.44395276       3.26814346       0.99986343        0       0.03759433      -0.03269438      -0.07064269
In       1.49831856       0.25347656       3.25636995        1      -0.03759433      -0.03269438       0.07064269
In       1.49831856       2.76119034       5.25609681        2      -0.03759433       0.03269438      -0.07064269
In       1.44395276       5.77585723       7.51260334        3       0.03759433       0.03269438       0.07064269
In       4.44058988       2.76119034       7.51260334        4      -0.03759433       0.03269438       0.07064269
In       4.38622409       5.77585723       5.25609681        5       0.03759433       0.03269438      -0.07064269
In       4.38622409       3.26814346       3.25636995        6       0.03759433      -0.03269438       0.07064269
In       4.44058988       0.25347656       0.99986343        7      -0.03759433      -0.03269438      -0.07064269
O        2.30666535       3.56953274       7.23149963        8      -0.06934203      -0.03188906      -0.12167991
O        0.63560598       0.55486584       5.53720052        9       0.06934203      -0.03188906       0.12167991
O        0.63560598       2.45980106       2.97526625       10       0.06934203       0.03188906      -0.12167991
O        2.30666535       5.47446796       1.28096713       11      -0.06934203       0.03188906       0.12167991
O        3.57787730       2.45980106       1.28096713       12       0.06934203       0.03188906       0.12167991
O        5.24893667       5.47446796       2.97526625       13      -0.06934203       0.03188906      -0.12167991
O        5.24893667       3.56953274       5.53720052       14      -0.06934203      -0.03188906       0.12167991
O        3.57787730       0.55486584       7.23149963       15       0.06934203      -0.03188906      -0.12167991
O        5.60303981       4.52200035       0.00000000       16       0.04266049      -0.00000000       0.00000000
O        3.22377416       1.50733345       4.25623338       17      -0.04266049       0.00000000      -0.00000000
O        0.28150284       1.50733345       0.00000000       18      -0.04266049      -0.00000000      -0.00000000
O        2.66076849       4.52200035       4.25623338       19       0.04266049      -0.00000000       0.00000000
20
Lattice="5.874788691549512 -2.7098308317498382e-59 1.0015836788983854e-42 2.4811874055767993e-59 6.023669368545776 3.2738928288646266e-17 -2.2956964051213734e-43 -9.537180622681897e-17 8.534618167425162" Properties=species:S:1:pos:R:3:spacegroup_kinds:I:1:forces:R:3 spacegroup="P 1" unit_cell=conventional occupancy="_JSON {\"0\": {\"In\": 1}, \"1\": {\"In\": 1}, \"2\": {\"In\": 1}, \"3\": {\"In\": 1}, \"4\": {\"In\": 1}, \"5\": {\"In\": 1}, \"6\": {\"In\": 1}, \"7\": {\"In\": 1}, \"8\": {\"O\": 1}, \"9\": {\"O\": 1}, \"10\": {\"O\": 1}, \"11\": {\"O\": 1}, \"12\": {\"O\": 1}, \"13\": {\"O\": 1}, \"14\": {\"O\": 1}, \"15\": {\"O\": 1}, \"16\": {\"O\": 1}, \"17\": {\"O\": 1}, \"18\": {\"O\": 1}, \"19\": {\"O\": 1}}" n_minim_iter=3 energy=-22573.63806677898 stress="0.05589600795592455 1.4982503097445382e-12 -2.1373616493293292e-12 1.4982503097445382e-12 0.05622080287073577 -4.223706861401056e-12 -2.1373616493293292e-12 -4.223706861401056e-12 0.05867111624165782" free_energy=-22573.63806677898 pbc="T T T"
In       1.44190798       3.26476341       1.00182097        0       0.03117599      -0.03840487      -0.05274705
In       1.49548636       0.25292872       3.26548811        1      -0.03117599      -0.03840487       0.05274705
In       1.49548636       2.75890596       5.26913006        2      -0.03117599       0.03840487      -0.05274705
In       1.44190798       5.77074064       7.53279719        3       0.03117599       0.03840487       0.05274705
In       4.43288071       2.75890596       7.53279719        4      -0.03117599       0.03840487       0.05274705
In       4.37930233       5.77074064       5.26913006        5       0.03117599       0.03840487      -0.05274705
In       4.37930233       3.26476341       3.26548811        6       0.03117599      -0.03840487       0.05274705
In       4.43288071       0.25292872       1.00182097        7      -0.03117599      -0.03840487      -0.05274705
O        2.30221178       3.56588561       7.24918021        8      -0.06628382      -0.04078580      -0.12918533
O        0.63518257       0.55405092       5.55274704        9       0.06628382      -0.04078580       0.12918533
O        0.63518257       2.45778376       2.98187113       10       0.06628382       0.04078579      -0.12918533
O        2.30221178       5.46961845       1.28543796       11      -0.06628382       0.04078580       0.12918533
O        3.57257691       2.45778376       1.28543796       12       0.06628382       0.04078579       0.12918533
O        5.23960613       5.46961845       2.98187113       13      -0.06628382       0.04078579      -0.12918533
O        5.23960613       3.56588561       5.55274704       14      -0.06628382      -0.04078579       0.12918533
O        3.57257691       0.55405092       7.24918021       15       0.06628382      -0.04078579      -0.12918533
O        5.59412571       4.51775203       0.00000000       16       0.03077594       0.00000000       0.00000000
O        3.21805733       1.50591734       4.26730908       17      -0.03077594      -0.00000000       0.00000000
O        0.28066298       1.50591734       0.00000000       18      -0.03077594       0.00000000       0.00000000
O        2.65673136       4.51775203       4.26730908       19       0.03077594      -0.00000000       0.00000000
20
Lattice="5.887990775843943 -2.7165123984143626e-59 1.0870038566225114e-42 2.41247539537122e-59 6.009119997735719 3.266147785169974e-17 -4.12107310035637e-43 -9.525769863251387e-17 8.53609961241586" Properties=species:S:1:pos:R:3:spacegroup_kinds:I:1:forces:R:3 spacegroup="P 1" unit_cell=conventional occupancy="_JSON {\"0\": {\"In\": 1}, \"1\": {\"In\": 1}, \"2\": {\"In\": 1}, \"3\": {\"In\": 1}, \"4\": {\"In\": 1}, \"5\": {\"In\": 1}, \"6\": {\"In\": 1}, \"7\": {\"In\": 1}, \"8\": {\"O\": 1}, \"9\": {\"O\": 1}, \"10\": {\"O\": 1}, \"11\": {\"O\": 1}, \"12\": {\"O\": 1}, \"13\": {\"O\": 1}, \"14\": {\"O\": 1}, \"15\": {\"O\": 1}, \"16\": {\"O\": 1}, \"17\": {\"O\": 1}, \"18\": {\"O\": 1}, \"19\": {\"O\": 1}}" n_minim_iter=4 energy=-22573.641828738575 stress="0.05820390356851212 1.6727856584979975e-12 -1.65038167654924e-12 1.6727856584979975e-12 0.05354155587359177 -8.228337638285976e-13 -1.65038167654924e-12 -8.228337638285976e-13 0.05856771554974623" free_energy=-22573.641828738575 pbc="T T T"
In       1.44603651       3.25601443       1.00024253        0       0.03489818      -0.05164767      -0.03968354
In       1.49795888       0.25145443       3.26780728        1      -0.03489818      -0.05164767       0.03968354
In       1.49795888       2.75310557       5.26829234        2      -0.03489818       0.05164767      -0.03968354
In       1.44603651       5.75766557       7.53585708        3       0.03489818       0.05164767       0.03968354
In       4.44195426       2.75310557       7.53585708        4      -0.03489818       0.05164767       0.03968354
In       4.39003190       5.75766557       5.26829234        5       0.03489818       0.05164767      -0.03968354
In       4.39003190       3.25601443       3.26780728        6       0.03489818      -0.05164767       0.03968354
In       4.44195426       0.25145443       1.00024253        7      -0.03489818      -0.05164767      -0.03968354
O        2.30553233       3.55632569       7.24705027        8      -0.04751266      -0.03952901      -0.08927689
O        0.63846306       0.55176569       5.55709915        9       0.04751266      -0.03952901       0.08927689
O        0.63846306       2.45279430       2.97900046       10       0.04751266       0.03952901      -0.08927689
O        2.30553233       5.45735430       1.28904934       11      -0.04751266       0.03952901       0.08927689
O        3.58245845       2.45279430       1.28904934       12       0.04751266       0.03952901       0.08927689
O        5.24952772       5.45735430       2.97900046       13      -0.04751266       0.03952901      -0.08927689
O        5.24952772       3.55632569       5.55709915       14      -0.04751266      -0.03952901       0.08927689
O        3.58245845       0.55176569       7.24705027       15       0.04751266      -0.03952901      -0.08927689
O        5.60779281       4.50684000       0.00000000       16       0.02322322       0.00000000      -0.00000000
O        3.22419335       1.50228000       4.26804981       17      -0.02322322       0.00000000      -0.00000000
O        0.28019796       1.50228000       0.00000000       18      -0.02322322      -0.00000000      -0.00000000
O        2.66379742       4.50684000       4.26804981       19       0.02322322       0.00000000      -0.00000000
20
Lattice="5.879318539314289 -2.611686906942171e-59 7.478233264780713e-43 2.6028953484513887e-59 6.019642567916778 4.100870767445853e-17 7.590082790956265e-44 -8.373948187804954e-17 8.533747265188616" Properties=species:S:1:pos:R:3:spacegroup_kinds:I:1:forces:R:3 spacegroup="P 1" unit_cell=conventional occupancy="_JSON {\"0\": {\"In\": 1}, \"1\": {\"In\": 1}, \"2\": {\"In\": 1}, \"3\": {\"In\": 1}, \"4\": {\"In\": 1}, \"5\": {\"In\": 1}, \"6\": {\"In\": 1}, \"7\": {\"In\": 1}, \"8\": {\"O\": 1}, \"9\": {\"O\": 1}, \"10\": {\"O\": 1}, \"11\": {\"O\": 1}, \"12\": {\"O\": 1}, \"13\": {\"O\": 1}, \"14\": {\"O\": 1}, \"15\": {\"O\": 1}, \"16\": {\"O\": 1}, \"17\": {\"O\": 1}, \"18\": {\"O\": 1}, \"19\": {\"O\": 1}}" n_minim_iter=5 energy=-22573.651959535844 stress="0.0576440944614197 1.7428609042332943e-12 -1.6348562418255064e-12 1.7428609042332943e-12 0.05524911153648521 1.3540028489417322e-12 -1.6348562418255064e-12 1.3540028489417322e-12 0.05725890213735081" free_energy=-22573.651959535844 pbc="T T T"
In       1.44623973       3.25929231       0.99539514        0       0.01853500      -0.03307760      -0.03098589
In       1.49341954       0.24947103       3.27147849        1      -0.01853500      -0.03307760       0.03098589
In       1.49341954       2.76035026       5.26226878        2      -0.01853500       0.03307760      -0.03098589
In       1.44623973       5.77017154       7.53835212        3       0.01853500       0.03307760       0.03098589
In       4.43307881       2.76035026       7.53835212        4      -0.01853500       0.03307760       0.03098589
In       4.38589900       5.77017154       5.26226878        5       0.01853500       0.03307760      -0.03098589
In       4.38589900       3.25929231       3.27147849        6       0.01853500      -0.03307760       0.03098589
In       4.43307881       0.24947103       0.99539514        7      -0.01853500      -0.03307760      -0.03098589
O        2.29736309       3.55995715       7.23655285        8      -0.00715588      -0.02172708      -0.02721350
O        0.64229618       0.55013587       5.56406805        9       0.00715588      -0.02172708       0.02721350
O        0.64229618       2.45968542       2.96967922       10       0.00715588       0.02172708      -0.02721350
O        2.29736309       5.46950670       1.29719441       11      -0.00715588       0.02172708       0.02721350
O        3.58195545       2.45968542       1.29719441       12       0.00715588       0.02172708       0.02721350
O        5.23702236       5.46950670       2.96967922       13      -0.00715588       0.02172708      -0.02721350
O        5.23702236       3.55995715       5.56406805       14      -0.00715588      -0.02172708       0.02721350
O        3.58195545       0.55013587       7.23655285       15       0.00715588      -0.02172708      -0.02721350
O        5.60257524       4.51473193       0.00000000       16      -0.01302429       0.00000000      -0.00000000
O        3.21640257       1.50491064       4.26687363       17       0.01302429       0.00000000      -0.00000000
O        0.27674330       1.50491064       0.00000000       18       0.01302429       0.00000000       0.00000000
O        2.66291597       4.51473193       4.26687363       19      -0.01302429       0.00000000      -0.00000000
20
Lattice="5.870336943617453 -2.6079521606495205e-59 2.3979921543047633e-43 2.4896416904062024e-59 6.028443129037659 4.101149312070682e-17 -1.677040472989999e-43 -8.386190682607328e-17 8.534326905359004" Properties=species:S:1:pos:R:3:spacegroup_kinds:I:1:forces:R:3 spacegroup="P 1" unit_cell=conventional occupancy="_JSON {\"0\": {\"In\": 1}, \"1\": {\"In\": 1}, \"2\": {\"In\": 1}, \"3\": {\"In\": 1}, \"4\": {\"In\": 1}, \"5\": {\"In\": 1}, \"6\": {\"In\": 1}, \"7\": {\"In\": 1}, \"8\": {\"O\": 1}, \"9\": {\"O\": 1}, \"10\": {\"O\": 1}, \"11\": {\"O\": 1}, \"12\": {\"O\": 1}, \"13\": {\"O\": 1}, \"14\": {\"O\": 1}, \"15\": {\"O\": 1}, \"16\": {\"O\": 1}, \"17\": {\"O\": 1}, \"18\": {\"O\": 1}, \"19\": {\"O\": 1}}" n_minim_iter=6 energy=-22573.654290173243 stress="0.0567584620337846 -1.906340151470375e-12 -1.1672181385183844e-12 -1.906340151470375e-12 0.056558989407000396 -5.313317470850201e-13 -1.1672181385183844e-12 -5.313317470850201e-13 0.05642539186482639" free_energy=-22573.654290173243 pbc="T T T"
In       1.44563182       3.26220903       0.99213017        0       0.00551232      -0.01866598      -0.02390138
In       1.48953665       0.24798746       3.27503329        1      -0.00551232      -0.01866598       0.02390138
In       1.48953665       2.76623410       5.25929362        2      -0.00551232       0.01866598      -0.02390138
In       1.44563182       5.78045567       7.54219674        3       0.00551232       0.01866598       0.02390138
In       4.42470512       2.76623410       7.54219674        4      -0.00551232       0.01866598       0.02390138
In       4.38080030       5.78045567       5.25929362        5       0.00551232       0.01866598      -0.02390138
In       4.38080030       3.26220903       3.27503329        6       0.00551232      -0.01866598       0.02390138
In       4.42470512       0.24798746       0.99213017        7      -0.00551232      -0.01866598      -0.02390138
O        2.29100983       3.56332057       7.23165421        8       0.01405313      -0.00909925       0.00481752
O        0.64415864       0.54909901       5.56983614        9      -0.01405313      -0.00909925      -0.00481752
O        0.64415864       2.46512256       2.96449076       10      -0.01405313       0.00909926       0.00481752
O        2.29100983       5.47934412       1.30267269       11       0.01405313       0.00909926      -0.00481752
O        3.57932711       2.46512256       1.30267269       12      -0.01405313       0.00909926      -0.00481752
O        5.22617830       5.47934412       2.96449076       13       0.01405313       0.00909925       0.00481752
O        5.22617830       3.56332057       5.56983614       14       0.01405313      -0.00909925      -0.00481752
O        3.57932711       0.54909901       7.23165421       15      -0.01405313      -0.00909925       0.00481752
O        5.59546766       4.52133235       0.00000000       16      -0.03316436       0.00000000       0.00000000
O        3.21003775       1.50711078       4.26716345       17       0.03316436       0.00000000       0.00000000
O        0.27486928       1.50711078       0.00000000       18       0.03316436      -0.00000000      -0.00000000
O        2.66029919       4.52133235       4.26716345       19      -0.03316436       0.00000000      -0.00000000
20
Lattice="5.864890988860177 -4.1328758822328653e-60 -4.379405101256681e-43 -4.3156802628346015e-59 6.030485676550423 4.0177322888464614e-17 -4.117498304565728e-43 -8.509145064381484e-17 8.539358323202856" Properties=species:S:1:pos:R:3:spacegroup_kinds:I:1:forces:R:3 spacegroup="P 1" unit_cell=conventional occupancy="_JSON {\"0\": {\"In\": 1}, \"1\": {\"In\": 1}, \"2\": {\"In\": 1}, \"3\": {\"In\": 1}, \"4\": {\"In\": 1}, \"5\": {\"In\": 1}, \"6\": {\"In\": 1}, \"7\": {\"In\": 1}, \"8\": {\"O\": 1}, \"9\": {\"O\": 1}, \"10\": {\"O\": 1}, \"11\": {\"O\": 1}, \"12\": {\"O\": 1}, \"13\": {\"O\": 1}, \"14\": {\"O\": 1}, \"15\": {\"O\": 1}, \"16\": {\"O\": 1}, \"17\": {\"O\": 1}, \"18\": {\"O\": 1}, \"19\": {\"O\": 1}}" n_minim_iter=7 energy=-22573.654732016275 stress="0.056100230219767074 2.162095196368216e-12 -4.3026750513779813e-13 2.162095196368216e-12 0.056787377778948656 -2.8554226589255024e-12 -4.3026750513779813e-13 -2.8554226589255024e-12 0.05666443162871097" free_energy=-22573.654732016275 pbc="T T T"
In       1.44523712       3.26167043       0.99014619        0      -0.00247330      -0.01227298      -0.01233360
In       1.48720838       0.24642759       3.27953297        1       0.00247330      -0.01227298       0.01233360
In       1.48720838       2.76881525       5.25982535        2       0.00247330       0.01227298      -0.01233360
In       1.44523712       5.78405809       7.54921213        3      -0.00247330       0.01227298       0.01233360
In       4.41965387       2.76881525       7.54921213        4       0.00247330       0.01227298       0.01233360
In       4.37768261       5.78405809       5.25982535        5      -0.00247330       0.01227298      -0.01233360
In       4.37768261       3.26167043       3.27953297        6      -0.00247330      -0.01227298       0.01233360
In       4.41965387       0.24642759       0.99014619        7       0.00247330      -0.01227298      -0.01233360
O        2.28818270       3.56328188       7.23359835        8       0.01450381      -0.00222947       0.01368559
O        0.64426279       0.54803904       5.57543913        9      -0.01450381      -0.00222947      -0.01368559
O        0.64426279       2.46720379       2.96391919       10      -0.01450381       0.00222947       0.01368559
O        2.28818270       5.48244663       1.30575997       11       0.01450381       0.00222947      -0.01368559
O        3.57670828       2.46720379       1.30575997       12      -0.01450381       0.00222947      -0.01368559
O        5.22062820       5.48244663       2.96391919       13       0.01450381       0.00222947       0.01368559
O        5.22062820       3.56328188       5.57543913       14       0.01450381      -0.00222947      -0.01368559
O        3.57670828       0.54803904       7.23359835       15      -0.01450381      -0.00222947       0.01368559
O        5.58947030       4.52286426       0.00000000       16      -0.02715309      -0.00000000       0.00000000
O        3.20786618       1.50762142       4.26967916       17       0.02715309      -0.00000000      -0.00000000
O        0.27542069       1.50762142       0.00000000       18       0.02715309      -0.00000000      -0.00000000
O        2.65702481       4.52286426       4.26967916       19      -0.02715309       0.00000000      -0.00000000
20
Lattice="5.869567828926107 6.100756027696729e-60 -6.063092437456646e-43 -5.8225071691366e-59 6.027341229793502 5.1040043734786976e-17 -8.980797138005736e-43 -6.984303233447104e-17 8.537005617669779" Properties=species:S:1:pos:R:3:spacegroup_kinds:I:1:forces:R:3 spacegroup="P 1" unit_cell=conventional occupancy="_JSON {\"0\": {\"In\": 1}, \"1\": {\"In\": 1}, \"2\": {\"In\": 1}, \"3\": {\"In\": 1}, \"4\": {\"In\": 1}, \"5\": {\"In\": 1}, \"6\": {\"In\": 1}, \"7\": {\"In\": 1}, \"8\": {\"O\": 1}, \"9\": {\"O\": 1}, \"10\": {\"O\": 1}, \"11\": {\"O\": 1}, \"12\": {\"O\": 1}, \"13\": {\"O\": 1}, \"14\": {\"O\": 1}, \"15\": {\"O\": 1}, \"16\": {\"O\": 1}, \"17\": {\"O\": 1}, \"18\": {\"O\": 1}, \"19\": {\"O\": 1}}" n_minim_iter=8 energy=-22573.65536116447 stress="0.05666730325162128 -6.744519839934704e-13 -3.245082218653352e-12 -6.744519839934704e-13 0.05651508299016025 1.357624788849042e-12 -3.245082218653352e-12 1.357624788849042e-12 0.05693635944225372" free_energy=-22573.65536116447 pbc="T T T"
In       1.44643503       3.25841785       0.98824520        0       0.00053604      -0.01093084      -0.00496220
In       1.48834889       0.24474723       3.28025761        1      -0.00053604      -0.01093084       0.00496220
In       1.48834889       2.76892338       5.25674801        2      -0.00053604       0.01093084      -0.00496220
In       1.44643503       5.78259400       7.54876041        3       0.00053604       0.01093084       0.00496220
In       4.42313280       2.76892338       7.54876041        4      -0.00053604       0.01093084       0.00496220
In       4.38121894       5.78259400       5.25674801        5       0.00053604       0.01093084      -0.00496220
In       4.38121894       3.25841785       3.28025761        6       0.00053604      -0.01093084       0.00496220
In       4.42313280       0.24474723       0.98824520        7      -0.00053604      -0.01093084      -0.00496220
O        2.29192074       3.56097978       7.23330300        8      -0.00696902       0.00210472       0.00988791
O        0.64286317       0.54730916       5.57220543        9       0.00696903       0.00210472      -0.00988791
O        0.64286317       2.46636145       2.96480019       10       0.00696903      -0.00210472       0.00988791
O        2.29192074       5.48003207       1.30370262       11      -0.00696903      -0.00210472      -0.00988791
O        3.57764709       2.46636145       1.30370262       12       0.00696902      -0.00210472      -0.00988791
O        5.22670465       5.48003207       2.96480019       13      -0.00696902      -0.00210472       0.00988791
O        5.22670465       3.56097978       5.57220543       14      -0.00696902       0.00210472      -0.00988791
O        3.57764709       0.54730916       7.23330300       15       0.00696902       0.00210472       0.00988791
O        5.59045303       4.52050592       0.00000000       16       0.01601370       0.00000000       0.00000000
O        3.21389871       1.50683531       4.26850281       17      -0.01601370      -0.00000000       0.00000000
O        0.27911480       1.50683531       0.00000000       18      -0.01601370       0.00000000       0.00000000
O        2.65566912       4.52050592       4.26850281       19       0.01601370      -0.00000000      -0.00000000
20
Lattice="5.871723782019896 6.522015677538732e-60 -9.503586699513326e-44 -6.258128398916888e-59 6.030410307149631 4.505099922077928e-17 -1.6257942582711874e-42 -7.819092236796077e-17 8.529527866201272" Properties=species:S:1:pos:R:3:spacegroup_kinds:I:1:forces:R:3 spacegroup="P 1" unit_cell=conventional occupancy="_JSON {\"0\": {\"In\": 1}, \"1\": {\"In\": 1}, \"2\": {\"In\": 1}, \"3\": {\"In\": 1}, \"4\": {\"In\": 1}, \"5\": {\"In\": 1}, \"6\": {\"In\": 1}, \"7\": {\"In\": 1}, \"8\": {\"O\": 1}, \"9\": {\"O\": 1}, \"10\": {\"O\": 1}, \"11\": {\"O\": 1}, \"12\": {\"O\": 1}, \"13\": {\"O\": 1}, \"14\": {\"O\": 1}, \"15\": {\"O\": 1}, \"16\": {\"O\": 1}, \"17\": {\"O\": 1}, \"18\": {\"O\": 1}, \"19\": {\"O\": 1}}" n_minim_iter=9 energy=-22573.65550956268 stress="0.05692513147178142 2.05277816929067e-12 3.686599138061396e-12 2.05277816929067e-12 0.057202482395204333 -9.430227649666277e-13 3.686599138061396e-12 -9.430227649666277e-13 0.056310034458303355" free_energy=-22573.65550956268 pbc="T T T"
In       1.44710141       3.25901730       0.98641092        0       0.00213711      -0.00473301      -0.00873062
In       1.48876048       0.24381215       3.27835301        1      -0.00213711      -0.00473301       0.00873062
In       1.48876048       2.77139300       5.25117485        2      -0.00213711       0.00473301      -0.00873062
In       1.44710141       5.78659816       7.54311695        3       0.00213711       0.00473301       0.00873062
In       4.42462237       2.77139300       7.54311695        4      -0.00213711       0.00473301       0.00873062
In       4.38296331       5.78659816       5.25117485        5       0.00213711       0.00473301      -0.00873062
In       4.38296331       3.25901730       3.27835301        6       0.00213711      -0.00473301       0.00873062
In       4.42462237       0.24381215       0.98641092        7      -0.00213711      -0.00473301      -0.00873062
O        2.29265249       3.56272314       7.22765889        8      -0.00652227       0.00515726       0.01391284
O        0.64320940       0.54751799       5.56663291        9       0.00652227       0.00515726      -0.01391284
O        0.64320940       2.46768716       2.96289495       10       0.00652227      -0.00515726       0.01391284
O        2.29265249       5.48289232       1.30186898       11      -0.00652227      -0.00515726      -0.01391284
O        3.57907129       2.46768716       1.30186898       12       0.00652227      -0.00515726      -0.01391284
O        5.22851438       5.48289232       2.96289495       13      -0.00652227      -0.00515726       0.01391284
O        5.22851438       3.56272314       5.56663291       14      -0.00652227       0.00515726      -0.01391284
O        3.57907129       0.54751799       7.22765889       15       0.00652227       0.00515726       0.01391284
O        5.59269798       4.52280773       0.00000000       16       0.01672164       0.00000000       0.00000000
O        3.21488769       1.50760258       4.26476393       17      -0.01672164      -0.00000000      -0.00000000
O        0.27902580       1.50760258       0.00000000       18      -0.01672164       0.00000000      -0.00000000
O        2.65683609       4.52280773       4.26476393       19       0.01672164       0.00000000      -0.00000000
20