20
Lattice="5.2055468705226104 2.317165556248487e-56 4.616809623387715e-41 -1.5276382764136607e-58 5.352897402859581 -1.950942108619802e-15 6.368584856378755e-44 4.197287350849534e-15 7.379625311155883" Properties=species:S:1:pos:R:3:spacegroup_kinds:I:1:forces:R:3 spacegroup="P 1" unit_cell=conventional occupancy="_JSON {\"0\": {\"In\": 1}, \"1\": {\"In\": 1}, \"2\": {\"In\": 1}, \"3\": {\"In\": 1}, \"4\": {\"In\": 1}, \"5\": {\"In\": 1}, \"6\": {\"In\": 1}, \"7\": {\"In\": 1}, \"8\": {\"O\": 1}, \"9\": {\"O\": 1}, \"10\": {\"O\": 1}, \"11\": {\"O\": 1}, \"12\": {\"O\": 1}, \"13\": {\"O\": 1}, \"14\": {\"O\": 1}, \"15\": {\"O\": 1}, \"16\": {\"O\": 1}, \"17\": {\"O\": 1}, \"18\": {\"O\": 1}, \"19\": {\"O\": 1}}" n_minim_iter=28 energy=-22576.880496608526 stress="0.09980083760788581 -2.634524962189729e-12 1.0524079545077606e-11 -2.634524962189729e-12 0.09997669450251902 1.5179697001222026e-11 1.0524079545077606e-11 1.5179697001222026e-11 0.1003526547447072" free_energy=-22576.880496608526 pbc="T T T"
In       1.23679897       2.76354118       0.93606114        0      -0.00107783       0.00436094      -0.00714386
In       1.36597447       0.08709248       2.75375151        1       0.00107783       0.00436094       0.00714386
In       1.36597447       2.58935623       4.62587380        2       0.00107783      -0.00436094      -0.00714386
In       1.23679897       5.26580493       6.44356417        3      -0.00107783      -0.00436094       0.00714386
In       3.96874790       2.58935623       6.44356417        4       0.00107783      -0.00436094       0.00714386
In       3.83957240       5.26580493       4.62587380        5      -0.00107783      -0.00436094      -0.00714386
In       3.83957240       2.76354118       2.75375151        6      -0.00107783       0.00436094       0.00714386
In       3.96874790       0.08709248       0.93606114        7       0.00107783       0.00436094      -0.00714386
O        2.10232841       3.33890946       6.40822616        8      -0.00037885      -0.00289373      -0.00078148
O        0.50044502       0.66246076       4.66121181        9       0.00037885      -0.00289373       0.00078148
O        0.50044502       2.01398794       2.71841350       10       0.00037885       0.00289373      -0.00078148
O        2.10232841       4.69043665       0.97139915       11      -0.00037885       0.00289373       0.00078148
O        3.10321846       2.01398794       0.97139915       12       0.00037885       0.00289373       0.00078148
O        4.70510185       4.69043665       2.71841350       13      -0.00037885       0.00289373      -0.00078148
O        4.70510185       3.33890946       4.66121181       14      -0.00037885      -0.00289373       0.00078148
O        3.10321846       0.66246076       6.40822616       15       0.00037885      -0.00289373      -0.00078148
O        5.05127267       4.01467305      -0.00000000       16       0.00264217       0.00000000      -0.00000000
O        2.75704764       1.33822435       3.68981266       17      -0.00264217       0.00000000       0.00000000
O        0.15427420       1.33822435      -0.00000000       18      -0.00264217       0.00000000      -0.00000000
O        2.44849924       4.01467305       3.68981266       19       0.00264217      -0.00000000      -0.00000000
