20
Lattice="4.67881121551341 -5.37027795694119e-57 9.429759544163132e-44 5.767805647333817e-57 4.979110411223271 -2.622196927931036e-15 -1.6677797101270419e-43 4.3579991098091694e-15 8.275106460777334" Properties=species:S:1:pos:R:3:spacegroup_kinds:I:1:forces:R:3 spacegroup="P 1" unit_cell=conventional occupancy="_JSON {\"0\": {\"In\": 1}, \"1\": {\"In\": 1}, \"2\": {\"In\": 1}, \"3\": {\"In\": 1}, \"4\": {\"In\": 1}, \"5\": {\"In\": 1}, \"6\": {\"In\": 1}, \"7\": {\"In\": 1}, \"8\": {\"O\": 1}, \"9\": {\"O\": 1}, \"10\": {\"O\": 1}, \"11\": {\"O\": 1}, \"12\": {\"O\": 1}, \"13\": {\"O\": 1}, \"14\": {\"O\": 1}, \"15\": {\"O\": 1}, \"16\": {\"O\": 1}, \"17\": {\"O\": 1}, \"18\": {\"O\": 1}, \"19\": {\"O\": 1}}" n_minim_iter=1 energy=-22582.718164110305 stress="0.1821667498515741 3.2512095322457213e-12 8.748490862674595e-13 3.2512095322457213e-12 0.1891362859865127 6.741364184179804e-12 8.748490862674595e-13 6.741364184179804e-12 0.19870809942419562" free_energy=-22582.718164110305 pbc="T T T"
In       1.27376162       2.69986024       0.86744207        0       0.46211297       0.69702250      -1.30597833
In       1.06564399       0.21030503       3.27011116        1      -0.46211297       0.69702250       1.30597833
In       1.06564399       2.27925017       5.00499530        2      -0.46211297      -0.69702250      -1.30597833
In       1.27376162       4.76880538       7.40766439        3       0.46211297      -0.69702250       1.30597833
In       3.40504959       2.27925017       7.40766439        4      -0.46211297      -0.69702250       1.30597833
In       3.61316723       4.76880538       5.00499530        5       0.46211297      -0.69702250      -1.30597833
In       3.61316723       2.69986024       3.27011116        6       0.46211297       0.69702250       1.30597833
In       3.40504959       0.21030503       0.86744207        7      -0.46211297       0.69702250      -1.30597833
O        1.97502901       3.24148494       6.44850463        8       0.10059977       0.15256799      -0.29965195
O        0.36437660       0.75192973       5.96415506        9      -0.10059977       0.15256799       0.29965195
O        0.36437660       1.73762547       2.31095140       10      -0.10059977      -0.15256799      -0.29965195
O        1.97502901       4.22718068       1.82660183       11       0.10059977      -0.15256799       0.29965195
O        2.70378221       1.73762547       1.82660183       12      -0.10059977      -0.15256799       0.29965195
O        4.31443462       4.22718068       2.31095140       13       0.10059977      -0.15256799      -0.29965195
O        4.31443462       3.24148494       5.96415506       14       0.10059977       0.15256799       0.29965195
O        2.70378221       0.75192973       6.44850463       15      -0.10059977       0.15256799      -0.29965195
O        4.39054335       3.73433281      -0.00000000       16      -0.01737246      -0.00000000      -0.00000000
O        2.62767347       1.24477760       4.13755323       17       0.01737246       0.00000000       0.00000000
O        0.28826786       1.24477760      -0.00000000       18       0.01737246      -0.00000000       0.00000000
O        2.05113774       3.73433281       4.13755323       19      -0.01737246      -0.00000000      -0.00000000
20
Lattice="4.707310738627088 -5.401843998704479e-57 9.306967130301692e-44 5.780746371332138e-57 4.982458253851537 -2.614608141762577e-15 -1.4021675686560258e-43 4.344244800200578e-15 8.219479798203617" Properties=species:S:1:pos:R:3:spacegroup_kinds:I:1:forces:R:3 spacegroup="P 1" unit_cell=conventional occupancy="_JSON {\"0\": {\"In\": 1}, \"1\": {\"In\": 1}, \"2\": {\"In\": 1}, \"3\": {\"In\": 1}, \"4\": {\"In\": 1}, \"5\": {\"In\": 1}, \"6\": {\"In\": 1}, \"7\": {\"In\": 1}, \"8\": {\"O\": 1}, \"9\": {\"O\": 1}, \"10\": {\"O\": 1}, \"11\": {\"O\": 1}, \"12\": {\"O\": 1}, \"13\": {\"O\": 1}, \"14\": {\"O\": 1}, \"15\": {\"O\": 1}, \"16\": {\"O\": 1}, \"17\": {\"O\": 1}, \"18\": {\"O\": 1}, \"19\": {\"O\": 1}}" n_minim_iter=2 energy=-22582.76981107734 stress="0.22099515742836162 4.075277749211319e-12 -3.588028955170793e-12 4.075277749211319e-12 0.2156397008090931 5.877537287570822e-12 -3.588028955170793e-12 5.877537287570822e-12 0.1873548738272642" free_energy=-22582.76981107734 pbc="T T T"
In       1.28338913       2.70447915       0.85639686        0       0.27710695       0.29301879      -0.73201410
In       1.07026624       0.21325002       3.25334304        1      -0.27710695       0.29301879       0.73201410
In       1.07026624       2.27797911       4.96613676        2      -0.27710695      -0.29301879      -0.73201410
In       1.28338913       4.76920824       7.36308294        3       0.27710695      -0.29301879       0.73201410
In       3.42392161       2.27797911       7.36308294        4      -0.27710695      -0.29301879       0.73201410
In       3.63704450       4.76920824       4.96613676        5       0.27710695      -0.29301879      -0.73201410
In       3.63704450       2.70447915       3.25334304        6       0.27710695       0.29301879       0.73201410
In       3.42392161       0.21325002       0.85639686        7      -0.27710695       0.29301879      -0.73201410
O        1.98746611       3.24427810       6.40396033        8       0.07017504       0.06123424      -0.20603386
O        0.36618926       0.75304898       5.92525936        9      -0.07017504       0.06123424       0.20603386
O        0.36618926       1.73818015       2.29422043       10      -0.07017504      -0.06123424      -0.20603386
O        1.98746611       4.22940928       1.81551947       11       0.07017504      -0.06123424       0.20603386
O        2.71984463       1.73818015       1.81551947       12      -0.07017504      -0.06123424       0.20603386
O        4.34112148       4.22940928       2.29422043       13       0.07017503      -0.06123424      -0.20603386
O        4.34112148       3.24427810       5.92525936       14       0.07017504       0.06123424       0.20603386
O        2.71984463       0.75304898       6.40396033       15      -0.07017504       0.06123424      -0.20603386
O        4.41721673       3.73684369      -0.00000000       16       0.10663085       0.00000000      -0.00000000
O        2.64374938       1.24561456       4.10973990       17      -0.10663085       0.00000000       0.00000000
O        0.29009401       1.24561456      -0.00000000       18      -0.10663085      -0.00000000      -0.00000000
O        2.06356136       3.73684369       4.10973990       19       0.10663085      -0.00000000      -0.00000000
20
Lattice="4.69088453073527 -5.401587597603125e-57 9.235705945515412e-44 5.730006778670216e-57 4.950742702900453 -2.8868557185118976e-15 -1.4252362758065582e-43 3.899871465877805e-15 8.301102380533418" Properties=species:S:1:pos:R:3:spacegroup_kinds:I:1:forces:R:3 spacegroup="P 1" unit_cell=conventional occupancy="_JSON {\"0\": {\"In\": 1}, \"1\": {\"In\": 1}, \"2\": {\"In\": 1}, \"3\": {\"In\": 1}, \"4\": {\"In\": 1}, \"5\": {\"In\": 1}, \"6\": {\"In\": 1}, \"7\": {\"In\": 1}, \"8\": {\"O\": 1}, \"9\": {\"O\": 1}, \"10\": {\"O\": 1}, \"11\": {\"O\": 1}, \"12\": {\"O\": 1}, \"13\": {\"O\": 1}, \"14\": {\"O\": 1}, \"15\": {\"O\": 1}, \"16\": {\"O\": 1}, \"17\": {\"O\": 1}, \"18\": {\"O\": 1}, \"19\": {\"O\": 1}}" n_minim_iter=3 energy=-22582.85005440185 stress="0.2328873517295356 7.78211266437303e-12 -1.0803386010922403e-12 7.78211266437303e-12 0.23952789511869915 1.192547736988699e-11 -1.0803386010922403e-12 1.192547736988699e-11 0.23704251581570396" free_energy=-22582.85005440185 pbc="T T T"
In       1.28309478       2.69288796       0.85337599        0       0.11587989      -0.03464783       0.04135084
In       1.06234749       0.21751660       3.29717520        1      -0.11587989      -0.03464783      -0.04135084
In       1.06234749       2.25785475       5.00392718        2      -0.11587989       0.03464783       0.04135084
In       1.28309478       4.73322610       7.44772639        3       0.11587989       0.03464783      -0.04135084
In       3.40778975       2.25785475       7.44772639        4      -0.11587989       0.03464783      -0.04135084
In       3.62853704       4.73322610       5.00392718        5       0.11587989       0.03464783       0.04135084
In       3.62853704       2.69288796       3.29717520        6       0.11587989      -0.03464783      -0.04135084
In       3.40778975       0.21751660       0.85337599        7      -0.11587989      -0.03464783       0.04135084
O        1.98149151       3.22484337       6.46471941        8       0.08702995      -0.11096144      -0.25882003
O        0.36395076       0.74947201       5.98693416        9      -0.08702995      -0.11096144       0.25882003
O        0.36395076       1.72589934       2.31416822       10      -0.08702995       0.11096144      -0.25882003
O        1.98149151       4.20127069       1.83638297       11       0.08702995       0.11096144       0.25882003
O        2.70939303       1.72589934       1.83638297       12      -0.08702995       0.11096144       0.25882003
O        4.32693377       4.20127069       2.31416822       13       0.08702995       0.11096144      -0.25882003
O        4.32693377       3.22484337       5.98693416       14       0.08702995      -0.11096144       0.25882003
O        2.70939303       0.74947201       6.46471941       15      -0.08702995      -0.11096144      -0.25882003
O        4.40223766       3.71305703      -0.00000000       16      -0.04716518       0.00000000      -0.00000000
O        2.63408913       1.23768568       4.15055119       17       0.04716518      -0.00000000       0.00000000
O        0.28864687       1.23768568      -0.00000000       18       0.04716518      -0.00000000      -0.00000000
O        2.05679540       3.71305703       4.15055119       19      -0.04716518       0.00000000       0.00000000
20
Lattice="4.70108586173728 -5.403761472219271e-57 1.465185528192695e-43 5.702183335634427e-57 4.935419844359817 -2.8060550933120564e-15 -1.332762572971187e-43 4.023973924450839e-15 8.308805305556243" Properties=species:S:1:pos:R:3:spacegroup_kinds:I:1:forces:R:3 spacegroup="P 1" unit_cell=conventional occupancy="_JSON {\"0\": {\"In\": 1}, \"1\": {\"In\": 1}, \"2\": {\"In\": 1}, \"3\": {\"In\": 1}, \"4\": {\"In\": 1}, \"5\": {\"In\": 1}, \"6\": {\"In\": 1}, \"7\": {\"In\": 1}, \"8\": {\"O\": 1}, \"9\": {\"O\": 1}, \"10\": {\"O\": 1}, \"11\": {\"O\": 1}, \"12\": {\"O\": 1}, \"13\": {\"O\": 1}, \"14\": {\"O\": 1}, \"15\": {\"O\": 1}, \"16\": {\"O\": 1}, \"17\": {\"O\": 1}, \"18\": {\"O\": 1}, \"19\": {\"O\": 1}}" n_minim_iter=4 energy=-22582.854007488502 stress="0.2400644959915919 2.3268638839762383e-12 3.1969212345838385e-12 2.3268638839762383e-12 0.23547170938483614 2.0657871926650242e-12 3.1969212345838385e-12 2.0657871926650242e-12 0.2414679665806479" free_energy=-22582.854007488502 pbc="T T T"
In       1.28656644       2.68462172       0.85386560        0       0.09807652      -0.00719008       0.02240584
In       1.06397649       0.21691180       3.30053706        1      -0.09807652      -0.00719008      -0.02240584
In       1.06397649       2.25079812       5.00826825        2      -0.09807653       0.00719008       0.02240584
In       1.28656644       4.71850805       7.45493971        3       0.09807652       0.00719008      -0.02240584
In       3.41451942       2.25079812       7.45493971        4      -0.09807653       0.00719008      -0.02240584
In       3.63710937       4.71850805       5.00826825        5       0.09807653       0.00719008       0.02240584
In       3.63710937       2.68462172       3.30053706        6       0.09807652      -0.00719008      -0.02240584
In       3.41451942       0.21691180       0.85386560        7      -0.09807653      -0.00719008       0.02240584
O        1.98622081       3.21443790       6.46947120        8       0.11233404      -0.10245884      -0.24162054
O        0.36432212       0.74672798       5.99373676        9      -0.11233404      -0.10245884       0.24162054
O        0.36432212       1.72098195       2.31506855       10      -0.11233404       0.10245884      -0.24162054
O        1.98622081       4.18869187       1.83933410       11       0.11233404       0.10245884       0.24162054
O        2.71486505       1.72098195       1.83933410       12      -0.11233404       0.10245884       0.24162054
O        4.33676374       4.18869187       2.31506855       13       0.11233404       0.10245884      -0.24162054
O        4.33676374       3.21443790       5.99373676       14       0.11233404      -0.10245884       0.24162054
O        2.71486505       0.74672798       6.46947120       15      -0.11233404      -0.10245884      -0.24162054
O        4.41164848       3.70156488      -0.00000000       16       0.00196612       0.00000000       0.00000000
O        2.63998031       1.23385496       4.15440265       17      -0.00196612      -0.00000000       0.00000000
O        0.28943738       1.23385496      -0.00000000       18      -0.00196612       0.00000000      -0.00000000
O        2.06110555       3.70156488       4.15440265       19       0.00196612      -0.00000000       0.00000000
20
Lattice="4.699741563282527 -5.40424376222803e-57 1.4922109816621896e-43 5.69816222533819e-57 4.936346541674332 -2.804991951168131e-15 -1.308801915151902e-43 4.026950177956462e-15 8.309621675511437" Properties=species:S:1:pos:R:3:spacegroup_kinds:I:1:forces:R:3 spacegroup="P 1" unit_cell=conventional occupancy="_JSON {\"0\": {\"In\": 1}, \"1\": {\"In\": 1}, \"2\": {\"In\": 1}, \"3\": {\"In\": 1}, \"4\": {\"In\": 1}, \"5\": {\"In\": 1}, \"6\": {\"In\": 1}, \"7\": {\"In\": 1}, \"8\": {\"O\": 1}, \"9\": {\"O\": 1}, \"10\": {\"O\": 1}, \"11\": {\"O\": 1}, \"12\": {\"O\": 1}, \"13\": {\"O\": 1}, \"14\": {\"O\": 1}, \"15\": {\"O\": 1}, \"16\": {\"O\": 1}, \"17\": {\"O\": 1}, \"18\": {\"O\": 1}, \"19\": {\"O\": 1}}" n_minim_iter=5 energy=-22582.86716899889 stress="0.24617292552555933 5.51127053916448e-12 -6.837569013958318e-12 5.51127053916448e-12 0.244314981085472 2.9368105734948534e-12 -6.837569013958318e-12 2.9368105734948534e-12 0.24462751824793283" free_energy=-22582.86716899889 pbc="T T T"
In       1.28973508       2.68512997       0.85341168        0       0.06682843       0.06684150       0.13988165
In       1.06013571       0.21695670       3.30139916        1      -0.06682843       0.06684150      -0.13988165
In       1.06013571       2.25121658       5.00822251        2      -0.06682843      -0.06684150       0.13988165
In       1.28973508       4.71938985       7.45621000        3       0.06682843      -0.06684150      -0.13988165
In       3.41000649       2.25121658       7.45621000        4      -0.06682843      -0.06684150      -0.13988165
In       3.63960586       4.71938985       5.00822251        5       0.06682843      -0.06684150       0.13988165
In       3.63960586       2.68512997       3.30139916        6       0.06682843       0.06684150      -0.13988165
In       3.41000649       0.21695670       0.85341168        7      -0.06682843       0.06684150       0.13988165
O        1.98865126       3.21222456       6.46266564        8       0.00094891      -0.02009863      -0.03804789
O        0.36121952       0.74405129       6.00176687        9      -0.00094891      -0.02009864       0.03804789
O        0.36121952       1.72412198       2.30785480       10      -0.00094891       0.02009863      -0.03804789
O        1.98865126       4.19229525       1.84695603       11       0.00094891       0.02009863       0.03804789
O        2.71109030       1.72412198       1.84695603       12      -0.00094891       0.02009863       0.03804789
O        4.33852205       4.19229525       2.30785480       13       0.00094891       0.02009863      -0.03804789
O        4.33852205       3.21222456       6.00176687       14       0.00094891      -0.02009863       0.03804789
O        2.71109030       0.74405129       6.46266564       15      -0.00094891      -0.02009863      -0.03804789
O        4.41006755       3.70225991      -0.00000000       16       0.01169547       0.00000000       0.00000000
O        2.63954479       1.23408664       4.15481084       17      -0.01169547       0.00000000      -0.00000000
O        0.28967401       1.23408664      -0.00000000       18      -0.01169547       0.00000000      -0.00000000
O        2.06019677       3.70225991       4.15481084       19       0.01169547      -0.00000000       0.00000000
20
Lattice="4.697013130047525 -5.391315795613378e-57 1.4911777317990586e-43 5.744932849487468e-57 4.938195668934829 -2.769557549927734e-15 7.890181328127843e-43 4.088303535772347e-15 8.311335246820718" Properties=species:S:1:pos:R:3:spacegroup_kinds:I:1:forces:R:3 spacegroup="P 1" unit_cell=conventional occupancy="_JSON {\"0\": {\"In\": 1}, \"1\": {\"In\": 1}, \"2\": {\"In\": 1}, \"3\": {\"In\": 1}, \"4\": {\"In\": 1}, \"5\": {\"In\": 1}, \"6\": {\"In\": 1}, \"7\": {\"In\": 1}, \"8\": {\"O\": 1}, \"9\": {\"O\": 1}, \"10\": {\"O\": 1}, \"11\": {\"O\": 1}, \"12\": {\"O\": 1}, \"13\": {\"O\": 1}, \"14\": {\"O\": 1}, \"15\": {\"O\": 1}, \"16\": {\"O\": 1}, \"17\": {\"O\": 1}, \"18\": {\"O\": 1}, \"19\": {\"O\": 1}}" n_minim_iter=6 energy=-22582.87088959731 stress="0.24633097468991466 1.9278706692422392e-13 -5.394719183233723e-12 1.9278706692422392e-13 0.24577091543013052 1.6572369783451087e-12 -5.394719183233723e-12 1.6572369783451087e-12 0.24455381402818394" free_energy=-22582.87088959731 pbc="T T T"
In       1.29131242       2.68745193       0.85559025        0       0.01945263       0.06568861       0.05904378
In       1.05719415       0.21835410       3.30007737        1      -0.01945263       0.06568861      -0.05904378
In       1.05719415       2.25074374       5.01125788        2      -0.01945263      -0.06568861       0.05904378
In       1.29131242       4.71984157       7.45574499        3       0.01945263      -0.06568861      -0.05904378
In       3.40570072       2.25074374       7.45574499        4      -0.01945263      -0.06568861      -0.05904378
In       3.63981898       4.71984157       5.01125788        5       0.01945263      -0.06568861       0.05904378
In       3.63981898       2.68745193       3.30007737        6       0.01945263       0.06568861      -0.05904378
In       3.40570072       0.21835410       0.85559025        7      -0.01945263       0.06568861       0.05904378
O        1.98831925       3.21232556       6.46114144        8      -0.02260336      -0.01553433       0.00421427
O        0.36018732       0.74322772       6.00586143        9       0.02260336      -0.01553433      -0.00421427
O        0.36018732       1.72587011       2.30547381       10       0.02260336       0.01553433       0.00421427
O        1.98831925       4.19496795       1.85019381       11      -0.02260336       0.01553433      -0.00421427
O        2.70869388       1.72587011       1.85019381       12       0.02260336       0.01553433      -0.00421427
O        4.33682581       4.19496795       2.30547381       13      -0.02260336       0.01553433       0.00421427
O        4.33682581       3.21232556       6.00586143       14      -0.02260336      -0.01553433      -0.00421427
O        2.70869388       0.74322772       6.46114144       15       0.02260336      -0.01553433       0.00421427
O        4.40748027       3.70364675      -0.00000000       16      -0.04248354      -0.00000000      -0.00000000
O        2.63803943       1.23454892       4.15566762       17       0.04248354      -0.00000000       0.00000000
O        0.28953286       1.23454892      -0.00000000       18       0.04248354      -0.00000000      -0.00000000
O        2.05897370       3.70364675       4.15566762       19      -0.04248354       0.00000000       0.00000000
20
Lattice="4.693507387507512 -5.392513292910944e-57 1.5013392525436211e-43 5.732745964216388e-57 4.93878742888273 -2.765830418773062e-15 8.47575467034915e-43 4.097905680367793e-15 8.316546671094745" Properties=species:S:1:pos:R:3:spacegroup_kinds:I:1:forces:R:3 spacegroup="P 1" unit_cell=conventional occupancy="_JSON {\"0\": {\"In\": 1}, \"1\": {\"In\": 1}, \"2\": {\"In\": 1}, \"3\": {\"In\": 1}, \"4\": {\"In\": 1}, \"5\": {\"In\": 1}, \"6\": {\"In\": 1}, \"7\": {\"In\": 1}, \"8\": {\"O\": 1}, \"9\": {\"O\": 1}, \"10\": {\"O\": 1}, \"11\": {\"O\": 1}, \"12\": {\"O\": 1}, \"13\": {\"O\": 1}, \"14\": {\"O\": 1}, \"15\": {\"O\": 1}, \"16\": {\"O\": 1}, \"17\": {\"O\": 1}, \"18\": {\"O\": 1}, \"19\": {\"O\": 1}}" n_minim_iter=7 energy=-22582.872567929422 stress="0.24607491492876699 6.7398803673621595e-12 -6.0700198776307025e-12 6.7398803673621595e-12 0.24612552189112324 -3.488963359312552e-12 -6.0700198776307025e-12 -3.488963359312552e-12 0.24595717649098442" free_energy=-22582.872567929422 pbc="T T T"
In       1.29188387       2.68968974       0.85772847        0      -0.01318937       0.04441238      -0.00121595
In       1.05486982       0.22029602       3.30054487        1       0.01318937       0.04441238       0.00121595
In       1.05486982       2.24909769       5.01600180        2       0.01318937      -0.04441238      -0.00121595
In       1.29188387       4.71849141       7.45881820        3      -0.01318937      -0.04441238       0.00121595
In       3.40162352       2.24909769       7.45881820        4       0.01318937      -0.04441238       0.00121595
In       3.63863756       4.71849141       5.01600180        5      -0.01318937      -0.04441238      -0.00121595
In       3.63863756       2.68968974       3.30054487        6      -0.01318937       0.04441238       0.00121595
In       3.40162352       0.22029602       0.85772847        7       0.01318937       0.04441238      -0.00121595
O        1.98693807       3.21173363       6.46354054        8      -0.02202576      -0.02826060       0.01385870
O        0.35981563       0.74233992       6.01127947        9       0.02202576      -0.02826060      -0.01385870
O        0.35981563       1.72705380       2.30526720       10       0.02202576       0.02826060       0.01385870
O        1.98693807       4.19644751       1.85300613       11      -0.02202576       0.02826060      -0.01385870
O        2.70656932       1.72705380       1.85300613       12       0.02202576       0.02826060      -0.01385870
O        4.33369176       4.19644751       2.30526720       13      -0.02202576       0.02826060       0.01385870
O        4.33369176       3.21173363       6.01127947       14      -0.02202576      -0.02826060      -0.01385870
O        2.70656932       0.74233992       6.46354054       15       0.02202576      -0.02826060       0.01385870
O        4.40307093       3.70409057      -0.00000000       16      -0.07885356      -0.00000000      -0.00000000
O        2.63719015       1.23469686       4.15827334       17       0.07885356      -0.00000000      -0.00000000
O        0.29043646       1.23469686      -0.00000000       18       0.07885356      -0.00000000      -0.00000000
O        2.05631723       3.70409057       4.15827334       19      -0.07885356       0.00000000       0.00000000
20
Lattice="4.686173322042745 -5.321379079281349e-57 2.8190801232543837e-43 5.730439377534066e-57 4.9410753421053535 -2.7499096254809924e-15 7.723611099494407e-43 4.131365924523664e-15 8.325705512353032" Properties=species:S:1:pos:R:3:spacegroup_kinds:I:1:forces:R:3 spacegroup="P 1" unit_cell=conventional occupancy="_JSON {\"0\": {\"In\": 1}, \"1\": {\"In\": 1}, \"2\": {\"In\": 1}, \"3\": {\"In\": 1}, \"4\": {\"In\": 1}, \"5\": {\"In\": 1}, \"6\": {\"In\": 1}, \"7\": {\"In\": 1}, \"8\": {\"O\": 1}, \"9\": {\"O\": 1}, \"10\": {\"O\": 1}, \"11\": {\"O\": 1}, \"12\": {\"O\": 1}, \"13\": {\"O\": 1}, \"14\": {\"O\": 1}, \"15\": {\"O\": 1}, \"16\": {\"O\": 1}, \"17\": {\"O\": 1}, \"18\": {\"O\": 1}, \"19\": {\"O\": 1}}" n_minim_iter=8 energy=-22582.874354889776 stress="0.24620075008527736 3.1242961318382586e-12 9.846334416678375e-12 3.1242961318382586e-12 0.2471056116898941 -3.8806211860551755e-12 9.846334416678375e-12 -3.8806211860551755e-12 0.24758282478464394" free_energy=-22582.874354889776 pbc="T T T"
In       1.29162060       2.69552410       0.86121628        0      -0.04284724      -0.00383468      -0.06875804
In       1.05146606       0.22498643       3.30163647        1       0.04284724      -0.00383468       0.06875804
In       1.05146606       2.24555124       5.02406904        2       0.04284724       0.00383468      -0.06875804
In       1.29162060       4.71608892       7.46448923        3      -0.04284724       0.00383468       0.06875804
In       3.39455273       2.24555124       7.46448923        4       0.04284724       0.00383468       0.06875804
In       3.63470726       4.71608892       5.02406904        5      -0.04284724       0.00383468      -0.06875804
In       3.63470726       2.69552410       3.30163647        6      -0.04284724      -0.00383468       0.06875804
In       3.39455273       0.22498643       0.86121628        7       0.04284724      -0.00383468      -0.06875804
O        1.98316685       3.21037339       6.46857208        8      -0.00635899      -0.04871708       0.01519984
O        0.35991981       0.73983572       6.01998619        9       0.00635899      -0.04871708      -0.01519984
O        0.35991981       1.73070195       2.30571932       10       0.00635899       0.04871708       0.01519984
O        1.98316685       4.20123962       1.85713343       11      -0.00635899       0.04871708      -0.01519984
O        2.70300647       1.73070195       1.85713343       12       0.00635899       0.04871708      -0.01519984
O        4.32625351       4.20123962       2.30571932       13      -0.00635899       0.04871708       0.01519984
O        4.32625351       3.21037339       6.01998619       14      -0.00635899      -0.04871708      -0.01519984
O        2.70300647       0.73983572       6.46857208       15       0.00635899      -0.04871708       0.01519984
O        4.39110003       3.70580651      -0.00000000       16      -0.07978327       0.00000000       0.00000000
O        2.63815995       1.23526884       4.16285276       17       0.07978327      -0.00000000       0.00000000
O        0.29507329       1.23526884      -0.00000000       18       0.07978326      -0.00000000      -0.00000000
O        2.04801337       3.70580651       4.16285276       19      -0.07978326       0.00000000       0.00000000
20
Lattice="4.684334465372472 -5.0827462969864504e-57 6.2945658498852994e-43 5.588902790691016e-57 4.941079693367161 -2.7349882254996765e-15 -2.906901245295575e-42 4.157973078261831e-15 8.328966470946709" Properties=species:S:1:pos:R:3:spacegroup_kinds:I:1:forces:R:3 spacegroup="P 1" unit_cell=conventional occupancy="_JSON {\"0\": {\"In\": 1}, \"1\": {\"In\": 1}, \"2\": {\"In\": 1}, \"3\": {\"In\": 1}, \"4\": {\"In\": 1}, \"5\": {\"In\": 1}, \"6\": {\"In\": 1}, \"7\": {\"In\": 1}, \"8\": {\"O\": 1}, \"9\": {\"O\": 1}, \"10\": {\"O\": 1}, \"11\": {\"O\": 1}, \"12\": {\"O\": 1}, \"13\": {\"O\": 1}, \"14\": {\"O\": 1}, \"15\": {\"O\": 1}, \"16\": {\"O\": 1}, \"17\": {\"O\": 1}, \"18\": {\"O\": 1}, \"19\": {\"O\": 1}}" n_minim_iter=9 energy=-22582.876083048235 stress="0.24821909157539945 -9.878753694186706e-12 6.918605982073411e-12 -9.878753694186706e-12 0.24787331205285082 1.015352972308439e-11 6.918605982073411e-12 1.015352972308439e-11 0.2481165806719886" free_energy=-22582.876083048235 pbc="T T T"
In       1.28996234       2.69770237       0.86098571        0       0.00098687      -0.00010792       0.00625759
In       1.05220490       0.22716252       3.30349752        1      -0.00098687      -0.00010792      -0.00625759
In       1.05220490       2.24337732       5.02546895        2      -0.00098687       0.00010792       0.00625759
In       1.28996234       4.71391717       7.46798076        3       0.00098687       0.00010792      -0.00625759
In       3.39437213       2.24337732       7.46798076        4      -0.00098687       0.00010792      -0.00625759
In       3.63212957       4.71391717       5.02546895        5       0.00098687       0.00010792       0.00625759
In       3.63212957       2.69770237       3.30349752        6       0.00098687      -0.00010792      -0.00625759
In       3.39437213       0.22716252       0.86098571        7      -0.00098687      -0.00010792       0.00625759
O        1.98139903       3.20747128       6.47172054        8       0.00530404      -0.02249818       0.00752145
O        0.36076820       0.73693143       6.02172917        9      -0.00530404      -0.02249818      -0.00752145
O        0.36076820       1.73360842       2.30723730       10      -0.00530404       0.02249818       0.00752145
O        1.98139903       4.20414826       1.85724594       11       0.00530404       0.02249818      -0.00752145
O        2.70293544       1.73360842       1.85724594       12      -0.00530404       0.02249818      -0.00752145
O        4.32356626       4.20414826       2.30723730       13       0.00530404       0.02249818       0.00752145
O        4.32356626       3.20747128       6.02172917       14       0.00530404      -0.02249818      -0.00752145
O        2.70293544       0.73693143       6.47172054       15      -0.00530404      -0.02249818       0.00752145
O        4.38413942       3.70580977      -0.00000000       16       0.02321246      -0.00000000      -0.00000000
O        2.64236227       1.23526992       4.16448324       17      -0.02321246       0.00000000      -0.00000000
O        0.30019504       1.23526992      -0.00000000       18      -0.02321246       0.00000000       0.00000000
O        2.04197219       3.70580977       4.16448324       19       0.02321246      -0.00000000       0.00000000
20