20
Lattice="5.67420510892202 -4.503481455656488e-61 1.7079636588685844e-42 4.3515078160069245e-62 5.7818916278019294 -1.164793420050802e-18 -5.338685721306405e-43 -2.669759214760876e-18 8.226477738737458" Properties=species:S:1:pos:R:3:spacegroup_kinds:I:1:forces:R:3 spacegroup="P 1" unit_cell=conventional occupancy="_JSON {\"0\": {\"In\": 1}, \"1\": {\"In\": 1}, \"2\": {\"In\": 1}, \"3\": {\"In\": 1}, \"4\": {\"In\": 1}, \"5\": {\"In\": 1}, \"6\": {\"In\": 1}, \"7\": {\"In\": 1}, \"8\": {\"O\": 1}, \"9\": {\"O\": 1}, \"10\": {\"O\": 1}, \"11\": {\"O\": 1}, \"12\": {\"O\": 1}, \"13\": {\"O\": 1}, \"14\": {\"O\": 1}, \"15\": {\"O\": 1}, \"16\": {\"O\": 1}, \"17\": {\"O\": 1}, \"18\": {\"O\": 1}, \"19\": {\"O\": 1}}" n_minim_iter=5 energy=-22574.902213095153 stress="0.015073815707463708 -7.302162240737598e-12 2.6416873632702598e-12 -7.302162240737598e-12 0.015103296342474634 -7.623099136562425e-13 2.6416873632702598e-12 -7.623099136562425e-13 0.015125076917361556" free_energy=-22574.902213095153 pbc="T T T"
In       1.40507629       3.05431257       0.94074750        0      -0.00115019       0.00148144       0.00069603
In       1.43202626       0.16336676       3.17249137        1       0.00115019       0.00148144      -0.00069603
In       1.43202626       2.72757905       5.05398637        2       0.00115019      -0.00148144       0.00069603
In       1.40507629       5.61852487       7.28573023        3      -0.00115019      -0.00148144      -0.00069603
In       4.26912882       2.72757905       7.28573023        4       0.00115019      -0.00148144      -0.00069603
In       4.24217885       5.61852487       5.05398637        5      -0.00115019      -0.00148144       0.00069603
In       4.24217885       3.05431257       3.17249137        6      -0.00115019       0.00148144      -0.00069603
In       4.26912882       0.16336676       0.94074750        7       0.00115019       0.00148144       0.00069603
O        2.21636542       3.49236327       6.98326212        8       0.00334127       0.00016756       0.00079204
O        0.62073713       0.60141746       5.35645448        9      -0.00334127       0.00016756      -0.00079204
O        0.62073713       2.28952835       2.87002325       10      -0.00334127      -0.00016756       0.00079204
O        2.21636542       5.18047417       1.24321561       11       0.00334127      -0.00016756      -0.00079204
O        3.45783968       2.28952835       1.24321561       12      -0.00334127      -0.00016756      -0.00079204
O        5.05346798       5.18047417       2.87002325       13       0.00334127      -0.00016756       0.00079204
O        5.05346798       3.49236327       5.35645448       14       0.00334127       0.00016756      -0.00079204
O        3.45783968       0.60141746       6.98326212       15      -0.00334127       0.00016756       0.00079204
O        5.43530745       4.33641872      -0.00000000       16       0.00703119       0.00000000      -0.00000000
O        3.07600021       1.44547291       4.11323887       17      -0.00703119       0.00000000       0.00000000
O        0.23889766       1.44547291      -0.00000000       18      -0.00703119      -0.00000000       0.00000000
O        2.59820490       4.33641872       4.11323887       19       0.00703119      -0.00000000      -0.00000000
