20
Lattice="5.887135782612895 -3.10887574807489e-59 9.11306842035239e-43 2.993237451036991e-59 6.056993951287722 4.140906897821207e-17 -4.581535095385567e-43 -7.030902501115099e-17 8.469860929028401" Properties=species:S:1:pos:R:3:spacegroup_kinds:I:1:forces:R:3 spacegroup="P 1" unit_cell=conventional occupancy="_JSON {\"0\": {\"In\": 1}, \"1\": {\"In\": 1}, \"2\": {\"In\": 1}, \"3\": {\"In\": 1}, \"4\": {\"In\": 1}, \"5\": {\"In\": 1}, \"6\": {\"In\": 1}, \"7\": {\"In\": 1}, \"8\": {\"O\": 1}, \"9\": {\"O\": 1}, \"10\": {\"O\": 1}, \"11\": {\"O\": 1}, \"12\": {\"O\": 1}, \"13\": {\"O\": 1}, \"14\": {\"O\": 1}, \"15\": {\"O\": 1}, \"16\": {\"O\": 1}, \"17\": {\"O\": 1}, \"18\": {\"O\": 1}, \"19\": {\"O\": 1}}" n_minim_iter=7 energy=-22573.98152132041 stress="0.04960686086315109 1.230237303023166e-12 -4.000461858757481e-12 1.230237303023166e-12 0.04965942501136337 2.7617189265422014e-12 -4.000461858757481e-12 2.7617189265422014e-12 0.04953395974016438" free_energy=-22573.98152132041 pbc="T T T"
In       1.44452736       3.28311799       0.99514385        0       0.00048402      -0.00615911      -0.00490486
In       1.49904053       0.25462102       3.23978661        1      -0.00048402      -0.00615911       0.00490486
In       1.49904053       2.77387596       5.23007432        2      -0.00048402       0.00615911      -0.00490486
In       1.44452736       5.80237293       7.47471708        3       0.00048402       0.00615911       0.00490486
In       4.44260842       2.77387596       7.47471708        4      -0.00048402       0.00615911       0.00490486
In       4.38809525       5.80237293       5.23007432        5       0.00048402       0.00615911      -0.00490486
In       4.38809525       3.28311799       3.23978661        6       0.00048402      -0.00615911       0.00490486
In       4.44260842       0.25462102       0.99514385        7      -0.00048402      -0.00615911      -0.00490486
O        2.30790119       3.58595946       7.19557279        8      -0.00250380       0.00495658      -0.00393665
O        0.63566670       0.55746249       5.50921861        9       0.00250380       0.00495658       0.00393665
O        0.63566670       2.47103449       2.96064232       10       0.00250380      -0.00495658      -0.00393665
O        2.30790119       5.49953146       1.27428814       11      -0.00250380      -0.00495658       0.00393665
O        3.57923459       2.47103449       1.27428814       12       0.00250380      -0.00495658       0.00393665
O        5.25146908       5.49953146       2.96064232       13      -0.00250380      -0.00495658      -0.00393665
O        5.25146908       3.58595946       5.50921861       14      -0.00250380       0.00495658       0.00393665
O        3.57923459       0.55746249       7.19557279       15       0.00250380       0.00495658      -0.00393665
O        5.60525626       4.54274546       0.00000000       16       0.00046216      -0.00000000       0.00000000
O        3.22544741       1.51424849       4.23493046       17      -0.00046216      -0.00000000       0.00000000
O        0.28187952       1.51424849       0.00000000       18      -0.00046216       0.00000000      -0.00000000
O        2.66168837       4.54274546       4.23493046       19       0.00046216      -0.00000000      -0.00000000
