40
Lattice="5.625117834078715 -1.9269218049339528e-43 0.0 9.558463557608349e-44 5.819544203581484 0.0 0.0 0.0 16.303577987024827" Properties=species:S:1:pos:R:3:spacegroup_kinds:I:1:forces:R:3 spacegroup="P 1" unit_cell=conventional occupancy="_JSON {\"0\": {\"In\": 1}, \"1\": {\"In\": 1}, \"2\": {\"In\": 1}, \"3\": {\"In\": 1}, \"4\": {\"In\": 1}, \"5\": {\"In\": 1}, \"6\": {\"In\": 1}, \"7\": {\"In\": 1}, \"8\": {\"In\": 1}, \"9\": {\"In\": 1}, \"10\": {\"In\": 1}, \"11\": {\"In\": 1}, \"12\": {\"In\": 1}, \"13\": {\"In\": 1}, \"14\": {\"In\": 1}, \"15\": {\"In\": 1}, \"16\": {\"O\": 1}, \"17\": {\"O\": 1}, \"18\": {\"O\": 1}, \"19\": {\"O\": 1}, \"20\": {\"O\": 1}, \"21\": {\"O\": 1}, \"22\": {\"O\": 1}, \"23\": {\"O\": 1}, \"24\": {\"O\": 1}, \"25\": {\"O\": 1}, \"26\": {\"O\": 1}, \"27\": {\"O\": 1}, \"28\": {\"O\": 1}, \"29\": {\"O\": 1}, \"30\": {\"O\": 1}, \"31\": {\"O\": 1}, \"32\": {\"O\": 1}, \"33\": {\"O\": 1}, \"34\": {\"O\": 1}, \"35\": {\"O\": 1}, \"36\": {\"O\": 1}, \"37\": {\"O\": 1}, \"38\": {\"O\": 1}, \"39\": {\"O\": 1}}" n_minim_iter=7 energy=-45150.13344145709 stress="0.023603425058272537 -2.75028426287599e-13 -3.16985098378194e-13 -2.75028426287599e-13 0.023620400859794697 2.405172597579509e-13 -3.16985098378194e-13 2.405172597579509e-13 0.02366718802919426" free_energy=-45150.13344145709 pbc="T T T"
In       2.80836648       4.65155780       9.30611395        0       0.00479268      -0.00568582       0.00479346
In      -0.00419244       4.07775851       6.99746403        1       0.00479268       0.00568582      -0.00479346
In       2.81675136       1.74178569      15.14925303        2      -0.00479268      -0.00568582      -0.00479346
In       5.62931028       1.16798641       1.15432496        3      -0.00479268       0.00568582       0.00479346
In       2.81675136       1.16798641       6.99746403        4      -0.00479268       0.00568582      -0.00479346
In       5.62931028       1.74178569       9.30611395        5      -0.00479268      -0.00568582       0.00479346
In       2.80836648       4.07775851       1.15432496        6       0.00479268       0.00568582       0.00479346
In      -0.00419244       4.65155780      15.14925303        7       0.00479268      -0.00568582      -0.00479346
In       2.79458717       4.34216072      13.33920478        8      -0.00122569       0.00362540      -0.00678519
In       5.60714609       4.38715559       2.96437320        9      -0.00122569      -0.00362540       0.00678519
In       2.83053066       1.43238862      11.11616220       10       0.00122569       0.00362540       0.00678519
In       0.01797174       1.47738348       5.18741579       11       0.00122569      -0.00362540      -0.00678519
In       2.83053066       1.47738348       2.96437320       12       0.00122569      -0.00362540       0.00678519
In       0.01797174       1.43238862      13.33920478       13       0.00122569       0.00362540      -0.00678519
In       2.79458717       4.38715559       5.18741579       14      -0.00122569      -0.00362540      -0.00678519
In       5.60714609       4.34216072      11.11616220       15      -0.00122569       0.00362540       0.00678519
O        4.83252456       5.11574468      13.01310926       16      -0.00064793       0.00288156       0.00012892
O        2.01996564       3.61357163       3.29046872       17      -0.00064793      -0.00288156      -0.00012892
O        0.79259328       2.20597258      11.44225772       18       0.00064793       0.00288156      -0.00012892
O        3.60515220       0.70379952       4.86132027       19       0.00064793      -0.00288156       0.00012892
O        0.79259328       0.70379952       3.29046872       20       0.00064793      -0.00288156      -0.00012892
O        3.60515220       2.20597258      13.01310926       21       0.00064793       0.00288156       0.00012892
O        4.83252456       3.61357163       4.86132027       22      -0.00064793      -0.00288156       0.00012892
O        2.01996564       5.11574468      11.44225772       23      -0.00064793       0.00288156      -0.00012892
O        3.96647159       3.06734311      10.18184210       24       0.00016257       0.00937262      -0.00029990
O        1.15391267       5.66197319       6.12173589       25       0.00016257      -0.00937262       0.00029990
O        1.65864624       0.15757101      14.27352488       26      -0.00016257       0.00937262       0.00029990
O        4.47120516       2.75220109       2.03005311       27      -0.00016257      -0.00937262      -0.00029990
O        1.65864624       2.75220109       6.12173589       28      -0.00016257      -0.00937262       0.00029990
O        4.47120516       0.15757101      10.18184210       29      -0.00016257       0.00937262      -0.00029990
O        3.96647159       5.66197319       2.03005311       30       0.00016257      -0.00937262      -0.00029990
O        1.15391267       3.06734311      14.27352488       31       0.00016257       0.00937262       0.00029990
O        3.63917269       3.84263956      15.45876811       32      -0.00517258       0.00085725      -0.00618321
O        0.82661378       4.88667674       0.84480988       33      -0.00517258      -0.00085725       0.00618321
O        1.98594514       0.93286746       8.99659887       34       0.00517258       0.00085725       0.00618321
O        4.79850406       1.97690464       7.30697911       35       0.00517258      -0.00085725      -0.00618321
O        1.98594514       1.97690464       0.84480988       36       0.00517258      -0.00085725       0.00618321
O        4.79850406       0.93286746      15.45876811       37       0.00517258       0.00085725      -0.00618321
O        3.63917269       4.88667674       7.30697911       38      -0.00517258      -0.00085725      -0.00618321
O        0.82661378       3.84263956       8.99659887       39      -0.00517258       0.00085725       0.00618321
