40
Lattice="5.538338027425729 -1.0620948188960645e-43 0.0 1.0976534543446054e-43 5.723760024976491 0.0 0.0 0.0 16.014869168034426" Properties=species:S:1:pos:R:3:spacegroup_kinds:I:1:forces:R:3 spacegroup="P 1" unit_cell=conventional occupancy="_JSON {\"0\": {\"In\": 1}, \"1\": {\"In\": 1}, \"2\": {\"In\": 1}, \"3\": {\"In\": 1}, \"4\": {\"In\": 1}, \"5\": {\"In\": 1}, \"6\": {\"In\": 1}, \"7\": {\"In\": 1}, \"8\": {\"In\": 1}, \"9\": {\"In\": 1}, \"10\": {\"In\": 1}, \"11\": {\"In\": 1}, \"12\": {\"In\": 1}, \"13\": {\"In\": 1}, \"14\": {\"In\": 1}, \"15\": {\"In\": 1}, \"16\": {\"O\": 1}, \"17\": {\"O\": 1}, \"18\": {\"O\": 1}, \"19\": {\"O\": 1}, \"20\": {\"O\": 1}, \"21\": {\"O\": 1}, \"22\": {\"O\": 1}, \"23\": {\"O\": 1}, \"24\": {\"O\": 1}, \"25\": {\"O\": 1}, \"26\": {\"O\": 1}, \"27\": {\"O\": 1}, \"28\": {\"O\": 1}, \"29\": {\"O\": 1}, \"30\": {\"O\": 1}, \"31\": {\"O\": 1}, \"32\": {\"O\": 1}, \"33\": {\"O\": 1}, \"34\": {\"O\": 1}, \"35\": {\"O\": 1}, \"36\": {\"O\": 1}, \"37\": {\"O\": 1}, \"38\": {\"O\": 1}, \"39\": {\"O\": 1}}" n_minim_iter=1 energy=-45150.11088383277 stress="-0.028984169323172916 -5.6265928447668357e-14 7.335161041161112e-14 -5.6265928447668357e-14 -0.02863328212142812 -6.337037448132723e-13 7.335161041161112e-14 -6.337037448132723e-13 -0.026857812798169827" free_energy=-45150.11088383277 pbc="T T T"
In       2.76589682       4.56970424       9.14036164        0       0.01442203       0.02990799       0.00842754
In      -0.00327220       4.01593580       6.87450753        1       0.01442203      -0.02990799      -0.00842754
In       2.77244121       1.70782423      14.88194211        2      -0.01442203       0.02990799      -0.00842754
In       5.54161023       1.15405578       1.13292706        3      -0.01442203      -0.02990799       0.00842754
In       2.77244121       1.15405578       6.87450753        4      -0.01442203      -0.02990799      -0.00842754
In       5.54161023       1.70782423       9.14036164        5      -0.01442203       0.02990799       0.00842754
In       2.76589682       4.01593580       1.13292706        6       0.01442203      -0.02990799       0.00842754
In      -0.00327220       4.56970424      14.88194211        7       0.01442203       0.02990799      -0.00842754
In       2.75464411       4.27060409      13.10414456        8       0.03890745      -0.02876285       0.01777599
In       5.52381312       4.31503595       2.91072461        9       0.03890745       0.02876285      -0.01777599
In       2.78369392       1.40872408      10.91815920       10      -0.03890745      -0.02876285      -0.01777599
In       0.01452491       1.45315594       5.09670997       11      -0.03890745       0.02876285       0.01777599
In       2.78369392       1.45315594       2.91072461       12      -0.03890745       0.02876285      -0.01777599
In       0.01452491       1.40872408      13.10414456       13      -0.03890745      -0.02876285       0.01777599
In       2.75464411       4.31503595       5.09670997       14       0.03890745       0.02876285       0.01777599
In       5.52381312       4.27060409      10.91815920       15       0.03890745      -0.02876285      -0.01777599
O        4.75900710       5.03689915      12.78299237       16       0.01666391       0.04633084       0.02887038
O        1.98983809       3.54874088       3.23187680       17       0.01666391      -0.04633084      -0.02887038
O        0.77933092       2.17501914      11.23931139       18      -0.01666391       0.04633084      -0.02887038
O        3.54849994       0.68686087       4.77555778       19      -0.01666391      -0.04633084       0.02887038
O        0.77933092       0.68686087       3.23187680       20      -0.01666391      -0.04633084      -0.02887038
O        3.54849994       2.17501914      12.78299237       21      -0.01666391       0.04633084       0.02887038
O        4.75900710       3.54874088       4.77555778       22       0.01666391      -0.04633084       0.02887038
O        1.98983809       5.03689915      11.23931139       23       0.01666391       0.04633084      -0.02887038
O        3.91253753       3.01283226      10.00110350       24       0.07316993      -0.02866276       0.01431009
O        1.14336852       5.57280778       6.01376567       25       0.07316993       0.02866276      -0.01431009
O        1.62580049       0.15095224      14.02120025       26      -0.07316993      -0.02866276      -0.01431009
O        4.39496951       2.71092777       1.99366892       27      -0.07316993       0.02866276       0.01431009
O        1.62580049       2.71092777       6.01376567       28      -0.07316993       0.02866276      -0.01431009
O        4.39496951       0.15095224      10.00110350       29      -0.07316993      -0.02866276       0.01431009
O        3.91253753       5.57280778       1.99366892       30       0.07316993       0.02866276       0.01431009
O        1.14336852       3.01283226      14.02120025       31       0.07316993      -0.02866276      -0.01431009
O        3.57934021       3.77592951      15.17857259       32      -0.05719716      -0.04098462      -0.06617821
O        0.81017119       4.80971052       0.83629658       33      -0.05719716       0.04098462       0.06617821
O        1.95899782       0.91404950       8.84373117       34       0.05719716      -0.04098462       0.06617821
O        4.72816684       1.94783051       7.17113800       35       0.05719716       0.04098462      -0.06617821
O        1.95899782       1.94783051       0.83629658       36       0.05719716       0.04098462       0.06617821
O        4.72816684       0.91404950      15.17857259       37       0.05719716      -0.04098462      -0.06617821
O        3.57934021       4.80971052       7.17113800       38      -0.05719716       0.04098462      -0.06617821
O        0.81017119       3.77592951       8.84373117       39      -0.05719716      -0.04098462       0.06617821
40
Lattice="5.543558178577273 -1.0726766037422327e-43 0.0 1.143748025263371e-43 5.7268618468014045 0.0 0.0 0.0 15.99112268011431" Properties=species:S:1:pos:R:3:spacegroup_kinds:I:1:forces:R:3 spacegroup="P 1" unit_cell=conventional occupancy="_JSON {\"0\": {\"In\": 1}, \"1\": {\"In\": 1}, \"2\": {\"In\": 1}, \"3\": {\"In\": 1}, \"4\": {\"In\": 1}, \"5\": {\"In\": 1}, \"6\": {\"In\": 1}, \"7\": {\"In\": 1}, \"8\": {\"In\": 1}, \"9\": {\"In\": 1}, \"10\": {\"In\": 1}, \"11\": {\"In\": 1}, \"12\": {\"In\": 1}, \"13\": {\"In\": 1}, \"14\": {\"In\": 1}, \"15\": {\"In\": 1}, \"16\": {\"O\": 1}, \"17\": {\"O\": 1}, \"18\": {\"O\": 1}, \"19\": {\"O\": 1}, \"20\": {\"O\": 1}, \"21\": {\"O\": 1}, \"22\": {\"O\": 1}, \"23\": {\"O\": 1}, \"24\": {\"O\": 1}, \"25\": {\"O\": 1}, \"26\": {\"O\": 1}, \"27\": {\"O\": 1}, \"28\": {\"O\": 1}, \"29\": {\"O\": 1}, \"30\": {\"O\": 1}, \"31\": {\"O\": 1}, \"32\": {\"O\": 1}, \"33\": {\"O\": 1}, \"34\": {\"O\": 1}, \"35\": {\"O\": 1}, \"36\": {\"O\": 1}, \"37\": {\"O\": 1}, \"38\": {\"O\": 1}, \"39\": {\"O\": 1}}" n_minim_iter=2 energy=-45150.111838609766 stress="-0.027701014603642837 -7.094561313167294e-14 -8.941281873102255e-14 -7.094561313167294e-14 -0.02797821722693675 5.341466770056507e-16 -8.941281873102255e-14 5.341466770056507e-16 -0.02834159123000895" free_energy=-45150.111838609766 pbc="T T T"
In       2.76853625       4.57224791       9.12682743        0       0.00062415       0.01974979       0.02015009
In      -0.00324284       4.01804486       6.86429525        1       0.00062415      -0.01974979      -0.02015009
In       2.77502193       1.70881698      14.85985659        2      -0.00062415       0.01974979      -0.02015009
In       5.54680102       1.15461394       1.13126609        3      -0.00062415      -0.01974979       0.02015009
In       2.77502193       1.15461394       6.86429525        4      -0.00062415      -0.01974979      -0.02015009
In       5.54680102       1.70881698       9.12682743        5      -0.00062415       0.01974979       0.02015009
In       2.76853625       4.01804486       1.13126609        6       0.00062415      -0.01974979       0.02015009
In      -0.00324284       4.57224791      14.85985659        7       0.00062415       0.01974979      -0.02015009
In       2.75732801       4.27285374      13.08475392        8       0.04950519      -0.02820849       0.02246199
In       5.52910710       4.31743903       2.90636876        9       0.04950519       0.02820849      -0.02246199
In       2.78623017       1.40942282      10.90193010       10      -0.04950519      -0.02820849      -0.02246199
In       0.01445108       1.45400811       5.08919258       11      -0.04950519       0.02820849       0.02246199
In       2.78623017       1.45400811       2.90636876       12      -0.04950519       0.02820849      -0.02246199
In       0.01445108       1.40942282      13.08475392       13      -0.04950519      -0.02820849       0.02246199
In       2.75732801       4.31743903       5.08919258       14       0.04950519       0.02820849       0.02246199
In       5.52910710       4.27285374      10.90193010       15       0.04950519      -0.02820849      -0.02246199
O        4.76353018       5.03973293      12.76410282       16       0.01017005       0.04482839       0.03317303
O        1.99175109       3.55055984       3.22701986       17       0.01017005      -0.04482839      -0.03317303
O        0.78002799       2.17630201      11.22258120       18      -0.01017005       0.04482839      -0.03317303
O        3.55180708       0.68712892       4.76854148       19      -0.01017005      -0.04482839       0.03317303
O        0.78002799       0.68712892       3.22701986       20      -0.01017005      -0.04482839      -0.03317303
O        3.55180708       2.17630201      12.76410282       21      -0.01017005       0.04482839       0.03317303
O        4.76353018       3.55055984       4.76854148       22       0.01017005      -0.04482839       0.03317303
O        1.99175109       5.03973293      11.22258120       23       0.01017005       0.04482839      -0.03317303
O        3.91638988       3.01440052       9.98630620       24       0.06836447      -0.02453769       0.01200218
O        1.14461079       5.57589225       6.00481648       25       0.06836447       0.02453769      -0.01200218
O        1.62716830       0.15096960      14.00037782       26      -0.06836447      -0.02453769      -0.01200218
O        4.39894739       2.71246133       1.99074486       27      -0.06836447       0.02453769       0.01200218
O        1.62716830       2.71246133       6.00481648       28      -0.06836447       0.02453769      -0.01200218
O        4.39894739       0.15096960       9.98630620       29      -0.06836447      -0.02453769       0.01200218
O        3.91638988       5.57589225       1.99074486       30       0.06836447       0.02453769       0.01200218
O        1.14461079       3.01440052      14.00037782       31       0.06836447      -0.02453769      -0.01200218
O        3.58258524       3.77788361      15.15591763       32      -0.04545073      -0.03820810      -0.07688287
O        0.81080616       4.81240916       0.83520505       33      -0.04545073       0.03820810       0.07688287
O        1.96097293       0.91445269       8.83076639       34       0.04545073      -0.03820810       0.07688287
O        4.73275202       1.94897824       7.16035629       35       0.04545073       0.03820810      -0.07688287
O        1.96097293       1.94897824       0.83520505       36       0.04545073       0.03820810       0.07688287
O        4.73275202       0.91445269      15.15591763       37       0.04545073      -0.03820810      -0.07688287
O        3.58258524       4.81240916       7.16035629       38      -0.04545073       0.03820810      -0.07688287
O        0.81080616       3.77788361       8.83076639       39      -0.04545073      -0.03820810       0.07688287
40
Lattice="5.5357044617834585 -1.0706357993606108e-43 0.0 1.1457654017492608e-43 5.737623533263824 0.0 0.0 0.0 15.983773841401254" Properties=species:S:1:pos:R:3:spacegroup_kinds:I:1:forces:R:3 spacegroup="P 1" unit_cell=conventional occupancy="_JSON {\"0\": {\"In\": 1}, \"1\": {\"In\": 1}, \"2\": {\"In\": 1}, \"3\": {\"In\": 1}, \"4\": {\"In\": 1}, \"5\": {\"In\": 1}, \"6\": {\"In\": 1}, \"7\": {\"In\": 1}, \"8\": {\"In\": 1}, \"9\": {\"In\": 1}, \"10\": {\"In\": 1}, \"11\": {\"In\": 1}, \"12\": {\"In\": 1}, \"13\": {\"In\": 1}, \"14\": {\"In\": 1}, \"15\": {\"In\": 1}, \"16\": {\"O\": 1}, \"17\": {\"O\": 1}, \"18\": {\"O\": 1}, \"19\": {\"O\": 1}, \"20\": {\"O\": 1}, \"21\": {\"O\": 1}, \"22\": {\"O\": 1}, \"23\": {\"O\": 1}, \"24\": {\"O\": 1}, \"25\": {\"O\": 1}, \"26\": {\"O\": 1}, \"27\": {\"O\": 1}, \"28\": {\"O\": 1}, \"29\": {\"O\": 1}, \"30\": {\"O\": 1}, \"31\": {\"O\": 1}, \"32\": {\"O\": 1}, \"33\": {\"O\": 1}, \"34\": {\"O\": 1}, \"35\": {\"O\": 1}, \"36\": {\"O\": 1}, \"37\": {\"O\": 1}, \"38\": {\"O\": 1}, \"39\": {\"O\": 1}}" n_minim_iter=3 energy=-45150.11609120344 stress="-0.028315705128311806 5.526674066169546e-13 3.401968123811058e-13 5.526674066169546e-13 -0.02612329323915952 4.643289498459972e-13 3.401968123811058e-13 4.643289498459972e-13 -0.02769426397614952" free_energy=-45150.11609120344 pbc="T T T"
In       2.76478016       4.58185243       9.12344051        0       0.01608279      -0.01913211       0.01210573
In      -0.00307207       4.02458287       6.86033333        1       0.01608279       0.01913211      -0.01210573
In       2.77092430       1.71304066      14.85222025        2      -0.01608279      -0.01913211      -0.01210573
In       5.53877653       1.15577110       1.13155359        3      -0.01608279       0.01913211       0.01210573
In       2.77092430       1.15577110       6.86033333        4      -0.01608279       0.01913211      -0.01210573
In       5.53877653       1.71304066       9.12344051        5      -0.01608279      -0.01913211       0.01210573
In       2.76478016       4.02458287       1.13155359        6       0.01608279       0.01913211       0.01210573
In      -0.00307207       4.58185243      14.85222025        7       0.01608279      -0.01913211      -0.01210573
In       2.75559381       4.27957633      13.07972412        8       0.01130082      -0.00090488      -0.00329626
In       5.52344604       4.32685897       2.90404972        9       0.01130082       0.00090488       0.00329626
In       2.78011065       1.41076457      10.89593664       10      -0.01130082      -0.00090488       0.00329626
In       0.01225842       1.45804720       5.08783720       11      -0.01130082       0.00090488      -0.00329626
In       2.78011065       1.45804720       2.90404972       12      -0.01130082       0.00090488       0.00329626
In       0.01225842       1.41076457      13.07972412       13      -0.01130082      -0.00090488      -0.00329626
In       2.75559381       4.32685897       5.08783720       14       0.01130082       0.00090488      -0.00329626
In       5.52344604       4.27957633      10.89593664       15       0.01130082      -0.00090488       0.00329626
O        4.75731418       5.05128631      12.75971536       16       0.00917989       0.02167582      -0.00672152
O        1.98946195       3.55514899       3.22405849       17       0.00917989      -0.02167582       0.00672152
O        0.77839028       2.18247455      11.21594541       18      -0.00917989       0.02167582       0.00672152
O        3.54624251       0.68633722       4.76782843       19      -0.00917989      -0.02167582      -0.00672152
O        0.77839028       0.68633722       3.22405849       20      -0.00917989      -0.02167582       0.00672152
O        3.54624251       2.18247455      12.75971536       21      -0.00917989       0.02167582      -0.00672152
O        4.75731418       3.55514899       4.76782843       22       0.00917989      -0.02167582      -0.00672152
O        1.98946195       5.05128631      11.21594541       23       0.00917989       0.02167582       0.00672152
O        3.91403478       3.01889194       9.98229025       24       0.01079006      -0.00596507      -0.00116685
O        1.14618255       5.58754336       6.00148359       25       0.01079006       0.00596507       0.00116685
O        1.62166968       0.15008017      13.99337051       26      -0.01079006      -0.00596507       0.00116685
O        4.38952191       2.71873160       1.99040333       27      -0.01079006       0.00596507      -0.00116685
O        1.62166968       2.71873160       6.00148359       28      -0.01079006       0.00596507       0.00116685
O        4.38952191       0.15008017       9.98229025       29      -0.01079006      -0.00596507      -0.00116685
O        3.91403478       5.58754336       1.99040333       30       0.01079006       0.00596507      -0.00116685
O        1.14618255       3.01889194      13.99337051       31       0.01079006      -0.00596507       0.00116685
O        3.57530146       3.78319260      15.14553358       32      -0.01796237      -0.01935066      -0.02737777
O        0.80744923       4.82324270       0.83824026       33      -0.01796237       0.01935066       0.02737777
O        1.96040300       0.91438083       8.83012718       34       0.01796237      -0.01935066       0.02737777
O        4.72825523       1.95443094       7.15364666       35       0.01796237       0.01935066      -0.02737777
O        1.96040300       1.95443094       0.83824026       36       0.01796237       0.01935066       0.02737777
O        4.72825523       0.91438083      15.14553358       37       0.01796237      -0.01935066      -0.02737777
O        3.57530146       4.82324270       7.15364666       38      -0.01796237       0.01935066      -0.02737777
O        0.80744923       3.78319260       8.83012718       39      -0.01796237      -0.01935066       0.02737777
40
Lattice="5.541864626004564 -5.924184066163153e-44 0.0 1.8761957503406357e-43 5.7294053456419345 0.0 0.0 0.0 15.988908217047358" Properties=species:S:1:pos:R:3:spacegroup_kinds:I:1:forces:R:3 spacegroup="P 1" unit_cell=conventional occupancy="_JSON {\"0\": {\"In\": 1}, \"1\": {\"In\": 1}, \"2\": {\"In\": 1}, \"3\": {\"In\": 1}, \"4\": {\"In\": 1}, \"5\": {\"In\": 1}, \"6\": {\"In\": 1}, \"7\": {\"In\": 1}, \"8\": {\"In\": 1}, \"9\": {\"In\": 1}, \"10\": {\"In\": 1}, \"11\": {\"In\": 1}, \"12\": {\"In\": 1}, \"13\": {\"In\": 1}, \"14\": {\"In\": 1}, \"15\": {\"In\": 1}, \"16\": {\"O\": 1}, \"17\": {\"O\": 1}, \"18\": {\"O\": 1}, \"19\": {\"O\": 1}, \"20\": {\"O\": 1}, \"21\": {\"O\": 1}, \"22\": {\"O\": 1}, \"23\": {\"O\": 1}, \"24\": {\"O\": 1}, \"25\": {\"O\": 1}, \"26\": {\"O\": 1}, \"27\": {\"O\": 1}, \"28\": {\"O\": 1}, \"29\": {\"O\": 1}, \"30\": {\"O\": 1}, \"31\": {\"O\": 1}, \"32\": {\"O\": 1}, \"33\": {\"O\": 1}, \"34\": {\"O\": 1}, \"35\": {\"O\": 1}, \"36\": {\"O\": 1}, \"37\": {\"O\": 1}, \"38\": {\"O\": 1}, \"39\": {\"O\": 1}}" n_minim_iter=4 energy=-45150.117150711936 stress="-0.027177919693637784 -3.714166229626251e-13 1.586500235822717e-13 -3.714166229626251e-13 -0.02726176021067491 3.1262385816717296e-13 1.586500235822717e-13 3.1262385816717296e-13 -0.027226529425021236" free_energy=-45150.117150711936 pbc="T T T"
In       2.76794827       4.57548808       9.12661124        0       0.01120894      -0.04091303      -0.00190378
In      -0.00298404       4.01861994       6.86229698        1       0.01120894       0.04091303       0.00190378
In       2.77391635       1.71078540      14.85675109        2      -0.01120894      -0.04091303       0.00190378
In       5.54484867       1.15391727       1.13215713        3      -0.01120894       0.04091303      -0.00190378
In       2.77391635       1.15391727       6.86229698        4      -0.01120894       0.04091303       0.00190378
In       5.54484867       1.71078540       9.12661124        5      -0.01120894      -0.04091303      -0.00190378
In       2.76794827       4.01861994       1.13215713        6       0.01120894       0.04091303      -0.00190378
In      -0.00298404       4.57548808      14.85675109        7       0.01120894      -0.04091303       0.00190378
In       2.75924385       4.27311369      13.08416430        8       0.00854841       0.01723887      -0.01708156
In       5.53017617       4.32099433       2.90474392        9       0.00854841      -0.01723887       0.01708156
In       2.78262077       1.40841102      10.89919803       10      -0.00854841       0.01723887       0.01708156
In       0.01168846       1.45629166       5.08971019       11      -0.00854841      -0.01723887      -0.01708156
In       2.78262077       1.45629166       2.90474392       12      -0.00854841      -0.01723887       0.01708156
In       0.01168846       1.40841102      13.08416430       13      -0.00854841       0.01723887      -0.01708156
In       2.75924385       4.32099433       5.08971019       14       0.00854841      -0.01723887      -0.01708156
In       5.53017617       4.27311369      10.89919803       15       0.00854841       0.01723887       0.01708156
O        4.76277112       5.04464309      12.76416771       16       0.00826824       0.01195323      -0.01731290
O        1.99183881       3.54946493       3.22474051       17       0.00826824      -0.01195323       0.01731290
O        0.77909350       2.17994042      11.21919462       18      -0.00826824       0.01195323       0.01731290
O        3.55002581       0.68476226       4.76971360       19      -0.00826824      -0.01195323      -0.01731290
O        0.77909350       0.68476226       3.22474051       20      -0.00826824      -0.01195323       0.01731290
O        3.55002581       2.17994042      12.76416771       21      -0.00826824       0.01195323      -0.01731290
O        4.76277112       3.54946493       4.76971360       22       0.00826824      -0.01195323      -0.01731290
O        1.99183881       5.04464309      11.21919462       23       0.00826824       0.01195323       0.01731290
O        3.91923189       3.01425324       9.98563850       24       0.00089289      -0.00554296      -0.00139545
O        1.14829958       5.57985478       6.00326971       25       0.00089289       0.00554296       0.00139545
O        1.62263273       0.14955056      13.99772382       26      -0.00089289      -0.00554296       0.00139545
O        4.39356504       2.71515211       1.99118440       27      -0.00089289       0.00554296      -0.00139545
O        1.62263273       2.71515211       6.00326971       28      -0.00089289       0.00554296       0.00139545
O        4.39356504       0.14955056       9.98563850       29      -0.00089289      -0.00554296      -0.00139545
O        3.91923189       5.57985478       1.99118440       30       0.00089289       0.00554296      -0.00139545
O        1.14829958       3.01425324      13.99772382       31       0.00089289      -0.00554296       0.00139545
O        3.57866594       3.77726280      15.14945177       32      -0.00465280      -0.00315350      -0.01201423
O        0.80773362       4.81684522       0.83945645       33      -0.00465280       0.00315350       0.01201423
O        1.96319869       0.91256013       8.83391056       34       0.00465280      -0.00315350       0.01201423
O        4.73413100       1.95214255       7.15499766       35       0.00465280       0.00315350      -0.01201423
O        1.96319869       1.95214255       0.83945645       36       0.00465280       0.00315350       0.01201423
O        4.73413100       0.91256013      15.14945177       37       0.00465280      -0.00315350      -0.01201423
O        3.57866594       4.81684522       7.15499766       38      -0.00465280       0.00315350      -0.01201423
O        0.80773362       3.77726280       8.83391056       39      -0.00465280      -0.00315350       0.01201423
40
Lattice="5.542314165272345 -4.039784432068435e-43 0.0 1.8760279357919744e-43 5.728942151141045 0.0 0.0 0.0 15.98890397542084" Properties=species:S:1:pos:R:3:spacegroup_kinds:I:1:forces:R:3 spacegroup="P 1" unit_cell=conventional occupancy="_JSON {\"0\": {\"In\": 1}, \"1\": {\"In\": 1}, \"2\": {\"In\": 1}, \"3\": {\"In\": 1}, \"4\": {\"In\": 1}, \"5\": {\"In\": 1}, \"6\": {\"In\": 1}, \"7\": {\"In\": 1}, \"8\": {\"In\": 1}, \"9\": {\"In\": 1}, \"10\": {\"In\": 1}, \"11\": {\"In\": 1}, \"12\": {\"In\": 1}, \"13\": {\"In\": 1}, \"14\": {\"In\": 1}, \"15\": {\"In\": 1}, \"16\": {\"O\": 1}, \"17\": {\"O\": 1}, \"18\": {\"O\": 1}, \"19\": {\"O\": 1}, \"20\": {\"O\": 1}, \"21\": {\"O\": 1}, \"22\": {\"O\": 1}, \"23\": {\"O\": 1}, \"24\": {\"O\": 1}, \"25\": {\"O\": 1}, \"26\": {\"O\": 1}, \"27\": {\"O\": 1}, \"28\": {\"O\": 1}, \"29\": {\"O\": 1}, \"30\": {\"O\": 1}, \"31\": {\"O\": 1}, \"32\": {\"O\": 1}, \"33\": {\"O\": 1}, \"34\": {\"O\": 1}, \"35\": {\"O\": 1}, \"36\": {\"O\": 1}, \"37\": {\"O\": 1}, \"38\": {\"O\": 1}, \"39\": {\"O\": 1}}" n_minim_iter=5 energy=-45150.11834790611 stress="-0.02710103777368792 1.8007030309650898e-13 2.861151720719296e-13 1.8007030309650898e-13 -0.026983934210598352 1.0469635705346406e-13 2.861151720719296e-13 1.0469635705346406e-13 -0.02696623571754514" free_energy=-45150.11834790611 pbc="T T T"
In       2.76909327       4.57240288       9.12673767        0      -0.00123095      -0.01455997      -0.01531158
In      -0.00206381       4.02101035       6.86216630        1      -0.00123095       0.01455997       0.01531158
In       2.77322089       1.70793180      14.85661829        2       0.00123095      -0.01455997       0.01531158
In       5.54437797       1.15653927       1.13228569        3       0.00123095       0.01455997      -0.01531158
In       2.77322089       1.15653927       6.86216630        4       0.00123095       0.01455997       0.01531158
In       5.54437797       1.70793180       9.12673767        5       0.00123095      -0.01455997      -0.01531158
In       2.76909327       4.02101035       1.13228569        6      -0.00123095       0.01455997      -0.01531158
In      -0.00206381       4.57240288      14.85661829        7      -0.00123095      -0.01455997       0.01531158
In       2.76073661       4.27363194      13.08320436        8      -0.00060522       0.00901780      -0.00099124
In       5.53189369       4.31978129       2.90569961        9      -0.00060522      -0.00901780       0.00099124
In       2.78157755       1.40916087      10.90015160       10       0.00060522       0.00901780       0.00099124
In       0.01042047       1.45531021       5.08875238       11       0.00060522      -0.00901780      -0.00099124
In       2.78157755       1.45531021       2.90569961       12       0.00060522      -0.00901780       0.00099124
In       0.01042047       1.40916087      13.08320436       13       0.00060522       0.00901780      -0.00099124
In       2.76073661       4.31978129       5.08875238       14      -0.00060522      -0.00901780      -0.00099124
In       5.53189369       4.27363194      10.90015160       15      -0.00060522       0.00901780       0.00099124
O        4.76394170       5.04576799      12.76332112       16       0.00463231       0.00535287      -0.01110448
O        1.99278462       3.54764524       3.22558285       17       0.00463231      -0.00535287       0.01110448
O        0.77837246       2.18129691      11.22003484       18      -0.00463231       0.00535287       0.01110448
O        3.54952954       0.68317416       4.76886914       19      -0.00463231      -0.00535287      -0.01110448
O        0.77837246       0.68317416       3.22558285       20      -0.00463231      -0.00535287       0.01110448
O        3.54952954       2.18129691      12.76332112       21      -0.00463231       0.00535287      -0.01110448
O        4.76394170       3.54764524       4.76886914       22       0.00463231      -0.00535287      -0.01110448
O        1.99278462       5.04576799      11.22003484       23       0.00463231       0.00535287       0.01110448
O        3.92056986       3.01325162       9.98569753       24      -0.00145136      -0.01031538       0.00328179
O        1.14941278       5.58016160       6.00320644       25      -0.00145136       0.01031538      -0.00328179
O        1.62174431       0.14878055      13.99765843       26       0.00145136      -0.01031538      -0.00328179
O        4.39290139       2.71569053       1.99124555       27       0.00145136       0.01031538       0.00328179
O        1.62174431       2.71569053       6.00320644       28       0.00145136       0.01031538      -0.00328179
O        4.39290139       0.14878055       9.98569753       29       0.00145136      -0.01031538       0.00328179
O        3.92056986       5.58016160       1.99124555       30      -0.00145136       0.01031538       0.00328179
O        1.14941278       3.01325162      13.99765843       31      -0.00145136      -0.01031538      -0.00328179
O        3.57791746       3.77614877      15.14752090       32       0.00431478       0.00008855       0.00345687
O        0.80676038       4.81726446       0.84138307       33       0.00431478      -0.00008855      -0.00345687
O        1.96439670       0.91167769       8.83583506       34      -0.00431478       0.00008855      -0.00345687
O        4.73555378       1.95279338       7.15306891       35      -0.00431478      -0.00008855       0.00345687
O        1.96439670       1.95279338       0.84138307       36      -0.00431478      -0.00008855      -0.00345687
O        4.73555378       0.91167769      15.14752090       37      -0.00431478       0.00008855       0.00345687
O        3.57791746       4.81726446       7.15306891       38       0.00431478      -0.00008855       0.00345687
O        0.80676038       3.77614877       8.83583506       39       0.00431478       0.00008855      -0.00345687
40