40
Lattice="5.947844796350895 9.997498050159378e-43 0.0 -9.346646353763693e-43 6.329067010808571 0.0 0.0 0.0 17.289815032165933" Properties=species:S:1:pos:R:3:spacegroup_kinds:I:1:forces:R:3 spacegroup="P 1" unit_cell=conventional occupancy="_JSON {\"0\": {\"In\": 1}, \"1\": {\"In\": 1}, \"2\": {\"In\": 1}, \"3\": {\"In\": 1}, \"4\": {\"In\": 1}, \"5\": {\"In\": 1}, \"6\": {\"In\": 1}, \"7\": {\"In\": 1}, \"8\": {\"In\": 1}, \"9\": {\"In\": 1}, \"10\": {\"In\": 1}, \"11\": {\"In\": 1}, \"12\": {\"In\": 1}, \"13\": {\"In\": 1}, \"14\": {\"In\": 1}, \"15\": {\"In\": 1}, \"16\": {\"O\": 1}, \"17\": {\"O\": 1}, \"18\": {\"O\": 1}, \"19\": {\"O\": 1}, \"20\": {\"O\": 1}, \"21\": {\"O\": 1}, \"22\": {\"O\": 1}, \"23\": {\"O\": 1}, \"24\": {\"O\": 1}, \"25\": {\"O\": 1}, \"26\": {\"O\": 1}, \"27\": {\"O\": 1}, \"28\": {\"O\": 1}, \"29\": {\"O\": 1}, \"30\": {\"O\": 1}, \"31\": {\"O\": 1}, \"32\": {\"O\": 1}, \"33\": {\"O\": 1}, \"34\": {\"O\": 1}, \"35\": {\"O\": 1}, \"36\": {\"O\": 1}, \"37\": {\"O\": 1}, \"38\": {\"O\": 1}, \"39\": {\"O\": 1}}" n_minim_iter=11 energy=-45142.218546638 stress="0.09695109171806726 4.1053158819356653e-13 3.06052024163924e-13 4.1053158819356653e-13 0.09692113779922609 -1.6118199309602218e-13 3.06052024163924e-13 -1.6118199309602218e-13 0.09693900942643797" free_energy=-45142.218546638 pbc="T T T"
In       2.71176629       5.31158155      10.03262739        0      -0.00505238      -0.00097744       0.00209881
In      -0.26215610       4.18201897       7.25718765        1      -0.00505238       0.00097744      -0.00209881
In       3.23607850       2.14704805      15.90209516        2       0.00505238      -0.00097744      -0.00209881
In       6.21000090       1.01748546       1.38771987        3       0.00505238       0.00097744       0.00209881
In       3.23607850       1.01748546       7.25718765        4       0.00505238       0.00097744      -0.00209881
In       6.21000090       2.14704805      10.03262739        5       0.00505238      -0.00097744       0.00209881
In       2.71176629       4.18201897       1.38771987        6      -0.00505238       0.00097744       0.00209881
In      -0.26215610       5.31158155      15.90209516        7      -0.00505238      -0.00097744      -0.00209881
In       2.73723449       5.07730757      14.07370485        8       0.00797924       0.00247875       0.00007015
In       5.71115688       4.41629294       3.21611018        9       0.00797924      -0.00247875      -0.00007015
In       3.21061031       1.91277407      11.86101770       10      -0.00797924       0.00247875      -0.00007015
In       0.23668791       1.25175944       5.42879733       11      -0.00797924      -0.00247875       0.00007015
In       3.21061031       1.25175944       3.21611018       12      -0.00797924      -0.00247875      -0.00007015
In       0.23668791       1.91277407      14.07370485       13      -0.00797924       0.00247875       0.00007015
In       2.73723449       4.41629294       5.42879733       14       0.00797924      -0.00247875       0.00007015
In       5.71115688       5.07730757      11.86101770       15       0.00797924       0.00247875      -0.00007015
O        4.91133258       5.75181710      13.83914272       16       0.00380378      -0.00235387       0.00108389
O        1.93741019       3.74178342       3.45067231       17       0.00380378       0.00235387      -0.00108389
O        1.03651221       2.58728359      12.09557982       18      -0.00380378      -0.00235387      -0.00108389
O        4.01043461       0.57724991       5.19423521       19      -0.00380378       0.00235387       0.00108389
O        1.03651221       0.57724991       3.45067231       20      -0.00380378       0.00235387      -0.00108389
O        4.01043461       2.58728359      13.83914272       21      -0.00380378      -0.00235387       0.00108389
O        4.91133258       3.74178342       5.19423521       22       0.00380379       0.00235387       0.00108389
O        1.93741019       5.75181710      12.09557982       23       0.00380378      -0.00235387      -0.00108389
O        4.16050540       3.76058792      10.94808031       24      -0.00087621      -0.00514652      -0.00183552
O        1.18658301       5.73301260       6.34173473       25      -0.00087621       0.00514652       0.00183552
O        1.78733939       0.59605441      14.98664224       26       0.00087621      -0.00514652       0.00183552
O        4.76126179       2.56847909       2.30317279       27       0.00087621       0.00514652      -0.00183552
O        1.78733939       2.56847909       6.34173473       28       0.00087621       0.00514652       0.00183552
O        4.76126179       0.59605441      10.94808031       29       0.00087621      -0.00514652      -0.00183552
O        4.16050540       5.73301260       2.30317279       30      -0.00087621       0.00514652      -0.00183552
O        1.18658301       3.76058792      14.98664224       31      -0.00087621      -0.00514652       0.00183552
O        3.74566964       4.23438030      16.46186126       32      -0.00176162      -0.00265510       0.00035493
O        0.77174724       5.25922021       0.82795377       33      -0.00176162       0.00265510      -0.00035493
O        2.20217516       1.06984680       9.47286129       34       0.00176162      -0.00265510      -0.00035493
O        5.17609756       2.09468671       7.81695374       35       0.00176162       0.00265510       0.00035493
O        2.20217516       2.09468671       0.82795377       36       0.00176162       0.00265510      -0.00035493
O        5.17609756       1.06984680      16.46186126       37       0.00176162      -0.00265510       0.00035493
O        3.74566964       5.25922021       7.81695374       38      -0.00176162       0.00265510       0.00035493
O        0.77174724       4.23438030       9.47286129       39      -0.00176162      -0.00265510      -0.00035493
