40
Lattice="5.4963881187470305 -4.936460791087957e-43 0.0 5.099098322938573e-43 5.677473117809496 0.0 0.0 0.0 15.851515224152328" Properties=species:S:1:pos:R:3:spacegroup_kinds:I:1:forces:R:3 spacegroup="P 1" unit_cell=conventional occupancy="_JSON {\"0\": {\"In\": 1}, \"1\": {\"In\": 1}, \"2\": {\"In\": 1}, \"3\": {\"In\": 1}, \"4\": {\"In\": 1}, \"5\": {\"In\": 1}, \"6\": {\"In\": 1}, \"7\": {\"In\": 1}, \"8\": {\"In\": 1}, \"9\": {\"In\": 1}, \"10\": {\"In\": 1}, \"11\": {\"In\": 1}, \"12\": {\"In\": 1}, \"13\": {\"In\": 1}, \"14\": {\"In\": 1}, \"15\": {\"In\": 1}, \"16\": {\"O\": 1}, \"17\": {\"O\": 1}, \"18\": {\"O\": 1}, \"19\": {\"O\": 1}, \"20\": {\"O\": 1}, \"21\": {\"O\": 1}, \"22\": {\"O\": 1}, \"23\": {\"O\": 1}, \"24\": {\"O\": 1}, \"25\": {\"O\": 1}, \"26\": {\"O\": 1}, \"27\": {\"O\": 1}, \"28\": {\"O\": 1}, \"29\": {\"O\": 1}, \"30\": {\"O\": 1}, \"31\": {\"O\": 1}, \"32\": {\"O\": 1}, \"33\": {\"O\": 1}, \"34\": {\"O\": 1}, \"35\": {\"O\": 1}, \"36\": {\"O\": 1}, \"37\": {\"O\": 1}, \"38\": {\"O\": 1}, \"39\": {\"O\": 1}}" n_minim_iter=1 energy=-45149.567512842885 stress="-0.059310200403987656 5.805409832522955e-14 -2.676769180612592e-13 5.805409832522955e-14 -0.059072324462473805 -1.0471062072354927e-13 -2.676769180612592e-13 -1.0471062072354927e-13 -0.05679802923287323" free_energy=-45149.567512842885 pbc="T T T"
In       2.74642226       4.52912082       9.04736054        0       0.00311276       0.01844839       0.00518505
In      -0.00177180       3.98708886       6.80415468        1       0.00311276      -0.01844839      -0.00518505
In       2.74996585       1.69038426      14.72991229        2      -0.00311276       0.01844839      -0.00518505
In       5.49815991       1.14835230       1.12160293        3      -0.00311276      -0.01844839       0.00518505
In       2.74996585       1.14835230       6.80415468        4      -0.00311276      -0.01844839      -0.00518505
In       5.49815991       1.69038426       9.04736054        5      -0.00311276       0.01844839       0.00518505
In       2.74642226       3.98708886       1.12160293        6       0.00311276      -0.01844839       0.00518505
In      -0.00177180       4.52912082      14.72991229        7       0.00311276       0.01844839      -0.00518505
In       2.73845080       4.23619637      12.97036132        8       0.03568985      -0.02905037       0.02066131
In       5.48664486       4.28001331       2.88115391        9       0.03568985       0.02905037      -0.02066131
In       2.75793732       1.39745981      10.80691152       10      -0.03568985      -0.02905037      -0.02066131
In       0.00974326       1.44127675       5.04460371       11      -0.03568985       0.02905037       0.02066131
In       2.75793732       1.44127675       2.88115391       12      -0.03568985       0.02905037      -0.02066131
In       0.00974326       1.39745981      12.97036132       13      -0.03568985      -0.02905037       0.02066131
In       2.73845080       4.28001331       5.04460371       14       0.03568985       0.02905037       0.02066131
In       5.48664486       4.23619637      10.80691152       15       0.03568985      -0.02905037      -0.02066131
O        4.72511641       5.00150188      12.65260791       16       0.01453834       0.04050540       0.01920612
O        1.97692235       3.51470780       3.19890732       17       0.01453834      -0.04050540      -0.01920612
O        0.77127171       2.16276532      11.12466493       18      -0.01453834       0.04050540      -0.01920612
O        3.51946577       0.67597124       4.72685030       19      -0.01453834      -0.04050540       0.01920612
O        0.77127171       0.67597124       3.19890732       20      -0.01453834      -0.04050540      -0.01920612
O        3.51946577       2.16276532      12.65260791       21      -0.01453834       0.04050540       0.01920612
O        4.72511641       3.51470780       4.72685030       22       0.01453834      -0.04050540       0.01920612
O        1.97692235       5.00150188      11.12466493       23       0.01453835       0.04050540      -0.01920612
O        3.88847301       2.98509429       9.90011356       24       0.07948313      -0.03745476       0.02074973
O        1.14027895       5.53111539       5.95140166       25       0.07948313       0.03745476      -0.02074973
O        1.60791511       0.14635773      13.87715927       26      -0.07948313      -0.03745476      -0.02074973
O        4.35610917       2.69237883       1.97435595       27      -0.07948313       0.03745476       0.02074973
O        1.60791511       2.69237883       5.95140166       28      -0.07948313       0.03745476      -0.02074973
O        4.35610917       0.14635773       9.90011356       29      -0.07948313      -0.03745476       0.02074973
O        3.88847301       5.53111539       1.97435595       30       0.07948313       0.03745476       0.02074973
O        1.14027895       2.98509429      13.87715927       31       0.07948313      -0.03745476      -0.02074973
O        3.54816969       3.74187107      15.01673231       32      -0.05833929      -0.03484315      -0.07096953
O        0.79997563       4.77433860       0.83478292       33      -0.05833929       0.03484315       0.07096953
O        1.94821843       0.90313452       8.76054053       34       0.05833929      -0.03484315       0.07096953
O        4.69641248       1.93560204       7.09097469       35       0.05833929       0.03484315      -0.07096953
O        1.94821843       1.93560204       0.83478292       36       0.05833929       0.03484315       0.07096953
O        4.69641248       0.90313452      15.01673231       37       0.05833929      -0.03484315      -0.07096953
O        3.54816969       4.77433860       7.09097469       38      -0.05833929       0.03484315      -0.07096953
O        0.79997563       3.74187107       8.76054053       39      -0.05833929      -0.03484315       0.07096953
40
Lattice="5.501511208202979 -4.94067646487232e-43 0.0 5.1030153383470066e-43 5.681391296126823 0.0 0.0 0.0 15.825832219860704" Properties=species:S:1:pos:R:3:spacegroup_kinds:I:1:forces:R:3 spacegroup="P 1" unit_cell=conventional occupancy="_JSON {\"0\": {\"In\": 1}, \"1\": {\"In\": 1}, \"2\": {\"In\": 1}, \"3\": {\"In\": 1}, \"4\": {\"In\": 1}, \"5\": {\"In\": 1}, \"6\": {\"In\": 1}, \"7\": {\"In\": 1}, \"8\": {\"In\": 1}, \"9\": {\"In\": 1}, \"10\": {\"In\": 1}, \"11\": {\"In\": 1}, \"12\": {\"In\": 1}, \"13\": {\"In\": 1}, \"14\": {\"In\": 1}, \"15\": {\"In\": 1}, \"16\": {\"O\": 1}, \"17\": {\"O\": 1}, \"18\": {\"O\": 1}, \"19\": {\"O\": 1}, \"20\": {\"O\": 1}, \"21\": {\"O\": 1}, \"22\": {\"O\": 1}, \"23\": {\"O\": 1}, \"24\": {\"O\": 1}, \"25\": {\"O\": 1}, \"26\": {\"O\": 1}, \"27\": {\"O\": 1}, \"28\": {\"O\": 1}, \"29\": {\"O\": 1}, \"30\": {\"O\": 1}, \"31\": {\"O\": 1}, \"32\": {\"O\": 1}, \"33\": {\"O\": 1}, \"34\": {\"O\": 1}, \"35\": {\"O\": 1}, \"36\": {\"O\": 1}, \"37\": {\"O\": 1}, \"38\": {\"O\": 1}, \"39\": {\"O\": 1}}" n_minim_iter=2 energy=-45149.56868996202 stress="-0.057921266740695476 -5.328085910942076e-13 -3.605033694211243e-13 -5.328085910942076e-13 -0.05823310312291761 -5.584265684343313e-15 -3.605033694211243e-13 -5.584265684343313e-15 -0.05846282371516669" free_energy=-45149.56868996202 pbc="T T T"
In       2.74898856       4.53228442       9.03271243        0      -0.01218662       0.00752119       0.01812219
In      -0.00176705       3.98980253       6.79311979        1      -0.01218662      -0.00752119      -0.01812219
In       2.75252265       1.69158877      14.70603590        2       0.01218662       0.00752119      -0.01812219
In       5.50327825       1.14910688       1.11979632        3       0.01218662      -0.00752119       0.01812219
In       2.75252265       1.14910688       6.79311979        4       0.01218662      -0.00752119      -0.01812219
In       5.50327825       1.69158877       9.03271243        5       0.01218662       0.00752119       0.01812219
In       2.74898856       3.98980253       1.11979632        6      -0.01218662      -0.00752119       0.01812219
In      -0.00176705       4.53228442      14.70603590        7      -0.01218662       0.00752119      -0.01812219
In       2.74107666       4.23906015      12.94938881        8       0.04835334      -0.03044246       0.02589701
In       5.49183226       4.28302679       2.87644341        9       0.04835334       0.03044246      -0.02589701
In       2.76043455       1.39836451      10.78935952       10      -0.04835334      -0.03044246      -0.02589701
In       0.00967894       1.44233114       5.03647270       11      -0.04835334       0.03044246       0.02589701
In       2.76043455       1.44233114       2.87644341       12      -0.04835334       0.03044246      -0.02589701
In       0.00967894       1.39836451      12.94938881       13      -0.04835334      -0.03044246       0.02589701
In       2.74107666       4.28302679       5.03647270       14       0.04835334       0.03044246       0.02589701
In       5.49183226       4.23906015      10.78935952       15       0.04835334      -0.03044246      -0.02589701
O        4.72955050       5.00503683      12.63214725       16       0.00502106       0.04068139       0.02427769
O        1.97879490       3.51705011       3.19368497       17       0.00502106      -0.04068139      -0.02427769
O        0.77196070       2.16434119      11.10660108       18      -0.00502106       0.04068139      -0.02427769
O        3.52271631       0.67635446       4.71923114       19      -0.00502106      -0.04068139       0.02427769
O        0.77196070       0.67635446       3.19368497       20      -0.00502106      -0.04068139      -0.02427769
O        3.52271631       2.16434119      12.63214725       21      -0.00502106       0.04068139       0.02427769
O        4.72955050       3.51705011       4.71923114       22       0.00502106      -0.04068139       0.02427769
O        1.97879490       5.00503683      11.10660108       23       0.00502106       0.04068139      -0.02427769
O        3.89226084       2.98707738       9.88411573       24       0.07415492      -0.03268226       0.01781784
O        1.14150524       5.53500957       5.94171649       25       0.07415492       0.03268226      -0.01781784
O        1.60925036       0.14638173      13.85463260       26      -0.07415492      -0.03268226      -0.01781784
O        4.36000597       2.69431392       1.97119962       27      -0.07415492       0.03268226       0.01781784
O        1.60925036       2.69431392       5.94171649       28      -0.07415492       0.03268226      -0.01781784
O        4.36000597       0.14638173       9.88411573       29      -0.07415492      -0.03268226       0.01781784
O        3.89226084       5.53500957       1.97119962       30       0.07415492       0.03268226       0.01781784
O        1.14150524       2.98707738      13.85463260       31       0.07415492      -0.03268226      -0.01781784
O        3.55135691       3.74438180      14.99225626       32      -0.04386467      -0.03333881      -0.08255766
O        0.80060130       4.77770514       0.83357596       33      -0.04386467       0.03333881       0.08255766
O        1.95015430       0.90368615       8.74649207       34       0.04386467      -0.03333881       0.08255766
O        4.70090991       1.93700949       7.07934015       35       0.04386467       0.03333881      -0.08255766
O        1.95015430       1.93700949       0.83357596       36       0.04386467       0.03333881       0.08255766
O        4.70090991       0.90368615      14.99225626       37       0.04386467      -0.03333881      -0.08255766
O        3.55135691       4.77770514       7.07934015       38      -0.04386467       0.03333881      -0.08255766
O        0.80060130       3.74438180       8.74649207       39      -0.04386467      -0.03333881       0.08255766
40
Lattice="5.492814808968109 -3.668117164981668e-43 0.0 5.767040592911454e-43 5.693587839206596 0.0 0.0 0.0 15.816933134520527" Properties=species:S:1:pos:R:3:spacegroup_kinds:I:1:forces:R:3 spacegroup="P 1" unit_cell=conventional occupancy="_JSON {\"0\": {\"In\": 1}, \"1\": {\"In\": 1}, \"2\": {\"In\": 1}, \"3\": {\"In\": 1}, \"4\": {\"In\": 1}, \"5\": {\"In\": 1}, \"6\": {\"In\": 1}, \"7\": {\"In\": 1}, \"8\": {\"In\": 1}, \"9\": {\"In\": 1}, \"10\": {\"In\": 1}, \"11\": {\"In\": 1}, \"12\": {\"In\": 1}, \"13\": {\"In\": 1}, \"14\": {\"In\": 1}, \"15\": {\"In\": 1}, \"16\": {\"O\": 1}, \"17\": {\"O\": 1}, \"18\": {\"O\": 1}, \"19\": {\"O\": 1}, \"20\": {\"O\": 1}, \"21\": {\"O\": 1}, \"22\": {\"O\": 1}, \"23\": {\"O\": 1}, \"24\": {\"O\": 1}, \"25\": {\"O\": 1}, \"26\": {\"O\": 1}, \"27\": {\"O\": 1}, \"28\": {\"O\": 1}, \"29\": {\"O\": 1}, \"30\": {\"O\": 1}, \"31\": {\"O\": 1}, \"32\": {\"O\": 1}, \"33\": {\"O\": 1}, \"34\": {\"O\": 1}, \"35\": {\"O\": 1}, \"36\": {\"O\": 1}, \"37\": {\"O\": 1}, \"38\": {\"O\": 1}, \"39\": {\"O\": 1}}" n_minim_iter=3 energy=-45149.57188891962 stress="-0.05893724165823533 -8.95462100875163e-14 1.2134536051285984e-14 -8.95462100875163e-14 -0.05610030335978807 9.873526229770266e-14 1.2134536051285984e-14 9.873526229770266e-14 -0.05803153807185907" free_energy=-45149.57188891962 pbc="T T T"
In       2.74431617       4.54232383       9.02816882        0       0.01302512      -0.01506925       0.01478227
In      -0.00209123       3.99805793       6.78876431        1       0.01302512       0.01506925      -0.01478227
In       2.74849864       1.69552991      14.69723088        2      -0.01302512      -0.01506925      -0.01478227
In       5.49490604       1.15126401       1.11970226        3      -0.01302512       0.01506925       0.01478227
In       2.74849864       1.15126401       6.78876431        4      -0.01302512       0.01506925      -0.01478227
In       5.49490604       1.69552991       9.02816882        5      -0.01302512      -0.01506925       0.01478227
In       2.74431617       3.99805793       1.11970226        6       0.01302512       0.01506925       0.01478227
In      -0.00209123       4.54232383      14.69723088        7       0.01302512      -0.01506925      -0.01478227
In       2.73829323       4.24714700      12.94294203        8       0.01230354      -0.01564777       0.00296917
In       5.48470063       4.29323476       2.87399111        9       0.01230354       0.01564777      -0.00296917
In       2.75452158       1.40035308      10.78245768       10      -0.01230354      -0.01564777      -0.00296917
In       0.00811417       1.44644084       5.03447546       11      -0.01230354       0.01564777       0.00296917
In       2.75452158       1.44644084       2.87399111       12      -0.01230354       0.01564777      -0.00296917
In       0.00811417       1.40035308      12.94294203       13      -0.01230354      -0.01564777       0.00296917
In       2.73829323       4.29323476       5.03447546       14       0.01230354       0.01564777       0.00296917
In       5.48470063       4.24714700      10.78245768       15       0.01230354      -0.01564777      -0.00296917
O        4.72229211       5.01714448      12.62582580       16       0.00972089       0.02578801      -0.00591349
O        1.97588470       3.52323727       3.19110734       17       0.00972089      -0.02578801       0.00591349
O        0.77052270       2.17035056      11.09957391       18      -0.00972089       0.02578801       0.00591349
O        3.51693011       0.67644335       4.71735923       19      -0.00972089      -0.02578801      -0.00591349
O        0.77052270       0.67644335       3.19110734       20      -0.00972089      -0.02578801       0.00591349
O        3.51693011       2.17035056      12.62582580       21      -0.00972089       0.02578801      -0.00591349
O        4.72229211       3.52323727       4.71735923       22       0.00972089      -0.02578801      -0.00591349
O        1.97588470       5.01714448      11.09957391       23       0.00972089       0.02578801       0.00591349
O        3.88861438       2.99236896       9.87916638       24       0.02795912      -0.01376332       0.00260814
O        1.14220698       5.54801279       5.93776676       25       0.02795912       0.01376332      -0.00260814
O        1.60420043       0.14557504      13.84623333       26      -0.02795912      -0.01376332      -0.00260814
O        4.35060783       2.70121887       1.97069981       27      -0.02795912       0.01376332       0.00260814
O        1.60420043       2.70121887       5.93776676       28      -0.02795912       0.01376332      -0.00260814
O        4.35060783       0.14557504       9.87916638       29      -0.02795912      -0.01376332       0.00260814
O        3.88861438       5.54801279       1.97069981       30       0.02795912       0.01376332       0.00260814
O        1.14220698       2.99236896      13.84623333       31       0.02795912      -0.01376332      -0.00260814
O        3.54420130       3.75129433      14.98113777       32      -0.03244000      -0.02911442      -0.03813818
O        0.79779390       4.78908743       0.83579536       33      -0.03244000       0.02911442       0.03813818
O        1.94861351       0.90450041       8.74426193       34       0.03244000      -0.02911442       0.03813818
O        4.69502091       1.94229351       7.07267120       35       0.03244000       0.02911442      -0.03813818
O        1.94861351       1.94229351       0.83579536       36       0.03244000       0.02911442       0.03813818
O        4.69502091       0.90450041      14.98113777       37       0.03244000      -0.02911442      -0.03813818
O        3.54420130       4.78908743       7.07267120       38      -0.03244000       0.02911442      -0.03813818
O        0.79779390       3.75129433       8.74426193       39      -0.03244000      -0.02911442       0.03813818
40
Lattice="5.500261685948095 -3.73774371909509e-43 0.0 5.9207662080065934e-43 5.6848364160009535 0.0 0.0 0.0 15.819834517612273" Properties=species:S:1:pos:R:3:spacegroup_kinds:I:1:forces:R:3 spacegroup="P 1" unit_cell=conventional occupancy="_JSON {\"0\": {\"In\": 1}, \"1\": {\"In\": 1}, \"2\": {\"In\": 1}, \"3\": {\"In\": 1}, \"4\": {\"In\": 1}, \"5\": {\"In\": 1}, \"6\": {\"In\": 1}, \"7\": {\"In\": 1}, \"8\": {\"In\": 1}, \"9\": {\"In\": 1}, \"10\": {\"In\": 1}, \"11\": {\"In\": 1}, \"12\": {\"In\": 1}, \"13\": {\"In\": 1}, \"14\": {\"In\": 1}, \"15\": {\"In\": 1}, \"16\": {\"O\": 1}, \"17\": {\"O\": 1}, \"18\": {\"O\": 1}, \"19\": {\"O\": 1}, \"20\": {\"O\": 1}, \"21\": {\"O\": 1}, \"22\": {\"O\": 1}, \"23\": {\"O\": 1}, \"24\": {\"O\": 1}, \"25\": {\"O\": 1}, \"26\": {\"O\": 1}, \"27\": {\"O\": 1}, \"28\": {\"O\": 1}, \"29\": {\"O\": 1}, \"30\": {\"O\": 1}, \"31\": {\"O\": 1}, \"32\": {\"O\": 1}, \"33\": {\"O\": 1}, \"34\": {\"O\": 1}, \"35\": {\"O\": 1}, \"36\": {\"O\": 1}, \"37\": {\"O\": 1}, \"38\": {\"O\": 1}, \"39\": {\"O\": 1}}" n_minim_iter=4 energy=-45149.57386376712 stress="-0.05733547050830215 7.355551082718298e-14 1.5880346018623973e-13 7.355551082718298e-14 -0.057384140844678584 -1.7760222777491213e-13 1.5880346018623973e-13 -1.7760222777491213e-13 -0.05749497390960976" free_energy=-45149.57386376712 pbc="T T T"
In       2.74788620       4.53547639       9.03020447        0       0.01271453      -0.05309266      -0.00375363
In      -0.00224464       3.99177823       6.78963004        1       0.01271453       0.05309266       0.00375363
In       2.75237549       1.69305818      14.69954730        2      -0.01271453      -0.05309266       0.00375363
In       5.50250633       1.14936002       1.12028721        3      -0.01271453       0.05309266      -0.00375363
In       2.75237549       1.14936002       6.78963004        4      -0.01271453       0.05309266       0.00375363
In       5.50250633       1.69305818       9.03020447        5      -0.01271453      -0.05309266      -0.00375363
In       2.74788620       3.99177823       1.12028721        6       0.01271453       0.05309266      -0.00375363
In      -0.00224464       4.53547639      14.69954730        7       0.01271453      -0.05309266       0.00375363
In       2.74299639       4.23994392      12.94583613        8       0.00258638       0.01584308      -0.02203903
In       5.49312723       4.28731070       2.87399839        9       0.00258638      -0.01584308       0.02203903
In       2.75726529       1.39752571      10.78391565       10      -0.00258638       0.01584308       0.02203903
In       0.00713445       1.44489249       5.03591887       11      -0.00258638      -0.01584308      -0.02203903
In       2.75726529       1.44489249       2.87399839       12      -0.00258638      -0.01584308       0.02203903
In       0.00713445       1.39752571      12.94583613       13      -0.00258638       0.01584308      -0.02203903
In       2.74299639       4.28731070       5.03591887       14       0.00258638      -0.01584308      -0.02203903
In       5.49312723       4.23994392      10.78391565       15       0.00258638       0.01584308       0.02203903
O        4.72886399       5.01035824      12.62859696       16       0.00532101       0.00765527      -0.02465515
O        1.97873314       3.51689638       3.19123756       17       0.00532101      -0.00765527       0.02465515
O        0.77139770       2.16794004      11.10115482       18      -0.00532101       0.00765527       0.02465515
O        3.52152854       0.67447817       4.71867970       19      -0.00532101      -0.00765527      -0.02465515
O        0.77139770       0.67447817       3.19123756       20      -0.00532101      -0.00765527       0.02465515
O        3.52152854       2.16794004      12.62859696       21      -0.00532101       0.00765527      -0.02465515
O        4.72886399       3.51689638       4.71867970       22       0.00532101      -0.00765527      -0.02465515
O        1.97873314       5.01035824      11.10115482       23       0.00532101       0.00765527       0.02465515
O        3.89552091       2.98703533       9.88135990       24       0.00468549      -0.00842162      -0.00267988
O        1.14539007       5.54021929       5.93847462       25       0.00468549       0.00842162       0.00267988
O        1.60474078       0.14461712      13.84839188       26      -0.00468549      -0.00842162       0.00267988
O        4.35487162       2.69780109       1.97144264       27      -0.00468549       0.00842162      -0.00267988
O        1.60474078       2.69780109       5.93847462       28      -0.00468549       0.00842162       0.00267988
O        4.35487162       0.14461712       9.88135990       29      -0.00468549      -0.00842162      -0.00267988
O        3.89552091       5.54021929       1.97144264       30       0.00468549       0.00842162      -0.00267988
O        1.14539007       2.98703533      13.84839188       31       0.00468549      -0.00842162       0.00267988
O        3.54794377       3.74473512      14.98210699       32      -0.01013356      -0.00453284      -0.00631175
O        0.79781292       4.78251950       0.83772753       33      -0.01013356       0.00453284       0.00631175
O        1.95231792       0.90231691       8.74764479       34       0.01013356      -0.00453284       0.00631175
O        4.70244876       1.94010129       7.07218973       35       0.01013356       0.00453284      -0.00631175
O        1.95231792       1.94010129       0.83772753       36       0.01013356       0.00453284       0.00631175
O        4.70244876       0.90231691      14.98210699       37       0.01013356      -0.00453284      -0.00631175
O        3.54794377       4.78251950       7.07218973       38      -0.01013356       0.00453284      -0.00631175
O        0.79781292       3.74473512       8.74764479       39      -0.01013356      -0.00453284       0.00631175
40
Lattice="5.500428885874764 -3.857515059545994e-43 0.0 5.346715029977936e-43 5.68216399720003 0.0 0.0 0.0 15.82679374462116" Properties=species:S:1:pos:R:3:spacegroup_kinds:I:1:forces:R:3 spacegroup="P 1" unit_cell=conventional occupancy="_JSON {\"0\": {\"In\": 1}, \"1\": {\"In\": 1}, \"2\": {\"In\": 1}, \"3\": {\"In\": 1}, \"4\": {\"In\": 1}, \"5\": {\"In\": 1}, \"6\": {\"In\": 1}, \"7\": {\"In\": 1}, \"8\": {\"In\": 1}, \"9\": {\"In\": 1}, \"10\": {\"In\": 1}, \"11\": {\"In\": 1}, \"12\": {\"In\": 1}, \"13\": {\"In\": 1}, \"14\": {\"In\": 1}, \"15\": {\"In\": 1}, \"16\": {\"O\": 1}, \"17\": {\"O\": 1}, \"18\": {\"O\": 1}, \"19\": {\"O\": 1}, \"20\": {\"O\": 1}, \"21\": {\"O\": 1}, \"22\": {\"O\": 1}, \"23\": {\"O\": 1}, \"24\": {\"O\": 1}, \"25\": {\"O\": 1}, \"26\": {\"O\": 1}, \"27\": {\"O\": 1}, \"28\": {\"O\": 1}, \"29\": {\"O\": 1}, \"30\": {\"O\": 1}, \"31\": {\"O\": 1}, \"32\": {\"O\": 1}, \"33\": {\"O\": 1}, \"34\": {\"O\": 1}, \"35\": {\"O\": 1}, \"36\": {\"O\": 1}, \"37\": {\"O\": 1}, \"38\": {\"O\": 1}, \"39\": {\"O\": 1}}" n_minim_iter=5 energy=-45149.575505285255 stress="-0.05733430206914483 8.014382436180688e-13 -4.741838452537564e-13 8.014382436180688e-13 -0.05731712491991916 6.979373731824406e-13 -4.741838452537564e-13 6.979373731824406e-13 -0.05679717900546895" free_energy=-45149.575505285255 pbc="T T T"
In       2.74882216       4.52965778       9.03412241        0      -0.00437855      -0.01537871      -0.01749768
In      -0.00139228       3.99358821       6.79267134        1      -0.00437855       0.01537871       0.01749768
In       2.75160672       1.68857578      14.70606821        2       0.00437855      -0.01537871       0.01749768
In       5.50182117       1.15250622       1.12072553        3       0.00437855       0.01537871      -0.01749768
In       2.75160672       1.15250622       6.79267134        4       0.00437855       0.01537871       0.01749768
In       5.50182117       1.68857578       9.03412241        5       0.00437855      -0.01537871      -0.01749768
In       2.74882216       3.99358821       1.12072553        6      -0.00437855       0.01537871      -0.01749768
In      -0.00139228       4.52965778      14.70606821        7      -0.00437855      -0.01537871       0.01749768
In       2.74389885       4.23863977      12.95029355        8      -0.00354046       0.00419494       0.00140425
In       5.49411330       4.28460623       2.87650019        9      -0.00354046      -0.00419494      -0.00140425
In       2.75653003       1.39755777      10.78989707       10       0.00354046       0.00419494      -0.00140425
In       0.00631559       1.44352423       5.03689668       11       0.00354046      -0.00419494       0.00140425
In       2.75653003       1.44352423       2.87650019       12       0.00354046      -0.00419494      -0.00140425
In       0.00631559       1.39755777      12.95029355       13       0.00354046       0.00419494       0.00140425
In       2.74389885       4.28460623       5.03689668       14      -0.00354046      -0.00419494       0.00140425
In       5.49411330       4.23863977      10.78989707       15      -0.00354046       0.00419494      -0.00140425
O        4.72953131       5.00917446      12.63268763       16       0.00155262       0.00208821      -0.00751902
O        1.97931687       3.51407154       3.19410611       17       0.00155262      -0.00208821       0.00751902
O        0.77089757       2.16809246      11.10750299       18      -0.00155262       0.00208821       0.00751902
O        3.52111202       0.67298954       4.71929076       19      -0.00155262      -0.00208821      -0.00751902
O        0.77089757       0.67298954       3.19410611       20      -0.00155262      -0.00208821       0.00751902
O        3.52111202       2.16809246      12.63268763       21      -0.00155262       0.00208821      -0.00751902
O        4.72953131       3.51407154       4.71929076       22       0.00155262      -0.00208821      -0.00751902
O        1.97931687       5.00917446      11.10750299       23       0.00155262       0.00208821       0.00751902
O        3.89709816       2.98451492       9.88578395       24       0.00376505      -0.01646189       0.00351412
O        1.14688371       5.53873107       5.94100979       25       0.00376505       0.01646189      -0.00351412
O        1.60333073       0.14343293      13.85440667       26      -0.00376505      -0.01646189      -0.00351412
O        4.35354517       2.69764907       1.97238708       27      -0.00376505       0.01646189       0.00351412
O        1.60333073       2.69764907       5.94100979       28      -0.00376505       0.01646189      -0.00351412
O        4.35354517       0.14343293       9.88578395       29      -0.00376505      -0.01646189       0.00351412
O        3.89709816       5.53873107       1.97238708       30       0.00376505       0.01646189       0.00351412
O        1.14688371       2.98451492      13.85440667       31       0.00376505      -0.01646189      -0.00351412
O        3.54656599       3.74211430      14.98708056       32       0.00038707      -0.00114188       0.00583002
O        0.79635155       4.78113170       0.83971319       33       0.00038707       0.00114188      -0.00583002
O        1.95386289       0.90103230       8.75311006       34      -0.00038707      -0.00114188      -0.00583002
O        4.70407733       1.94004970       7.07368368       35      -0.00038707       0.00114188       0.00583002
O        1.95386289       1.94004970       0.83971319       36      -0.00038707       0.00114188      -0.00583002
O        4.70407733       0.90103230      14.98708056       37      -0.00038707      -0.00114188       0.00583002
O        3.54656599       4.78113170       7.07368368       38       0.00038707       0.00114188       0.00583002
O        0.79635155       3.74211430       8.75311006       39       0.00038707      -0.00114188      -0.00583002
40