40
Lattice="5.851635690443045 7.480810702554563e-43 0.0 -7.826282312653545e-43 6.121870305923919 0.0 0.0 0.0 17.078751417764767" Properties=species:S:1:pos:R:3:spacegroup_kinds:I:1:forces:R:3 spacegroup="P 1" unit_cell=conventional occupancy="_JSON {\"0\": {\"In\": 1}, \"1\": {\"In\": 1}, \"2\": {\"In\": 1}, \"3\": {\"In\": 1}, \"4\": {\"In\": 1}, \"5\": {\"In\": 1}, \"6\": {\"In\": 1}, \"7\": {\"In\": 1}, \"8\": {\"In\": 1}, \"9\": {\"In\": 1}, \"10\": {\"In\": 1}, \"11\": {\"In\": 1}, \"12\": {\"In\": 1}, \"13\": {\"In\": 1}, \"14\": {\"In\": 1}, \"15\": {\"In\": 1}, \"16\": {\"O\": 1}, \"17\": {\"O\": 1}, \"18\": {\"O\": 1}, \"19\": {\"O\": 1}, \"20\": {\"O\": 1}, \"21\": {\"O\": 1}, \"22\": {\"O\": 1}, \"23\": {\"O\": 1}, \"24\": {\"O\": 1}, \"25\": {\"O\": 1}, \"26\": {\"O\": 1}, \"27\": {\"O\": 1}, \"28\": {\"O\": 1}, \"29\": {\"O\": 1}, \"30\": {\"O\": 1}, \"31\": {\"O\": 1}, \"32\": {\"O\": 1}, \"33\": {\"O\": 1}, \"34\": {\"O\": 1}, \"35\": {\"O\": 1}, \"36\": {\"O\": 1}, \"37\": {\"O\": 1}, \"38\": {\"O\": 1}, \"39\": {\"O\": 1}}" n_minim_iter=1 energy=-45145.62187570311 stress="0.08015372752562447 -3.992183113227622e-14 -7.512430380703766e-14 -3.992183113227622e-14 0.0808780676690443 2.507404385042584e-13 -7.512430380703766e-14 2.507404385042584e-13 0.07815061265778087" free_energy=-45145.62187570311 pbc="T T T"
In       2.66801181       5.10560856       9.87463043        0      -0.06113813       0.05108296       0.02565269
In      -0.25780603       4.07719690       7.20412099        1      -0.06113813      -0.05108296      -0.02565269
In       3.18362388       2.04467341      15.74349670        2       0.06113813       0.05108296      -0.02565269
In       6.10944172       1.01626174       1.33525472        3       0.06113813      -0.05108296       0.02565269
In       3.18362388       1.01626174       7.20412099        4       0.06113813      -0.05108296      -0.02565269
In       6.10944172       2.04467341       9.87463043        5       0.06113813       0.05108296       0.02565269
In       2.66801181       4.07719690       1.33525472        6      -0.06113813      -0.05108296       0.02565269
In      -0.25780603       5.10560856      15.74349670        7      -0.06113813       0.05108296      -0.02565269
In       2.68686708       4.81816412      13.88133732        8      -0.05775955       0.06485907      -0.00972453
In       5.61268493       4.36464133       3.19741410        9      -0.05775955      -0.06485907       0.00972453
In       3.16476861       1.75722897      11.73678981       10       0.05775955       0.06485907       0.00972453
In       0.23895076       1.30370618       5.34196161       11       0.05775955      -0.06485907      -0.00972453
In       3.16476861       1.30370618       3.19741410       12       0.05775955      -0.06485907       0.00972453
In       0.23895076       1.75722897      13.88133732       13       0.05775955       0.06485907      -0.00972453
In       2.68686708       4.36464133       5.34196161       14      -0.05775955      -0.06485907      -0.00972453
In       5.61268493       4.81816412      11.73678981       15      -0.05775955       0.06485907       0.00972453
O        4.84296194       5.64485754      13.64220004       16       0.01302453      -0.06322847       0.01958831
O        1.91714409       3.53794792       3.43655138       17       0.01302453       0.06322847      -0.01958831
O        1.00867375       2.58392239      11.97592709       18      -0.01302453      -0.06322847      -0.01958831
O        3.93449160       0.47701276       5.10282433       19      -0.01302453       0.06322847       0.01958831
O        1.00867375       0.47701276       3.43655138       20      -0.01302453       0.06322847      -0.01958831
O        3.93449160       2.58392239      13.64220004       21      -0.01302453      -0.06322847       0.01958831
O        4.84296194       3.53794792       5.10282433       22       0.01302453       0.06322847       0.01958831
O        1.91714409       5.64485754      11.97592709       23       0.01302453      -0.06322847      -0.01958831
O        4.07464658       3.52050921      10.74978809       24       0.00555082       0.05145802       0.07148023
O        1.14882873       5.66229625       6.32896333       25       0.00555082      -0.05145802      -0.07148023
O        1.77698911       0.45957406      14.86833903       26      -0.00555082       0.05145802      -0.07148023
O        4.70280696       2.60136109       2.21041238       27      -0.00555082      -0.05145802       0.07148023
O        1.77698911       2.60136109       6.32896333       28      -0.00555082      -0.05145802      -0.07148023
O        4.70280696       0.45957406      10.74978809       29      -0.00555082       0.05145802       0.07148023
O        4.07464658       5.66229625       2.21041238       30       0.00555082      -0.05145802       0.07148023
O        1.14882873       3.52050921      14.86833903       31       0.00555082       0.05145802      -0.07148023
O        3.69341983       4.13671446      16.28715076       32      -0.02101870      -0.08820246      -0.00082383
O        0.76760199       5.04609100       0.79160066       33      -0.02101870       0.08820246       0.00082383
O        2.15821586       1.07577930       9.33097637       34       0.02101870      -0.08820246       0.00082383
O        5.08403370       1.98515585       7.74777505       35       0.02101870       0.08820246      -0.00082383
O        2.15821586       1.98515585       0.79160066       36       0.02101870       0.08820246       0.00082383
O        5.08403370       1.07577930      16.28715076       37       0.02101870      -0.08820246      -0.00082383
O        3.69341983       5.04609100       7.74777505       38      -0.02101870       0.08820246      -0.00082383
O        0.76760199       4.13671446       9.33097637       39      -0.02101870      -0.08820246       0.00082383
40
Lattice="5.847364553831673 7.41394657460564e-43 0.0 -7.87951807394606e-43 6.1098162859427125 0.0 0.0 0.0 17.124945563107143" Properties=species:S:1:pos:R:3:spacegroup_kinds:I:1:forces:R:3 spacegroup="P 1" unit_cell=conventional occupancy="_JSON {\"0\": {\"In\": 1}, \"1\": {\"In\": 1}, \"2\": {\"In\": 1}, \"3\": {\"In\": 1}, \"4\": {\"In\": 1}, \"5\": {\"In\": 1}, \"6\": {\"In\": 1}, \"7\": {\"In\": 1}, \"8\": {\"In\": 1}, \"9\": {\"In\": 1}, \"10\": {\"In\": 1}, \"11\": {\"In\": 1}, \"12\": {\"In\": 1}, \"13\": {\"In\": 1}, \"14\": {\"In\": 1}, \"15\": {\"In\": 1}, \"16\": {\"O\": 1}, \"17\": {\"O\": 1}, \"18\": {\"O\": 1}, \"19\": {\"O\": 1}, \"20\": {\"O\": 1}, \"21\": {\"O\": 1}, \"22\": {\"O\": 1}, \"23\": {\"O\": 1}, \"24\": {\"O\": 1}, \"25\": {\"O\": 1}, \"26\": {\"O\": 1}, \"27\": {\"O\": 1}, \"28\": {\"O\": 1}, \"29\": {\"O\": 1}, \"30\": {\"O\": 1}, \"31\": {\"O\": 1}, \"32\": {\"O\": 1}, \"33\": {\"O\": 1}, \"34\": {\"O\": 1}, \"35\": {\"O\": 1}, \"36\": {\"O\": 1}, \"37\": {\"O\": 1}, \"38\": {\"O\": 1}, \"39\": {\"O\": 1}}" n_minim_iter=2 energy=-45145.624478588834 stress="0.07932362657798178 1.4484984445532886e-13 -1.3705281808689556e-13 1.4484984445532886e-13 0.0792662403124027 1.1078397737516284e-13 -1.3705281808689556e-13 1.1078397737516284e-13 0.07960515746698137" free_energy=-45145.624478588834 pbc="T T T"
In       2.66589337       5.09569831       9.90141108        0      -0.05848708       0.04522893       0.02301224
In      -0.25778891       4.06902611       7.22353448        1      -0.05848708      -0.04522893      -0.02301224
In       3.18147119       2.04079017      15.78600726        2       0.05848708       0.04522893      -0.02301224
In       6.10515347       1.01411797       1.33893830        3       0.05848708      -0.04522893       0.02301224
In       3.18147119       1.01411797       7.22353448        4       0.05848708      -0.04522893      -0.02301224
In       6.10515347       2.04079017       9.90141108        5       0.05848708       0.04522893       0.02301224
In       2.66589337       4.06902611       1.33893830        6      -0.05848708      -0.04522893       0.02301224
In      -0.25778891       5.09569831      15.78600726        7      -0.05848708       0.04522893      -0.02301224
In       2.68474433       4.80885835      13.91885588        8      -0.05322844       0.06377955      -0.01978896
In       5.60842660       4.35586608       3.20608968        9      -0.05322844      -0.06377955       0.01978896
In       3.16262023       1.75395021      11.76856246       10       0.05322844       0.06377955       0.01978896
In       0.23893795       1.30095793       5.35638310       11       0.05322844      -0.06377955      -0.01978896
In       3.16262023       1.30095793       3.20608968       12       0.05322844      -0.06377955       0.01978896
In       0.23893795       1.75395021      13.91885588       13       0.05322844       0.06377955      -0.01978896
In       2.68474433       4.35586608       5.35638310       14      -0.05322844      -0.06377955      -0.01978896
In       5.60842660       4.80885835      11.76856246       15      -0.05322844       0.06377955       0.01978896
O        4.83946348       5.63356608      13.67915409       16       0.02210894      -0.05708641       0.01039363
O        1.91578120       3.53115835       3.44579148       17       0.02210894       0.05708641      -0.01039363
O        1.00790108       2.57865794      12.00826426       18      -0.02210894      -0.05708641      -0.01039363
O        3.93158335       0.47625020       5.11668131       19      -0.02210894       0.05708641       0.01039363
O        1.00790108       0.47625020       3.44579148       20      -0.02210894       0.05708641      -0.01039363
O        3.93158335       2.57865794      13.67915409       21      -0.02210894      -0.05708641       0.01039363
O        4.83946348       3.53115835       5.11668131       22       0.02210894       0.05708641       0.01039363
O        1.91578120       5.63356608      12.00826426       23       0.02210894      -0.05708641      -0.01039363
O        4.07168800       3.51372109      10.77906450       24       0.00901616       0.04670512       0.08708389
O        1.14800573       5.65100334       6.34588106       25       0.00901616      -0.04670512      -0.08708389
O        1.77567655       0.45881295      14.90835384       26      -0.00901616       0.04670512      -0.08708389
O        4.69935883       2.59609520       2.21659172       27      -0.00901616      -0.04670512       0.08708389
O        1.77567655       2.59609520       6.34588106       28      -0.00901616      -0.04670512      -0.08708389
O        4.69935883       0.45881295      10.77906450       29      -0.00901616       0.04670512       0.08708389
O        4.07168800       5.65100334       2.21659172       30       0.00901616      -0.04670512       0.08708389
O        1.14800573       3.51372109      14.90835384       31       0.00901616       0.04670512      -0.08708389
O        3.69066518       4.12832276      16.33120149       32      -0.02128840      -0.07765348      -0.00439770
O        0.76698290       5.03640167       0.79374407       33      -0.02128840       0.07765348       0.00439770
O        2.15669937       1.07341462       9.35621685       34       0.02128840      -0.07765348       0.00439770
O        5.08038165       1.98149353       7.76872871       35       0.02128840       0.07765348      -0.00439770
O        2.15669937       1.98149353       0.79374407       36       0.02128840       0.07765348       0.00439770
O        5.08038165       1.07341462      16.33120149       37       0.02128840      -0.07765348      -0.00439770
O        3.69066518       5.03640167       7.76872871       38      -0.02128840       0.07765348      -0.00439770
O        0.76698290       4.12832276       9.35621685       39      -0.02128840      -0.07765348       0.00439770
40
Lattice="5.852102175571565 7.392762805706244e-43 0.0 -7.852447216738886e-43 6.103715715343957 0.0 0.0 0.0 17.128184174948384" Properties=species:S:1:pos:R:3:spacegroup_kinds:I:1:forces:R:3 spacegroup="P 1" unit_cell=conventional occupancy="_JSON {\"0\": {\"In\": 1}, \"1\": {\"In\": 1}, \"2\": {\"In\": 1}, \"3\": {\"In\": 1}, \"4\": {\"In\": 1}, \"5\": {\"In\": 1}, \"6\": {\"In\": 1}, \"7\": {\"In\": 1}, \"8\": {\"In\": 1}, \"9\": {\"In\": 1}, \"10\": {\"In\": 1}, \"11\": {\"In\": 1}, \"12\": {\"In\": 1}, \"13\": {\"In\": 1}, \"14\": {\"In\": 1}, \"15\": {\"In\": 1}, \"16\": {\"O\": 1}, \"17\": {\"O\": 1}, \"18\": {\"O\": 1}, \"19\": {\"O\": 1}, \"20\": {\"O\": 1}, \"21\": {\"O\": 1}, \"22\": {\"O\": 1}, \"23\": {\"O\": 1}, \"24\": {\"O\": 1}, \"25\": {\"O\": 1}, \"26\": {\"O\": 1}, \"27\": {\"O\": 1}, \"28\": {\"O\": 1}, \"29\": {\"O\": 1}, \"30\": {\"O\": 1}, \"31\": {\"O\": 1}, \"32\": {\"O\": 1}, \"33\": {\"O\": 1}, \"34\": {\"O\": 1}, \"35\": {\"O\": 1}, \"36\": {\"O\": 1}, \"37\": {\"O\": 1}, \"38\": {\"O\": 1}, \"39\": {\"O\": 1}}" n_minim_iter=3 energy=-45145.63911812016 stress="0.07870698296570618 1.230798596269698e-13 -2.655580481681029e-14 1.230798596269698e-13 0.07632875849175536 -2.050735183926426e-13 -2.655580481681029e-14 -2.050735183926426e-13 0.07781947533500015" free_energy=-45145.63911812016 pbc="T T T"
In       2.66306786       5.09448769       9.90527266        0      -0.03927195      -0.02490096       0.02776268
In      -0.26298322       4.06108588       7.22291152        1      -0.03927195       0.02490096      -0.02776268
In       3.18903431       2.04262983      15.78700361        2       0.03927195      -0.02490096      -0.02776268
In       6.11508540       1.00922802       1.34118057        3       0.03927195       0.02490096       0.02776268
In       3.18903431       1.00922802       7.22291152        4       0.03927195       0.02490096      -0.02776268
In       6.11508540       2.04262983       9.90527266        5       0.03927195      -0.02490096       0.02776268
In       2.66306786       4.06108588       1.34118057        6      -0.03927195       0.02490096       0.02776268
In      -0.26298322       5.09448769      15.78700361        7      -0.03927195      -0.02490096      -0.02776268
In       2.68236114       4.80945282      13.91990154        8      -0.00565192       0.02529089      -0.02204643
In       5.60841223       4.34612075       3.20828263        9      -0.00565192      -0.02529089       0.02204643
In       3.16974104       1.75759496      11.77237472       10       0.00565192       0.02529089       0.02204643
In       0.24368995       1.29426289       5.35580946       11       0.00565192      -0.02529089      -0.02204643
In       3.16974104       1.29426289       3.20828263       12       0.00565192      -0.02529089       0.02204643
In       0.24368995       1.75759496      13.91990154       13       0.00565192       0.02529089      -0.02204643
In       2.68236114       4.34612075       5.35580946       14      -0.00565192      -0.02529089      -0.02204643
In       5.60841223       4.80945282      11.77237472       15      -0.00565192       0.02529089       0.02204643
O        4.84516808       5.62305961      13.68271974       16      -0.00548598      -0.02254169       0.02388304
O        1.91911699       3.53251397       3.44546443       17      -0.00548598       0.02254169      -0.02388304
O        1.00693409       2.57120175      12.00955652       18       0.00548598      -0.02254169      -0.02388304
O        3.93298518       0.48065611       5.11862766       19       0.00548598       0.02254169       0.02388304
O        1.00693409       0.48065611       3.44546443       20       0.00548598       0.02254169      -0.02388304
O        3.93298518       2.57120175      13.68271974       21       0.00548598      -0.02254169       0.02388304
O        4.84516808       3.53251397       5.11862766       22      -0.00548598       0.02254169       0.02388304
O        1.91911699       5.62305961      12.00955652       23      -0.00548598      -0.02254169      -0.02388304
O        4.07571670       3.51420370      10.78837312       24       0.00367825       0.05697954       0.03665635
O        1.14966561       5.64136987       6.33981106       25       0.00367825      -0.05697954      -0.03665635
O        1.77638547       0.46234585      14.90390314       26      -0.00367825       0.05697954      -0.03665635
O        4.70243656       2.58951201       2.22428103       27      -0.00367825      -0.05697954       0.03665635
O        1.77638547       2.58951201       6.33981106       28      -0.00367825      -0.05697954      -0.03665635
O        4.70243656       0.46234585      10.78837312       29      -0.00367825       0.05697954       0.03665635
O        4.07571670       5.64136987       2.22428103       30       0.00367825      -0.05697954       0.03665635
O        1.14966561       3.51420370      14.90390314       31       0.00367825       0.05697954      -0.03665635
O        3.69185315       4.11753867      16.33395082       32       0.00737692      -0.00199939       0.00142436
O        0.76580206       5.03803490       0.79423335       33       0.00737692       0.00199939      -0.00142436
O        2.16024903       1.06568081       9.35832544       34      -0.00737692      -0.00199939      -0.00142436
O        5.08630012       1.98617705       7.76985873       35      -0.00737692       0.00199939       0.00142436
O        2.16024903       1.98617705       0.79423335       36      -0.00737692       0.00199939      -0.00142436
O        5.08630012       1.06568081      16.33395082       37      -0.00737692      -0.00199939       0.00142436
O        3.69185315       5.03803490       7.76985873       38       0.00737692       0.00199939       0.00142436
O        0.76580206       4.11753867       9.35832544       39       0.00737692      -0.00199939      -0.00142436
40
Lattice="5.836869330360295 7.365733021862464e-43 0.0 -7.878154903987364e-43 6.1158828145123785 0.0 0.0 0.0 17.138720483716504" Properties=species:S:1:pos:R:3:spacegroup_kinds:I:1:forces:R:3 spacegroup="P 1" unit_cell=conventional occupancy="_JSON {\"0\": {\"In\": 1}, \"1\": {\"In\": 1}, \"2\": {\"In\": 1}, \"3\": {\"In\": 1}, \"4\": {\"In\": 1}, \"5\": {\"In\": 1}, \"6\": {\"In\": 1}, \"7\": {\"In\": 1}, \"8\": {\"In\": 1}, \"9\": {\"In\": 1}, \"10\": {\"In\": 1}, \"11\": {\"In\": 1}, \"12\": {\"In\": 1}, \"13\": {\"In\": 1}, \"14\": {\"In\": 1}, \"15\": {\"In\": 1}, \"16\": {\"O\": 1}, \"17\": {\"O\": 1}, \"18\": {\"O\": 1}, \"19\": {\"O\": 1}, \"20\": {\"O\": 1}, \"21\": {\"O\": 1}, \"22\": {\"O\": 1}, \"23\": {\"O\": 1}, \"24\": {\"O\": 1}, \"25\": {\"O\": 1}, \"26\": {\"O\": 1}, \"27\": {\"O\": 1}, \"28\": {\"O\": 1}, \"29\": {\"O\": 1}, \"30\": {\"O\": 1}, \"31\": {\"O\": 1}, \"32\": {\"O\": 1}, \"33\": {\"O\": 1}, \"34\": {\"O\": 1}, \"35\": {\"O\": 1}, \"36\": {\"O\": 1}, \"37\": {\"O\": 1}, \"38\": {\"O\": 1}, \"39\": {\"O\": 1}}" n_minim_iter=4 energy=-45145.642037818325 stress="0.07627242264079372 1.1684581339136181e-13 6.712251694721767e-15 1.1684581339136181e-13 0.07715763687401354 -9.665874715510877e-14 6.712251694721767e-15 -9.665874715510877e-14 0.07774856334395623" free_energy=-45145.642037818325 pbc="T T T"
In       2.65450478       5.10570833       9.91206724        0      -0.01927885      -0.01858535       0.01765406
In      -0.26392988       4.06811589       7.22665324        1      -0.01927885       0.01858535      -0.01765406
In       3.18236455       2.04776692      15.79601348        2       0.01927885      -0.01858535      -0.01765406
In       6.10079921       1.01017448       1.34270700        3       0.01927885       0.01858535       0.01765406
In       3.18236455       1.01017448       7.22665324        4       0.01927885       0.01858535      -0.01765406
In       6.10079921       2.04776692       9.91206724        5       0.01927885      -0.01858535       0.01765406
In       2.65450478       4.06811589       1.34270700        6      -0.01927885       0.01858535       0.01765406
In      -0.26392988       5.10570833      15.79601348        7      -0.01927885      -0.01858535      -0.01765406
In       2.67400148       4.82074516      13.92791672        8       0.00658341       0.01177311      -0.01428343
In       5.59243614       4.35307906       3.21080376        9       0.00658341      -0.01177311       0.01428343
In       3.16286785       1.76280375      11.78016400       10      -0.00658341       0.01177311       0.01428343
In       0.24443319       1.29513766       5.35855648       11      -0.00658341      -0.01177311      -0.01428343
In       3.16286785       1.29513766       3.21080376       12      -0.00658341      -0.01177311       0.01428343
In       0.24443319       1.76280375      13.92791672       13      -0.00658341       0.01177311      -0.01428343
In       2.67400148       4.35307906       5.35855648       14       0.00658341      -0.01177311      -0.01428343
In       5.59243614       4.82074516      11.78016400       15       0.00658341       0.01177311       0.01428343
O        4.83305554       5.63272240      13.69152871       16      -0.01676377      -0.01305895       0.02433488
O        1.91462088       3.54110182       3.44719177       17      -0.01676377       0.01305895      -0.02433488
O        1.00381379       2.57478099      12.01655201       18       0.01676377      -0.01305895      -0.02433488
O        3.92224846       0.48316042       5.12216847       19       0.01676377       0.01305895       0.02433488
O        1.00381379       0.48316042       3.44719177       20       0.01676377       0.01305895      -0.02433488
O        3.92224846       2.57478099      13.69152871       21       0.01676377      -0.01305895       0.02433488
O        4.83305554       3.54110182       5.12216847       22      -0.01676377       0.01305895       0.02433488
O        1.91462088       5.63272240      12.01655201       23      -0.01676377      -0.01305895      -0.02433488
O        4.06533494       3.52262022      10.79729877       24      -0.00377872       0.04818259       0.03759738
O        1.14690028       5.65120400       6.34142172       25      -0.00377872      -0.04818259      -0.03759738
O        1.77153439       0.46467882      14.91078196       26       0.00377872       0.04818259      -0.03759738
O        4.68996905       2.59326259       2.22793853       27       0.00377872      -0.04818259       0.03759738
O        1.77153439       2.59326259       6.34142172       28       0.00377872      -0.04818259      -0.03759738
O        4.68996905       0.46467882      10.79729877       29       0.00377872       0.04818259       0.03759738
O        4.06533494       5.65120400       2.22793853       30      -0.00377872      -0.04818259       0.03759738
O        1.14690028       3.52262022      14.91078196       31      -0.00377872       0.04818259      -0.03759738
O        3.68173748       4.12374436      16.34390657       32       0.01472740       0.00191609       0.01522280
O        0.76330281       5.05007986       0.79481391       33       0.01472740      -0.00191609      -0.01522280
O        2.15513185       1.06580295       9.36417415       34      -0.01472740       0.00191609      -0.01522280
O        5.07356652       1.99213846       7.77454633       35      -0.01472740      -0.00191609       0.01522280
O        2.15513185       1.99213846       0.79481391       36      -0.01472740      -0.00191609      -0.01522280
O        5.07356652       1.06580295      16.34390657       37      -0.01472740       0.00191609       0.01522280
O        3.68173748       5.05007986       7.77454633       38       0.01472740      -0.00191609       0.01522280
O        0.76330281       4.12374436       9.36417415       39       0.01472740       0.00191609      -0.01522280
40
Lattice="5.842341236349759 7.226135799707515e-43 0.0 -8.032520521482652e-43 6.116633152664688 0.0 0.0 0.0 17.120567980631613" Properties=species:S:1:pos:R:3:spacegroup_kinds:I:1:forces:R:3 spacegroup="P 1" unit_cell=conventional occupancy="_JSON {\"0\": {\"In\": 1}, \"1\": {\"In\": 1}, \"2\": {\"In\": 1}, \"3\": {\"In\": 1}, \"4\": {\"In\": 1}, \"5\": {\"In\": 1}, \"6\": {\"In\": 1}, \"7\": {\"In\": 1}, \"8\": {\"In\": 1}, \"9\": {\"In\": 1}, \"10\": {\"In\": 1}, \"11\": {\"In\": 1}, \"12\": {\"In\": 1}, \"13\": {\"In\": 1}, \"14\": {\"In\": 1}, \"15\": {\"In\": 1}, \"16\": {\"O\": 1}, \"17\": {\"O\": 1}, \"18\": {\"O\": 1}, \"19\": {\"O\": 1}, \"20\": {\"O\": 1}, \"21\": {\"O\": 1}, \"22\": {\"O\": 1}, \"23\": {\"O\": 1}, \"24\": {\"O\": 1}, \"25\": {\"O\": 1}, \"26\": {\"O\": 1}, \"27\": {\"O\": 1}, \"28\": {\"O\": 1}, \"29\": {\"O\": 1}, \"30\": {\"O\": 1}, \"31\": {\"O\": 1}, \"32\": {\"O\": 1}, \"33\": {\"O\": 1}, \"34\": {\"O\": 1}, \"35\": {\"O\": 1}, \"36\": {\"O\": 1}, \"37\": {\"O\": 1}, \"38\": {\"O\": 1}, \"39\": {\"O\": 1}}" n_minim_iter=5 energy=-45145.64421071908 stress="0.07646402297247368 -1.9028231187624238e-13 -2.879088341908749e-13 -1.9028231187624238e-13 0.07641008075315836 -2.22880672060345e-13 -2.879088341908749e-13 -2.22880672060345e-13 0.07635227210191771" free_energy=-45145.64421071908 pbc="T T T"
In       2.65468417       5.10729409       9.90272836        0      -0.00901905      -0.03888341       0.01663360
In      -0.26648645       4.06765564       7.21783962        1      -0.00901905       0.03888341      -0.01663360
In       3.18765707       2.04897751      15.77812361        2       0.00901905      -0.03888341      -0.01663360
In       6.10882768       1.00933907       1.34244437        3       0.00901905       0.03888341       0.01663360
In       3.18765707       1.00933907       7.21783962        4       0.00901905       0.03888341      -0.01663360
In       6.10882768       2.04897751       9.90272836        5       0.00901905      -0.03888341       0.01663360
In       2.65468417       4.06765564       1.34244437        6      -0.00901905       0.03888341       0.01663360
In      -0.26648645       5.10729409      15.77812361        7      -0.00901905      -0.03888341      -0.01663360
In       2.67493993       4.82358547      13.91230218        8       0.02294660      -0.00080723      -0.00886889
In       5.59611055       4.35136426       3.20826580        9       0.02294660       0.00080723       0.00886889
In       3.16740131       1.76526889      11.76854979       10      -0.02294660      -0.00080723       0.00886889
In       0.24623069       1.29304768       5.35201819       11      -0.02294660       0.00080723      -0.00886889
In       3.16740131       1.29304768       3.20826580       12      -0.02294660       0.00080723       0.00886889
In       0.24623069       1.76526889      13.91230218       13      -0.02294660      -0.00080723      -0.00886889
In       2.67493993       4.35136426       5.35201819       14       0.02294660       0.00080723      -0.00886889
In       5.59611055       4.82358547      11.76854979       15       0.02294660      -0.00080723       0.00886889
O        4.83788765       5.63131982      13.67793584       16      -0.02946471      -0.00090916       0.02927314
O        1.91671704       3.54362991       3.44263214       17      -0.02946471       0.00090916      -0.02927314
O        1.00445358       2.57300324      12.00291613       18       0.02946471      -0.00090916      -0.02927314
O        3.92562420       0.48531333       5.11765185       19       0.02946471       0.00090916       0.02927314
O        1.00445358       0.48531333       3.44263214       20       0.02946471       0.00090916      -0.02927314
O        3.92562420       2.57300324      13.67793584       21       0.02946471      -0.00090916       0.02927314
O        4.83788765       3.54362991       5.11765185       22      -0.02946471       0.00090916       0.02927314
O        1.91671704       5.63131982      12.00291613       23      -0.02946471      -0.00090916      -0.02927314
O        4.06935551       3.52556408      10.78912840       24      -0.00478927       0.04958271       0.01005519
O        1.14818489       5.64938565       6.33143958       25      -0.00478927      -0.04958271      -0.01005519
O        1.77298573       0.46724751      14.89172357       26       0.00478927       0.04958271      -0.01005519
O        4.69415635       2.59106907       2.22884441       27       0.00478927      -0.04958271       0.01005519
O        1.77298573       2.59106907       6.33143958       28       0.00478927      -0.04958271      -0.01005519
O        4.69415635       0.46724751      10.78912840       29       0.00478927       0.04958271       0.01005519
O        4.06935551       5.64938565       2.22884441       30      -0.00478927      -0.04958271       0.01005519
O        1.14818489       3.52556408      14.89172357       31      -0.00478927       0.04958271      -0.01005519
O        3.68481891       4.12186182      16.32672458       32       0.02040608       0.02470210       0.01502990
O        0.76364829       5.05308791       0.79384340       33       0.02040608      -0.02470210      -0.01502990
O        2.15752233       1.06354524       9.35412739       34      -0.02040608       0.02470210      -0.01502990
O        5.07869295       1.99477133       7.76644059       35      -0.02040608      -0.02470210       0.01502990
O        2.15752233       1.99477133       0.79384340       36      -0.02040608      -0.02470210      -0.01502990
O        5.07869295       1.06354524      16.32672458       37      -0.02040608       0.02470210       0.01502990
O        3.68481891       5.05308791       7.76644059       38       0.02040608      -0.02470210       0.01502990
O        0.76364829       4.12186182       9.35412739       39       0.02040608       0.02470210      -0.01502990
40