40
Lattice="5.711631179459683 -2.6128078992006364e-43 0.0 2.706594915974836e-43 5.916650786679913 0.0 0.0 0.0 16.563496758383344" Properties=species:S:1:pos:R:3:spacegroup_kinds:I:1:forces:R:3 spacegroup="P 1" unit_cell=conventional occupancy="_JSON {\"0\": {\"In\": 1}, \"1\": {\"In\": 1}, \"2\": {\"In\": 1}, \"3\": {\"In\": 1}, \"4\": {\"In\": 1}, \"5\": {\"In\": 1}, \"6\": {\"In\": 1}, \"7\": {\"In\": 1}, \"8\": {\"In\": 1}, \"9\": {\"In\": 1}, \"10\": {\"In\": 1}, \"11\": {\"In\": 1}, \"12\": {\"In\": 1}, \"13\": {\"In\": 1}, \"14\": {\"In\": 1}, \"15\": {\"In\": 1}, \"16\": {\"O\": 1}, \"17\": {\"O\": 1}, \"18\": {\"O\": 1}, \"19\": {\"O\": 1}, \"20\": {\"O\": 1}, \"21\": {\"O\": 1}, \"22\": {\"O\": 1}, \"23\": {\"O\": 1}, \"24\": {\"O\": 1}, \"25\": {\"O\": 1}, \"26\": {\"O\": 1}, \"27\": {\"O\": 1}, \"28\": {\"O\": 1}, \"29\": {\"O\": 1}, \"30\": {\"O\": 1}, \"31\": {\"O\": 1}, \"32\": {\"O\": 1}, \"33\": {\"O\": 1}, \"34\": {\"O\": 1}, \"35\": {\"O\": 1}, \"36\": {\"O\": 1}, \"37\": {\"O\": 1}, \"38\": {\"O\": 1}, \"39\": {\"O\": 1}}" n_minim_iter=1 energy=-45148.97555220236 stress="0.0641873812415759 -1.4336206412838207e-14 -9.429096847126726e-14 -1.4336206412838207e-14 0.06395978175376169 -1.7145991994681724e-13 -9.429096847126726e-14 -1.7145991994681724e-13 0.06372001133478711" free_energy=-45148.97555220236 pbc="T T T"
In       2.85022862       4.73485052       9.45557448        0      -0.01195592       0.02386603       0.03400260
In      -0.00558697       4.14012566       7.10792228        1      -0.01195592      -0.02386603      -0.03400260
In       2.86140256       1.77652513      15.38967065        2       0.01195592       0.02386603      -0.03400260
In       5.71721815       1.18180026       1.17382610        3       0.01195592      -0.02386603       0.03400260
In       2.86140256       1.18180026       7.10792228        4       0.01195592      -0.02386603      -0.03400260
In       5.71721815       1.77652513       9.45557448        5       0.01195592       0.02386603       0.03400260
In       2.85022862       4.14012566       1.17382610        6      -0.01195592      -0.02386603       0.03400260
In      -0.00558697       4.73485052      15.38967065        7      -0.01195592       0.02386603      -0.03400260
In       2.83253301       4.41326543      13.54862740        8      -0.03368820      -0.00426761      -0.01983509
In       5.68834860       4.46171075       3.01486936        9      -0.03368820       0.00426761       0.01983509
In       2.87909817       1.45494004      11.29661774       10       0.03368820      -0.00426761       0.01983509
In       0.02328258       1.50338535       5.26687902       11       0.03368820       0.00426761      -0.01983509
In       2.87909817       1.50338535       3.01486936       12       0.03368820       0.00426761       0.01983509
In       0.02328258       1.45494004      13.54862740       13       0.03368820      -0.00426761      -0.01983509
In       2.83253301       4.46171075       5.26687902       14      -0.03368820       0.00426761      -0.01983509
In       5.68834860       4.41326543      11.29661774       15      -0.03368820      -0.00426761       0.01983509
O        4.90471637       5.19420483      13.22166534       16      -0.01165154      -0.04470765      -0.00407517
O        2.04890078       3.68077135       3.34183142       17      -0.01165154       0.04470765       0.00407517
O        0.80691481       2.23587943      11.62357980       18       0.01165154      -0.04470765       0.00407517
O        3.66273040       0.72244596       4.93991696       19       0.01165154       0.04470765      -0.00407517
O        0.80691481       0.72244596       3.34183142       20       0.01165154       0.04470765       0.00407517
O        3.66273040       2.23587943      13.22166534       21       0.01165154      -0.04470765      -0.00407517
O        4.90471637       3.68077135       4.93991696       22      -0.01165154       0.04470765      -0.00407517
O        2.04890078       5.19420483      11.62357980       23      -0.01165154      -0.04470765       0.00407517
O        4.01835431       3.12467536      10.34476911       24      -0.06904854       0.02610152      -0.00202723
O        1.16253872       5.75030082       6.21872765       25      -0.06904854      -0.02610152       0.00202723
O        1.69327687       0.16634997      14.50047603       26       0.06904854       0.02610152       0.00202723
O        4.54909246       2.79197543       2.06302073       27       0.06904854      -0.02610152      -0.00202723
O        1.69327687       2.79197543       6.21872765       28       0.06904854      -0.02610152       0.00202723
O        4.54909246       0.16634997      10.34476911       29       0.06904854       0.02610152      -0.00202723
O        4.01835431       5.75030082       2.06302073       30      -0.06904854      -0.02610152      -0.00202723
O        1.16253872       3.12467536      14.50047603       31      -0.06904854       0.02610152       0.00202723
O        3.69683796       3.91041259      15.70861159       32       0.02417057       0.02559829       0.03673371
O        0.84102237       4.96456359       0.85488517       33       0.02417057      -0.02559829      -0.03673371
O        2.01479322       0.95208720       9.13663355       34      -0.02417057       0.02559829      -0.03673371
O        4.87060881       2.00623820       7.42686321       35      -0.02417057      -0.02559829       0.03673371
O        2.01479322       2.00623820       0.85488517       36      -0.02417057      -0.02559829      -0.03673371
O        4.87060881       0.95208720      15.70861159       37      -0.02417057       0.02559829       0.03673371
O        3.69683796       4.96456359       7.42686321       38       0.02417057      -0.02559829       0.03673371
O        0.84102237       3.91041259       9.13663355       39       0.02417057       0.02559829      -0.03673371
40
Lattice="5.705392915613189 -2.6099569424101344e-43 0.0 2.7065402574913306e-43 5.9165375542653065 0.0 0.0 0.0 16.581924592290303" Properties=species:S:1:pos:R:3:spacegroup_kinds:I:1:forces:R:3 spacegroup="P 1" unit_cell=conventional occupancy="_JSON {\"0\": {\"In\": 1}, \"1\": {\"In\": 1}, \"2\": {\"In\": 1}, \"3\": {\"In\": 1}, \"4\": {\"In\": 1}, \"5\": {\"In\": 1}, \"6\": {\"In\": 1}, \"7\": {\"In\": 1}, \"8\": {\"In\": 1}, \"9\": {\"In\": 1}, \"10\": {\"In\": 1}, \"11\": {\"In\": 1}, \"12\": {\"In\": 1}, \"13\": {\"In\": 1}, \"14\": {\"In\": 1}, \"15\": {\"In\": 1}, \"16\": {\"O\": 1}, \"17\": {\"O\": 1}, \"18\": {\"O\": 1}, \"19\": {\"O\": 1}, \"20\": {\"O\": 1}, \"21\": {\"O\": 1}, \"22\": {\"O\": 1}, \"23\": {\"O\": 1}, \"24\": {\"O\": 1}, \"25\": {\"O\": 1}, \"26\": {\"O\": 1}, \"27\": {\"O\": 1}, \"28\": {\"O\": 1}, \"29\": {\"O\": 1}, \"30\": {\"O\": 1}, \"31\": {\"O\": 1}, \"32\": {\"O\": 1}, \"33\": {\"O\": 1}, \"34\": {\"O\": 1}, \"35\": {\"O\": 1}, \"36\": {\"O\": 1}, \"37\": {\"O\": 1}, \"38\": {\"O\": 1}, \"39\": {\"O\": 1}}" n_minim_iter=2 energy=-45148.976154278855 stress="0.06320729411952358 9.608842397791154e-14 1.0543971488734412e-13 9.608842397791154e-14 0.06370557712324641 -1.0756617580894013e-13 1.0543971488734412e-13 -1.0756617580894013e-13 0.06459229187748539" free_energy=-45148.976154278855 pbc="T T T"
In       2.84701494       4.73496104       9.46638123        0      -0.00444764       0.03047208       0.02805264
In      -0.00568152       4.13984529       7.11554336        1      -0.00444764      -0.03047208      -0.02805264
In       2.85837797       1.77669226      15.40650566        2       0.00444764       0.03047208      -0.02805264
In       5.71107443       1.18157651       1.17541893        3       0.00444764      -0.03047208       0.02805264
In       2.85837797       1.18157651       7.11554336        4       0.00444764      -0.03047208      -0.02805264
In       5.71107443       1.77669226       9.46638123        5       0.00444764       0.03047208       0.02805264
In       2.84701494       4.13984529       1.17541893        6      -0.00444764      -0.03047208       0.02805264
In      -0.00568152       4.73496104      15.40650566        7      -0.00444764       0.03047208      -0.02805264
In       2.82915571       4.41314501      13.56353367        8      -0.03783720      -0.00485347      -0.02267464
In       5.68185216       4.46166132       3.01839092        9      -0.03783720       0.00485347       0.02267464
In       2.87623721       1.45487623      11.30935322       10       0.03783720      -0.00485347       0.02267464
In       0.02354075       1.50339255       5.27257137       11       0.03783720       0.00485347      -0.02267464
In       2.87623721       1.50339255       3.01839092       12       0.03783720       0.00485347       0.02267464
In       0.02354075       1.45487623      13.56353367       13       0.03783720      -0.00485347      -0.02267464
In       2.82915571       4.46166132       5.27257137       14      -0.03783720       0.00485347      -0.02267464
In       5.68185216       4.41314501      11.30935322       15      -0.03783720      -0.00485347       0.02267464
O        4.89926134       5.19372864      13.23634082       16      -0.00991145      -0.04111136      -0.00745009
O        2.04656488       3.68107769       3.34558378       17      -0.00991145       0.04111136       0.00745009
O        0.80613158       2.23545987      11.63654607       18       0.00991145      -0.04111136       0.00745009
O        3.65882804       0.72280891       4.94537852       19       0.00991145       0.04111136      -0.00745009
O        0.80613158       0.72280891       3.34558378       20       0.00991145       0.04111136       0.00745009
O        3.65882804       2.23545987      13.23634082       21       0.00991145      -0.04111136      -0.00745009
O        4.89926134       3.68107769       4.94537852       22      -0.00991145       0.04111136      -0.00745009
O        2.04656488       5.19372864      11.63654607       23      -0.00991145      -0.04111136       0.00745009
O        4.01338416       3.12483553      10.35626115       24      -0.06238026       0.02130299       0.00312145
O        1.16068770       5.74997080       6.22566344       25      -0.06238026      -0.02130299      -0.00312145
O        1.69200875       0.16656675      14.51662574       26       0.06238026       0.02130299      -0.00312145
O        4.54470521       2.79170202       2.06529885       27       0.06238026      -0.02130299       0.00312145
O        1.69200875       2.79170202       6.22566344       28       0.06238026      -0.02130299      -0.00312145
O        4.54470521       0.16656675      10.35626115       29       0.06238026       0.02130299       0.00312145
O        4.01338416       5.74997080       2.06529885       30      -0.06238026      -0.02130299       0.00312145
O        1.16068770       3.12483553      14.51662574       31      -0.06238026       0.02130299      -0.00312145
O        3.69300374       3.91055348      15.72639824       32       0.01768627       0.02095059       0.03870560
O        0.84030728       4.96425285       0.85552635       33       0.01768627      -0.02095059      -0.03870560
O        2.01238918       0.95228471       9.14648865       34      -0.01768627       0.02095059      -0.03870560
O        4.86508563       2.00598407       7.43543594       35      -0.01768627      -0.02095059       0.03870560
O        2.01238918       2.00598407       0.85552635       36      -0.01768627      -0.02095059      -0.03870560
O        4.86508563       0.95228471      15.72639824       37      -0.01768627       0.02095059       0.03870560
O        3.69300374       4.96425285       7.43543594       38       0.01768627      -0.02095059       0.03870560
O        0.84030728       3.91055348       9.14648865       39       0.01768627       0.02095059      -0.03870560
40
Lattice="5.70283870853905 -2.8358957559265413e-43 0.0 2.5547829037877255e-43 5.927451704502299 0.0 0.0 0.0 16.55880557557536" Properties=species:S:1:pos:R:3:spacegroup_kinds:I:1:forces:R:3 spacegroup="P 1" unit_cell=conventional occupancy="_JSON {\"0\": {\"In\": 1}, \"1\": {\"In\": 1}, \"2\": {\"In\": 1}, \"3\": {\"In\": 1}, \"4\": {\"In\": 1}, \"5\": {\"In\": 1}, \"6\": {\"In\": 1}, \"7\": {\"In\": 1}, \"8\": {\"In\": 1}, \"9\": {\"In\": 1}, \"10\": {\"In\": 1}, \"11\": {\"In\": 1}, \"12\": {\"In\": 1}, \"13\": {\"In\": 1}, \"14\": {\"In\": 1}, \"15\": {\"In\": 1}, \"16\": {\"O\": 1}, \"17\": {\"O\": 1}, \"18\": {\"O\": 1}, \"19\": {\"O\": 1}, \"20\": {\"O\": 1}, \"21\": {\"O\": 1}, \"22\": {\"O\": 1}, \"23\": {\"O\": 1}, \"24\": {\"O\": 1}, \"25\": {\"O\": 1}, \"26\": {\"O\": 1}, \"27\": {\"O\": 1}, \"28\": {\"O\": 1}, \"29\": {\"O\": 1}, \"30\": {\"O\": 1}, \"31\": {\"O\": 1}, \"32\": {\"O\": 1}, \"33\": {\"O\": 1}, \"34\": {\"O\": 1}, \"35\": {\"O\": 1}, \"36\": {\"O\": 1}, \"37\": {\"O\": 1}, \"38\": {\"O\": 1}, \"39\": {\"O\": 1}}" n_minim_iter=3 energy=-45148.98180586757 stress="0.06244105835467618 6.912194017886166e-13 -1.17641724908393e-13 6.912194017886166e-13 0.063987185129553 4.786233918398819e-13 -1.17641724908393e-13 4.786233918398819e-13 0.06262762184490038" free_energy=-45148.98180586757 pbc="T T T"
In       2.84467258       4.74643824       9.45665458        0      -0.01805004       0.05285717      -0.00346284
In      -0.00674678       4.14473932       7.10215100        1      -0.01805004      -0.05285717       0.00346284
In       2.85816613       1.78271239      15.38155378        2       0.01805004       0.05285717       0.00346284
In       5.70958549       1.18101347       1.17725179        3       0.01805004      -0.05285717      -0.00346284
In       2.85816613       1.18101347       7.10215100        4       0.01805004      -0.05285717       0.00346284
In       5.70958549       1.78271239       9.45665458        5       0.01805004       0.05285717      -0.00346284
In       2.84467258       4.14473932       1.17725179        6      -0.01805004      -0.05285717      -0.00346284
In      -0.00674678       4.74643824      15.38155378        7      -0.01805004       0.05285717       0.00346284
In       2.82417605       4.42081208      13.54242157        8      -0.02006592      -0.02178145       0.00522206
In       5.67559540       4.47036547       3.01638401        9      -0.02006592       0.02178145      -0.00522206
In       2.87866266       1.45708623      11.29578679       10       0.02006592      -0.02178145      -0.00522206
In       0.02724331       1.50663962       5.26301878       11       0.02006592       0.02178145       0.00522206
In       2.87866266       1.50663962       3.01638401       12       0.02006592       0.02178145      -0.00522206
In       0.02724331       1.45708623      13.54242157       13       0.02006592      -0.02178145       0.00522206
In       2.82417605       4.47036547       5.26301878       14      -0.02006592       0.02178145       0.00522206
In       5.67559540       4.42081208      11.29578679       15      -0.02006592      -0.02178145      -0.00522206
O        4.89587217       5.19861816      13.21735606       16      -0.00786595      -0.00624083       0.01309372
O        2.04445282       3.69255940       3.34144952       17      -0.00786595       0.00624083      -0.01309372
O        0.80696654       2.23489231      11.62085231       18       0.00786595      -0.00624083      -0.01309372
O        3.65838589       0.72883355       4.93795327       19       0.00786595       0.00624083       0.01309372
O        0.80696654       0.72883355       3.34144952       20       0.00786595       0.00624083      -0.01309372
O        3.65838589       2.23489231      13.21735606       21       0.00786595      -0.00624083       0.01309372
O        4.89587217       3.69255940       4.93795327       22      -0.00786595       0.00624083       0.01309372
O        2.04445282       5.19861816      11.62085231       23      -0.00786595      -0.00624083      -0.01309372
O        4.00439925       3.13326331      10.34174906       24       0.00213874       0.00192287       0.01846585
O        1.15297990       5.75791425       6.21705652       25       0.00213874      -0.00192287      -0.01846585
O        1.69843946       0.16953746      14.49645931       26      -0.00213874       0.00192287      -0.01846585
O        4.54985881       2.79418840       2.06234627       27      -0.00213874      -0.00192287       0.01846585
O        1.69843946       2.79418840       6.21705652       28      -0.00213874      -0.00192287      -0.01846585
O        4.54985881       0.16953746      10.34174906       29      -0.00213874       0.00192287       0.01846585
O        4.00439925       5.75791425       2.06234627       30       0.00213874      -0.00192287       0.01846585
O        1.15297990       3.13326331      14.49645931       31       0.00213874       0.00192287      -0.01846585
O        3.69375117       3.92038094      15.70845714       32      -0.01619686      -0.00738888      -0.00156658
O        0.84233182       4.97079661       0.85034843       33      -0.01619686       0.00738888       0.00156658
O        2.00908754       0.95665509       9.12975122       34       0.01619686      -0.00738888       0.00156658
O        4.86050689       2.00707076       7.42905435       35       0.01619686       0.00738888      -0.00156658
O        2.00908754       2.00707076       0.85034843       36       0.01619686       0.00738888       0.00156658
O        4.86050689       0.95665509      15.70845714       37       0.01619686      -0.00738888      -0.00156658
O        3.69375117       4.97079661       7.42905435       38      -0.01619686       0.00738888      -0.00156658
O        0.84233182       3.92038094       9.12975122       39      -0.01619686      -0.00738888       0.00156658
40
Lattice="5.708161571471647 -2.8376008540501187e-43 0.0 2.5500937450460715e-43 5.919102784203593 0.0 0.0 0.0 16.566698970571238" Properties=species:S:1:pos:R:3:spacegroup_kinds:I:1:forces:R:3 spacegroup="P 1" unit_cell=conventional occupancy="_JSON {\"0\": {\"In\": 1}, \"1\": {\"In\": 1}, \"2\": {\"In\": 1}, \"3\": {\"In\": 1}, \"4\": {\"In\": 1}, \"5\": {\"In\": 1}, \"6\": {\"In\": 1}, \"7\": {\"In\": 1}, \"8\": {\"In\": 1}, \"9\": {\"In\": 1}, \"10\": {\"In\": 1}, \"11\": {\"In\": 1}, \"12\": {\"In\": 1}, \"13\": {\"In\": 1}, \"14\": {\"In\": 1}, \"15\": {\"In\": 1}, \"16\": {\"O\": 1}, \"17\": {\"O\": 1}, \"18\": {\"O\": 1}, \"19\": {\"O\": 1}, \"20\": {\"O\": 1}, \"21\": {\"O\": 1}, \"22\": {\"O\": 1}, \"23\": {\"O\": 1}, \"24\": {\"O\": 1}, \"25\": {\"O\": 1}, \"26\": {\"O\": 1}, \"27\": {\"O\": 1}, \"28\": {\"O\": 1}, \"29\": {\"O\": 1}, \"30\": {\"O\": 1}, \"31\": {\"O\": 1}, \"32\": {\"O\": 1}, \"33\": {\"O\": 1}, \"34\": {\"O\": 1}, \"35\": {\"O\": 1}, \"36\": {\"O\": 1}, \"37\": {\"O\": 1}, \"38\": {\"O\": 1}, \"39\": {\"O\": 1}}" n_minim_iter=4 energy=-45148.98254677967 stress="0.0629287409941357 4.562059000470374e-13 1.731247319741856e-13 4.562059000470374e-13 0.06279230783748303 -1.0979265239322758e-13 1.731247319741856e-13 -1.0979265239322758e-13 0.06289670417876587" free_energy=-45148.98254677967 pbc="T T T"
In       2.84713287       4.74027322       9.46160699        0      -0.02308965       0.04609817      -0.01264245
In      -0.00694792       4.13838095       7.10509198        1      -0.02308965      -0.04609817       0.01264245
In       2.86102870       1.78072183      15.38844146        2       0.02308965       0.04609817       0.01264245
In       5.71510949       1.17882956       1.17825751        3       0.02308965      -0.04609817      -0.01264245
In       2.86102870       1.17882956       7.10509198        4       0.02308965      -0.04609817       0.01264245
In       5.71510949       1.78072183       9.46160699        5       0.02308965       0.04609817      -0.01264245
In       2.84713287       4.13838095       1.17825751        6      -0.02308965      -0.04609817      -0.01264245
In      -0.00694792       4.74027322      15.38844146        7      -0.02308965       0.04609817       0.01264245
In       2.82626394       4.41445676      13.54860434        8      -0.01453718      -0.01771713       0.00145417
In       5.68034473       4.46419741       3.01809463        9      -0.01453718       0.01771713      -0.00145417
In       2.88189763       1.45490537      11.30144412       10       0.01453718      -0.01771713      -0.00145417
In       0.02781684       1.50464602       5.26525485       11       0.01453718       0.01771713       0.00145417
In       2.88189763       1.50464602       3.01809463       12       0.01453718       0.01771713      -0.00145417
In       0.02781684       1.45490537      13.54860434       13       0.01453718      -0.01771713       0.00145417
In       2.82626394       4.46419741       5.26525485       14      -0.01453718       0.01771713       0.00145417
In       5.68034473       4.41445676      11.30144412       15      -0.01453718      -0.01771713      -0.00145417
O        4.90026108       5.19066290      13.22362695       16      -0.00475366      -0.00224948       0.01499007
O        2.04618030       3.68799128       3.34307202       17      -0.00475366       0.00224948      -0.01499007
O        0.80790049       2.23111150      11.62642151       18       0.00475366      -0.00224948      -0.01499007
O        3.66198127       0.72843989       4.94027746       19       0.00475366       0.00224948       0.01499007
O        0.80790049       0.72843989       3.34307202       20       0.00475366       0.00224948      -0.01499007
O        3.66198127       2.23111150      13.22362695       21       0.00475366      -0.00224948       0.01499007
O        4.90026108       3.68799128       4.94027746       22      -0.00475366       0.00224948       0.01499007
O        2.04618030       5.19066290      11.62642151       23      -0.00475366      -0.00224948      -0.01499007
O        4.00720057       3.12920440      10.34672560       24       0.01265476      -0.00023245       0.02268088
O        1.15311979       5.74944978       6.21997337       25       0.01265476       0.00023245      -0.02268088
O        1.70096100       0.16965301      14.50332285       26      -0.01265476      -0.00023245      -0.02268088
O        4.55504178       2.78989839       2.06337612       27      -0.01265476       0.00023245       0.02268088
O        1.70096100       2.78989839       6.21997337       28      -0.01265476       0.00023245      -0.02268088
O        4.55504178       0.16965301      10.34672560       29      -0.01265476      -0.00023245       0.02268088
O        4.00720057       5.74944978       2.06337612       30       0.01265476       0.00023245       0.02268088
O        1.15311979       3.12920440      14.50332285       31       0.01265476      -0.00023245      -0.02268088
O        3.69746437       3.91517842      15.71646292       32      -0.02226854      -0.00682861      -0.00608230
O        0.84338359       4.96347575       0.85023605       33      -0.02226854       0.00682861       0.00608230
O        2.01069720       0.95562703       9.13358554       34       0.02226854      -0.00682861       0.00608230
O        4.86477799       2.00392436       7.43311343       35       0.02226854       0.00682861      -0.00608230
O        2.01069720       2.00392436       0.85023605       36       0.02226854       0.00682861       0.00608230
O        4.86477799       0.95562703      15.71646292       37       0.02226854      -0.00682861      -0.00608230
O        3.69746437       4.96347575       7.43311343       38      -0.02226854       0.00682861      -0.00608230
O        0.84338359       3.91517842       9.13358554       39      -0.02226854      -0.00682861       0.00608230
40
Lattice="5.704021455515309 -2.836303172006816e-43 0.0 2.5516261490991217e-43 5.923197964791691 0.0 0.0 0.0 16.56726128133883" Properties=species:S:1:pos:R:3:spacegroup_kinds:I:1:forces:R:3 spacegroup="P 1" unit_cell=conventional occupancy="_JSON {\"0\": {\"In\": 1}, \"1\": {\"In\": 1}, \"2\": {\"In\": 1}, \"3\": {\"In\": 1}, \"4\": {\"In\": 1}, \"5\": {\"In\": 1}, \"6\": {\"In\": 1}, \"7\": {\"In\": 1}, \"8\": {\"In\": 1}, \"9\": {\"In\": 1}, \"10\": {\"In\": 1}, \"11\": {\"In\": 1}, \"12\": {\"In\": 1}, \"13\": {\"In\": 1}, \"14\": {\"In\": 1}, \"15\": {\"In\": 1}, \"16\": {\"O\": 1}, \"17\": {\"O\": 1}, \"18\": {\"O\": 1}, \"19\": {\"O\": 1}, \"20\": {\"O\": 1}, \"21\": {\"O\": 1}, \"22\": {\"O\": 1}, \"23\": {\"O\": 1}, \"24\": {\"O\": 1}, \"25\": {\"O\": 1}, \"26\": {\"O\": 1}, \"27\": {\"O\": 1}, \"28\": {\"O\": 1}, \"29\": {\"O\": 1}, \"30\": {\"O\": 1}, \"31\": {\"O\": 1}, \"32\": {\"O\": 1}, \"33\": {\"O\": 1}, \"34\": {\"O\": 1}, \"35\": {\"O\": 1}, \"36\": {\"O\": 1}, \"37\": {\"O\": 1}, \"38\": {\"O\": 1}, \"39\": {\"O\": 1}}" n_minim_iter=5 energy=-45148.98541425046 stress="0.062294801624010625 1.4311631419070297e-13 -3.8292635290194233e-13 1.4311631419070297e-13 0.062248087018647785 6.421461243322166e-13 -3.8292635290194233e-13 6.421461243322166e-13 0.06229306903747805" free_energy=-45148.98541425046 pbc="T T T"
In       2.84113995       4.75192996       9.46192425        0       0.00372231      -0.00876654       0.01474188
In      -0.01087078       4.13286698       7.10533703        1       0.00372231       0.00876654      -0.01474188
In       2.86288151       1.79033098      15.38896767        2      -0.00372231      -0.00876654      -0.01474188
In       5.71489223       1.17126800       1.17829361        3      -0.00372231       0.00876654       0.01474188
In       2.86288151       1.17126800       7.10533703        4      -0.00372231       0.00876654      -0.01474188
In       5.71489223       1.79033098       9.46192425        5      -0.00372231      -0.00876654       0.01474188
In       2.84113995       4.13286698       1.17829361        6       0.00372231       0.00876654       0.01474188
In      -0.01087078       4.75192996      15.38896767        7       0.00372231      -0.00876654      -0.01474188
In       2.82008327       4.41457035      13.54820002        8      -0.00734933      -0.00219950      -0.01926593
In       5.67209399       4.47022660       3.01906126        9      -0.00734933       0.00219950       0.01926593
In       2.88393819       1.45297136      11.30269190       10       0.00734933      -0.00219950       0.01926593
In       0.03192746       1.50862762       5.26456938       11       0.00734933       0.00219950      -0.01926593
In       2.88393819       1.50862762       3.01906126       12       0.00734933       0.00219950       0.01926593
In       0.03192746       1.45297136      13.54820002       13       0.00734933      -0.00219950      -0.01926593
In       2.82008327       4.47022660       5.26456938       14      -0.00734933       0.00219950      -0.01926593
In       5.67209399       4.41457035      11.30269190       15      -0.00734933      -0.00219950       0.01926593
O        4.89535007       5.19147319      13.22602159       16      -0.01414475       0.00797381       0.00980553
O        2.04333934       3.69332376       3.34123969       17      -0.01414475      -0.00797381      -0.00980553
O        0.80867138       2.22987420      11.62487033       18       0.01414475       0.00797381      -0.00980553
O        3.66068211       0.73172478       4.94239095       19       0.01414475      -0.00797381       0.00980553
O        0.80867138       0.73172478       3.34123969       20       0.01414475      -0.00797381      -0.00980553
O        3.66068211       2.22987420      13.22602159       21       0.01414475       0.00797381       0.00980553
O        4.89535007       3.69332376       4.94239095       22      -0.01414475      -0.00797381       0.00980553
O        2.04333934       5.19147319      11.62487033       23      -0.01414475       0.00797381      -0.00980553
O        4.00237975       3.13272113      10.35037783       24       0.00451535       0.01703441      -0.00558829
O        1.15036903       5.75207582       6.21688345       25       0.00451535      -0.01703441       0.00558829
O        1.70164170       0.17112214      14.50051409       26      -0.00451535       0.01703441       0.00558829
O        4.55365243       2.79047684       2.06674719       27      -0.00451535      -0.01703441      -0.00558829
O        1.70164170       2.79047684       6.21688345       28      -0.00451535      -0.01703441       0.00558829
O        4.55365243       0.17112214      10.35037783       29      -0.00451535       0.01703441      -0.00558829
O        4.00237975       5.75207582       2.06674719       30       0.00451535      -0.01703441      -0.00558829
O        1.15036903       3.13272113      14.50051409       31       0.00451535       0.01703441       0.00558829
O        3.69276332       3.91819456      15.71817981       32      -0.01544144       0.00051473      -0.00938414
O        0.84075260       4.96660239       0.84908148       33      -0.01544144      -0.00051473       0.00938414
O        2.01125813       0.95659557       9.13271212       34       0.01544144       0.00051473       0.00938414
O        4.86326886       2.00500341       7.43454916       35       0.01544144      -0.00051473      -0.00938414
O        2.01125813       2.00500341       0.84908148       36       0.01544144      -0.00051473       0.00938414
O        4.86326886       0.95659557      15.71817981       37       0.01544144       0.00051473      -0.00938414
O        3.69276332       4.96660239       7.43454916       38      -0.01544144      -0.00051473      -0.00938414
O        0.84075260       3.91819456       9.13271212       39      -0.01544144       0.00051473       0.00938414
40