40
Lattice="5.631436727007088 -1.079948486545398e-43 0.0 1.116104857759209e-43 5.819975642803047 0.0 0.0 0.0 16.284076913413347" Properties=species:S:1:pos:R:3:spacegroup_kinds:I:1:forces:R:3 spacegroup="P 1" unit_cell=conventional occupancy="_JSON {\"0\": {\"In\": 1}, \"1\": {\"In\": 1}, \"2\": {\"In\": 1}, \"3\": {\"In\": 1}, \"4\": {\"In\": 1}, \"5\": {\"In\": 1}, \"6\": {\"In\": 1}, \"7\": {\"In\": 1}, \"8\": {\"In\": 1}, \"9\": {\"In\": 1}, \"10\": {\"In\": 1}, \"11\": {\"In\": 1}, \"12\": {\"In\": 1}, \"13\": {\"In\": 1}, \"14\": {\"In\": 1}, \"15\": {\"In\": 1}, \"16\": {\"O\": 1}, \"17\": {\"O\": 1}, \"18\": {\"O\": 1}, \"19\": {\"O\": 1}, \"20\": {\"O\": 1}, \"21\": {\"O\": 1}, \"22\": {\"O\": 1}, \"23\": {\"O\": 1}, \"24\": {\"O\": 1}, \"25\": {\"O\": 1}, \"26\": {\"O\": 1}, \"27\": {\"O\": 1}, \"28\": {\"O\": 1}, \"29\": {\"O\": 1}, \"30\": {\"O\": 1}, \"31\": {\"O\": 1}, \"32\": {\"O\": 1}, \"33\": {\"O\": 1}, \"34\": {\"O\": 1}, \"35\": {\"O\": 1}, \"36\": {\"O\": 1}, \"37\": {\"O\": 1}, \"38\": {\"O\": 1}, \"39\": {\"O\": 1}}" n_minim_iter=1 energy=-45150.12675274309 stress="0.02530248932244056 4.295254554557504e-14 -2.6999728784245975e-13 4.295254554557504e-14 0.025072485618639742 5.699784820902897e-14 -2.6999728784245975e-13 5.699784820902897e-14 0.023559510823660645" free_energy=-45150.12675274309 pbc="T T T"
In       2.81239116       4.64652034       9.29400986        0      -0.00164827      -0.01385461       0.01374097
In      -0.00332720       4.08344312       6.99006705        1      -0.00164827       0.01385461      -0.01374097
In       2.81904557       1.73653252      15.13210551        2       0.00164827      -0.01385461      -0.01374097
In       5.63476393       1.17345530       1.15197140        3       0.00164827       0.01385461       0.01374097
In       2.81904557       1.17345530       6.99006705        4       0.00164827       0.01385461      -0.01374097
In       5.63476393       1.73653252       9.29400986        5       0.00164827      -0.01385461       0.01374097
In       2.81239116       4.08344312       1.15197140        6      -0.00164827       0.01385461       0.01374097
In      -0.00332720       4.64652034      15.13210551        7      -0.00164827      -0.01385461      -0.01374097
In       2.80094929       4.34239235      13.32442342        8      -0.02050547       0.02066743      -0.02075372
In       5.61666766       4.38757111       2.95965349        9      -0.02050547      -0.02066743       0.02075372
In       2.83048743       1.43240453      11.10169195       10       0.02050547       0.02066743       0.02075372
In       0.01476907       1.47758329       5.18238497       11       0.02050547      -0.02066743      -0.02075372
In       2.83048743       1.47758329       2.95965349       12       0.02050547      -0.02066743       0.02075372
In       0.01476907       1.43240453      13.32442342       13       0.02050547       0.02066743      -0.02075372
In       2.80094929       4.38757111       5.18238497       14      -0.02050547      -0.02066743      -0.02075372
In       5.61666766       4.34239235      11.10169195       15      -0.02050547       0.02066743       0.02075372
O        4.83900536       5.12156874      12.99787271       16      -0.01033883      -0.04301752      -0.02274899
O        2.02328700       3.60839473       3.28620421       17      -0.01033883       0.04301752       0.02274899
O        0.79243137       2.21158091      11.42824266       18       0.01033883      -0.04301752       0.02274899
O        3.60814973       0.69840691       4.85583425       19       0.01033883       0.04301752      -0.02274899
O        0.79243137       0.69840691       3.28620421       20       0.01033883       0.04301752       0.02274899
O        3.60814973       2.21158091      12.99787271       21       0.01033883      -0.04301752      -0.02274899
O        4.83900536       3.60839473       4.85583425       22      -0.01033883       0.04301752      -0.02274899
O        2.02328700       5.12156874      11.42824266       23      -0.01033883      -0.04301752       0.02274899
O        3.97830675       3.06347755      10.16922068       24      -0.07224283       0.02799398      -0.01180334
O        1.16258839       5.66648591       6.11485624       25      -0.07224283      -0.02799398       0.01180334
O        1.65312998       0.15348973      14.25689469       26       0.07224283       0.02799398       0.01180334
O        4.46884834       2.75649809       2.02718222       27       0.07224283      -0.02799398      -0.01180334
O        1.65312998       2.75649809       6.11485624       28       0.07224283      -0.02799398       0.01180334
O        4.46884834       0.15348973      10.16922068       29       0.07224283       0.02799398      -0.01180334
O        3.97830675       5.66648591       2.02718222       30      -0.07224283      -0.02799398      -0.01180334
O        1.16258839       3.06347755      14.25689469       31      -0.07224283       0.02799398       0.01180334
O        3.63950842       3.83940237      15.43372230       32       0.04381494       0.03582472       0.05761775
O        0.82379006       4.89056110       0.85035461       33       0.04381494      -0.03582472      -0.05761775
O        1.99192831       0.92941455       8.99239307       34      -0.04381494       0.03582472      -0.05761775
O        4.80764667       1.98057327       7.29168384       35      -0.04381494      -0.03582472       0.05761775
O        1.99192831       1.98057327       0.85035461       36      -0.04381494      -0.03582472      -0.05761775
O        4.80764667       0.92941455      15.43372230       37      -0.04381494       0.03582472       0.05761775
O        3.63950842       4.89056110       7.29168384       38       0.04381494      -0.03582472       0.05761775
O        0.82379006       3.83940237       8.99239307       39       0.04381494       0.03582472      -0.05761775
40
Lattice="5.626760173139303 -1.1177434182241223e-43 0.0 1.1554174222336618e-43 5.816832351092799 0.0 0.0 0.0 16.306417934147234" Properties=species:S:1:pos:R:3:spacegroup_kinds:I:1:forces:R:3 spacegroup="P 1" unit_cell=conventional occupancy="_JSON {\"0\": {\"In\": 1}, \"1\": {\"In\": 1}, \"2\": {\"In\": 1}, \"3\": {\"In\": 1}, \"4\": {\"In\": 1}, \"5\": {\"In\": 1}, \"6\": {\"In\": 1}, \"7\": {\"In\": 1}, \"8\": {\"In\": 1}, \"9\": {\"In\": 1}, \"10\": {\"In\": 1}, \"11\": {\"In\": 1}, \"12\": {\"In\": 1}, \"13\": {\"In\": 1}, \"14\": {\"In\": 1}, \"15\": {\"In\": 1}, \"16\": {\"O\": 1}, \"17\": {\"O\": 1}, \"18\": {\"O\": 1}, \"19\": {\"O\": 1}, \"20\": {\"O\": 1}, \"21\": {\"O\": 1}, \"22\": {\"O\": 1}, \"23\": {\"O\": 1}, \"24\": {\"O\": 1}, \"25\": {\"O\": 1}, \"26\": {\"O\": 1}, \"27\": {\"O\": 1}, \"28\": {\"O\": 1}, \"29\": {\"O\": 1}, \"30\": {\"O\": 1}, \"31\": {\"O\": 1}, \"32\": {\"O\": 1}, \"33\": {\"O\": 1}, \"34\": {\"O\": 1}, \"35\": {\"O\": 1}, \"36\": {\"O\": 1}, \"37\": {\"O\": 1}, \"38\": {\"O\": 1}, \"39\": {\"O\": 1}}" n_minim_iter=2 energy=-45150.127520323236 stress="0.024328113984708313 5.734092647125552e-14 -2.362689554921809e-14 5.734092647125552e-14 0.024534154409843797 8.45365744213778e-14 -2.362689554921809e-14 8.45365744213778e-14 0.02481623254588299" free_energy=-45150.127520323236 pbc="T T T"
In       2.81005175       4.64397804       9.30679339        0       0.00690437      -0.00708018       0.00616926
In      -0.00332834       4.08127048       6.99962454        1       0.00690437       0.00708018      -0.00616926
In       2.81670843       1.73556187      15.15283351        2      -0.00690437      -0.00708018      -0.00616926
In       5.63008851       1.17285431       1.15358443        3      -0.00690437       0.00708018       0.00616926
In       2.81670843       1.17285431       6.99962454        4      -0.00690437       0.00708018      -0.00616926
In       5.63008851       1.73556187       9.30679339        5      -0.00690437      -0.00708018       0.00616926
In       2.81005175       4.08127048       1.15358443        6       0.00690437       0.00708018       0.00616926
In      -0.00332834       4.64397804      15.15283351        7       0.00690437      -0.00708018      -0.00616926
In       2.79857479       4.34009598      13.34265474        8      -0.02829286       0.02125014      -0.02484488
In       5.61195487       4.38515255       2.96376319        9      -0.02829286      -0.02125014       0.02484488
In       2.82818539       1.43167980      11.11697216       10       0.02829286       0.02125014       0.02484488
In       0.01480530       1.47673637       5.18944577       11       0.02829286      -0.02125014      -0.02484488
In       2.82818539       1.47673637       2.96376319       12       0.02829286      -0.02125014       0.02484488
In       0.01480530       1.43167980      13.34265474       13       0.02829286       0.02125014      -0.02484488
In       2.79857479       4.38515255       5.18944577       14      -0.02829286      -0.02125014      -0.02484488
In       5.61195487       4.34009598      11.11697216       15      -0.02829286       0.02125014       0.02484488
O        4.83496242       5.11870088      13.01565129       16      -0.00603507      -0.04077830      -0.02882393
O        2.02158233       3.60654765       3.29076665       17      -0.00603507       0.04077830       0.02882393
O        0.79179775       2.21028470      11.44397562       18       0.00603507      -0.04077830       0.02882393
O        3.60517784       0.69813147       4.86244232       19       0.00603507       0.04077830      -0.02882393
O        0.79179775       0.69813147       3.29076665       20       0.00603507       0.04077830       0.02882393
O        3.60517784       2.21028470      13.01565129       21       0.00603507      -0.04077830      -0.02882393
O        4.83496242       3.60654765       4.86244232       22      -0.00603507       0.04077830      -0.02882393
O        2.02158233       5.11870088      11.44397562       23      -0.00603507      -0.04077830       0.02882393
O        3.97483217       3.06188923      10.18314441       24      -0.06808090       0.02322854      -0.00845565
O        1.16145208       5.66335930       6.12327352       25      -0.06808090      -0.02322854       0.00845565
O        1.65192801       0.15347306      14.27648249       26       0.06808090       0.02322854       0.00845565
O        4.46530809       2.75494312       2.02993545       27       0.06808090      -0.02322854      -0.00845565
O        1.65192801       2.75494312       6.12327352       28       0.06808090      -0.02322854       0.00845565
O        4.46530809       0.15347306      10.18314441       29       0.06808090       0.02322854      -0.00845565
O        3.97483217       5.66335930       2.02993545       30      -0.06808090      -0.02322854      -0.00845565
O        1.16145208       3.06188923      14.27648249       31      -0.06808090       0.02322854       0.00845565
O        3.63658966       3.83741351      15.45503324       32       0.03645234       0.03275035       0.06216341
O        0.82320957       4.88783502       0.85138470       33       0.03645234      -0.03275035      -0.06216341
O        1.99017051       0.92899733       9.00459367       34      -0.03645234       0.03275035      -0.06216341
O        4.80355060       1.97941884       7.30182427       35      -0.03645234      -0.03275035       0.06216341
O        1.99017051       1.97941884       0.85138470       36      -0.03645234      -0.03275035      -0.06216341
O        4.80355060       0.92899733      15.45503324       37      -0.03645234       0.03275035       0.06216341
O        3.63658966       4.88783502       7.30182427       38       0.03645234      -0.03275035       0.06216341
O        0.82320957       3.83741351       9.00459367       39       0.03645234       0.03275035      -0.06216341
40
Lattice="5.635062982438831 -1.1179079399867195e-43 0.0 1.1524351505596638e-43 5.806622695526396 0.0 0.0 0.0 16.311020714226935" Properties=species:S:1:pos:R:3:spacegroup_kinds:I:1:forces:R:3 spacegroup="P 1" unit_cell=conventional occupancy="_JSON {\"0\": {\"In\": 1}, \"1\": {\"In\": 1}, \"2\": {\"In\": 1}, \"3\": {\"In\": 1}, \"4\": {\"In\": 1}, \"5\": {\"In\": 1}, \"6\": {\"In\": 1}, \"7\": {\"In\": 1}, \"8\": {\"In\": 1}, \"9\": {\"In\": 1}, \"10\": {\"In\": 1}, \"11\": {\"In\": 1}, \"12\": {\"In\": 1}, \"13\": {\"In\": 1}, \"14\": {\"In\": 1}, \"15\": {\"In\": 1}, \"16\": {\"O\": 1}, \"17\": {\"O\": 1}, \"18\": {\"O\": 1}, \"19\": {\"O\": 1}, \"20\": {\"O\": 1}, \"21\": {\"O\": 1}, \"22\": {\"O\": 1}, \"23\": {\"O\": 1}, \"24\": {\"O\": 1}, \"25\": {\"O\": 1}, \"26\": {\"O\": 1}, \"27\": {\"O\": 1}, \"28\": {\"O\": 1}, \"29\": {\"O\": 1}, \"30\": {\"O\": 1}, \"31\": {\"O\": 1}, \"32\": {\"O\": 1}, \"33\": {\"O\": 1}, \"34\": {\"O\": 1}, \"35\": {\"O\": 1}, \"36\": {\"O\": 1}, \"37\": {\"O\": 1}, \"38\": {\"O\": 1}, \"39\": {\"O\": 1}}" n_minim_iter=3 energy=-45150.13084413862 stress="0.025056763803166963 4.336184722134099e-13 5.2973842343287884e-14 4.336184722134099e-13 0.022805697701458644 5.42230590989255e-13 5.2973842343287884e-14 5.42230590989255e-13 0.024313949627750183" free_energy=-45150.13084413862 pbc="T T T"
In       2.81446230       4.63540015       9.30981115        0      -0.01297406       0.01542320      -0.00929534
In      -0.00306920       4.07453389       7.00120956        1      -0.01297406      -0.01542320       0.00929534
In       2.82060069       1.73208881      15.15671992        2       0.01297406       0.01542320       0.00929534
In       5.63813218       1.17122254       1.15430080        3       0.01297406      -0.01542320      -0.00929534
In       2.82060069       1.17122254       7.00120956        4       0.01297406      -0.01542320       0.00929534
In       5.63813218       1.73208881       9.30981115        5       0.01297406       0.01542320      -0.00929534
In       2.81446230       4.07453389       1.15430080        6      -0.01297406      -0.01542320      -0.00929534
In      -0.00306920       4.63540015      15.15671992        7      -0.01297406       0.01542320       0.00929534
In       2.80134661       4.33354840      13.34519743        8      -0.00601423       0.00636324      -0.00558018
In       5.61887810       4.37638564       2.96582329        9      -0.00601423      -0.00636324       0.00558018
In       2.83371637       1.43023706      11.12133364       10       0.00601423       0.00636324       0.00558018
In       0.01618488       1.47307429       5.18968707       11       0.00601423      -0.00636324      -0.00558018
In       2.83371637       1.47307429       2.96582329       12       0.00601423      -0.00636324       0.00558018
In       0.01618488       1.43023706      13.34519743       13       0.00601423       0.00636324      -0.00558018
In       2.80134661       4.37638564       5.18968707       14      -0.00601423      -0.00636324      -0.00558018
In       5.61887810       4.33354840      11.12133364       15      -0.00601423       0.00636324       0.00558018
O        4.84174692       5.10762919      13.01791916       16      -0.00108692      -0.01922167      -0.00066655
O        2.02421542       3.60230486       3.29310155       17      -0.00108692       0.01922167       0.00066655
O        0.79331607       2.20431784      11.44861191       18       0.00108692      -0.01922167       0.00066655
O        3.61084756       0.69899351       4.86240881       19       0.00108692       0.01922167      -0.00066655
O        0.79331607       0.69899351       3.29310155       20       0.00108692       0.01922167       0.00066655
O        3.61084756       2.20431784      13.01791916       21       0.00108692      -0.01922167      -0.00066655
O        4.84174692       3.60230486       4.86240881       22      -0.00108692       0.01922167      -0.00066655
O        2.02421542       5.10762919      11.44861191       23      -0.00108692      -0.01922167       0.00066655
O        3.97719868       3.05773926      10.18555439       24      -0.01956883       0.00650294       0.00663715
O        1.15966719       5.65219478       6.12546632       25      -0.01956883      -0.00650294      -0.00663715
O        1.65786430       0.15442791      14.28097668       26       0.01956883       0.00650294      -0.00663715
O        4.47539579       2.74888343       2.03004404       27       0.01956883      -0.00650294       0.00663715
O        1.65786430       2.74888343       6.12546632       28       0.01956883      -0.00650294      -0.00663715
O        4.47539579       0.15442791      10.18555439       29       0.01956883       0.00650294       0.00663715
O        3.97719868       5.65219478       2.03004404       30      -0.01956883      -0.00650294       0.00663715
O        1.15966719       3.05773926      14.28097668       31      -0.01956883       0.00650294      -0.00663715
O        3.64388102       3.83236743      15.46251463       32       0.01429638       0.01733366       0.02228978
O        0.82634953       4.87756662       0.84850609       33       0.01429638      -0.01733366      -0.02228978
O        1.99118196       0.92905608       9.00401644       34      -0.01429638       0.01733366      -0.02228978
O        4.80871345       1.97425527       7.30700427       35      -0.01429638      -0.01733366       0.02228978
O        1.99118196       1.97425527       0.84850609       36      -0.01429638      -0.01733366      -0.02228978
O        4.80871345       0.92905608      15.46251463       37      -0.01429638       0.01733366       0.02228978
O        3.64388102       4.87756662       7.30700427       38       0.01429638      -0.01733366       0.02228978
O        0.82634953       3.83236743       9.00401644       39       0.01429638       0.01733366      -0.02228978
40
Lattice="5.6275279818367245 -8.48320909103162e-44 0.0 1.194144546336858e-43 5.816502891449282 0.0 0.0 0.0 16.30511662471021" Properties=species:S:1:pos:R:3:spacegroup_kinds:I:1:forces:R:3 spacegroup="P 1" unit_cell=conventional occupancy="_JSON {\"0\": {\"In\": 1}, \"1\": {\"In\": 1}, \"2\": {\"In\": 1}, \"3\": {\"In\": 1}, \"4\": {\"In\": 1}, \"5\": {\"In\": 1}, \"6\": {\"In\": 1}, \"7\": {\"In\": 1}, \"8\": {\"In\": 1}, \"9\": {\"In\": 1}, \"10\": {\"In\": 1}, \"11\": {\"In\": 1}, \"12\": {\"In\": 1}, \"13\": {\"In\": 1}, \"14\": {\"In\": 1}, \"15\": {\"In\": 1}, \"16\": {\"O\": 1}, \"17\": {\"O\": 1}, \"18\": {\"O\": 1}, \"19\": {\"O\": 1}, \"20\": {\"O\": 1}, \"21\": {\"O\": 1}, \"22\": {\"O\": 1}, \"23\": {\"O\": 1}, \"24\": {\"O\": 1}, \"25\": {\"O\": 1}, \"26\": {\"O\": 1}, \"27\": {\"O\": 1}, \"28\": {\"O\": 1}, \"29\": {\"O\": 1}, \"30\": {\"O\": 1}, \"31\": {\"O\": 1}, \"32\": {\"O\": 1}, \"33\": {\"O\": 1}, \"34\": {\"O\": 1}, \"35\": {\"O\": 1}, \"36\": {\"O\": 1}, \"37\": {\"O\": 1}, \"38\": {\"O\": 1}, \"39\": {\"O\": 1}}" n_minim_iter=4 energy=-45150.13224360817 stress="0.023808662091375547 1.4073770306434566e-13 4.001654033528939e-14 1.4073770306434566e-13 0.023847097500457222 5.196473356653463e-14 4.001654033528939e-14 5.196473356653463e-14 0.023850153608603403" free_energy=-45150.13224360817 pbc="T T T"
In       2.81076272       4.64316279       9.30657254        0      -0.01081716       0.03823407      -0.00392969
In      -0.00300127       4.08159155       6.99854409        1      -0.01081716      -0.03823407       0.00392969
In       2.81676526       1.73491134      15.15110240        2       0.01081716       0.03823407       0.00392969
In       5.63052925       1.17334010       1.15401423        3       0.01081716      -0.03823407      -0.00392969
In       2.81676526       1.17334010       6.99854409        4       0.01081716      -0.03823407       0.00392969
In       5.63052925       1.73491134       9.30657254        5       0.01081716       0.03823407      -0.00392969
In       2.81076272       4.08159155       1.15401423        6      -0.01081716      -0.03823407      -0.00392969
In      -0.00300127       4.64316279      15.15110240        7      -0.01081716       0.03823407       0.00392969
In       2.79700543       4.34139870      13.33982919        8      -0.00373771      -0.01170644       0.01037685
In       5.61076942       4.38335564       2.96528744        9      -0.00373771       0.01170644      -0.01037685
In       2.83052255       1.43314726      11.11784575       10       0.00373771      -0.01170644      -0.01037685
In       0.01675856       1.47510419       5.18727087       11       0.00373771       0.01170644       0.01037685
In       2.83052255       1.47510419       2.96528744       12       0.00373771       0.01170644      -0.01037685
In       0.01675856       1.43314726      13.33982919       13       0.00373771      -0.01170644       0.01037685
In       2.79700543       4.38335564       5.18727087       14      -0.00373771       0.01170644       0.01037685
In       5.61076942       4.34139870      11.11784575       15      -0.00373771      -0.01170644      -0.01037685
O        4.83512082       5.11536543      13.01261032       16      -0.00174159      -0.00814913       0.01146367
O        2.02135683       3.60938891       3.29250631       17      -0.00174159       0.00814913      -0.01146367
O        0.79240716       2.20711398      11.44506462       18       0.00174159      -0.00814913      -0.01146367
O        3.60617116       0.70113747       4.86005201       19       0.00174159       0.00814913       0.01146367
O        0.79240716       0.70113747       3.29250631       20       0.00174159       0.00814913      -0.01146367
O        3.60617116       2.20711398      13.01261032       21       0.00174159      -0.00814913       0.01146367
O        4.83512082       3.60938891       4.86005201       22      -0.00174159       0.00814913       0.01146367
O        2.02135683       5.11536543      11.44506462       23      -0.00174159      -0.00814913      -0.01146367
O        3.97033097       3.06348465      10.18169548       24      -0.00307184       0.00421948       0.00978421
O        1.15656698       5.66126969       6.12342114       25      -0.00307184      -0.00421948      -0.00978421
O        1.65719701       0.15523320      14.27597945       26       0.00307184       0.00421948      -0.00978421
O        4.47096100       2.75301824       2.02913717       27       0.00307184      -0.00421948       0.00978421
O        1.65719701       2.75301824       6.12342114       28       0.00307184      -0.00421948      -0.00978421
O        4.47096100       0.15523320      10.18169548       29       0.00307184       0.00421948       0.00978421
O        3.97033097       5.66126969       2.02913717       30      -0.00307184      -0.00421948       0.00978421
O        1.15656698       3.06348465      14.27597945       31      -0.00307184       0.00421948      -0.00978421
O        3.63987426       3.83966742      15.45831808       32       0.00209753       0.00115334       0.00549807
O        0.82611027       4.88508692       0.84679854       33       0.00209753      -0.00115334      -0.00549807
O        1.98765372       0.93141597       8.99935686       34      -0.00209753       0.00115334      -0.00549807
O        4.80141771       1.97683547       7.30575977       35      -0.00209753      -0.00115334       0.00549807
O        1.98765372       1.97683547       0.84679854       36      -0.00209753      -0.00115334      -0.00549807
O        4.80141771       0.93141597      15.45831808       37      -0.00209753       0.00115334       0.00549807
O        3.63987426       4.88508692       7.30575977       38       0.00209753      -0.00115334       0.00549807
O        0.82611027       3.83966742       8.99935686       39       0.00209753       0.00115334      -0.00549807
40
Lattice="5.627040049823735 -2.235063097336806e-43 0.0 1.0351101630093917e-43 5.8176203129455155 0.0 0.0 0.0 16.3033983916637" Properties=species:S:1:pos:R:3:spacegroup_kinds:I:1:forces:R:3 spacegroup="P 1" unit_cell=conventional occupancy="_JSON {\"0\": {\"In\": 1}, \"1\": {\"In\": 1}, \"2\": {\"In\": 1}, \"3\": {\"In\": 1}, \"4\": {\"In\": 1}, \"5\": {\"In\": 1}, \"6\": {\"In\": 1}, \"7\": {\"In\": 1}, \"8\": {\"In\": 1}, \"9\": {\"In\": 1}, \"10\": {\"In\": 1}, \"11\": {\"In\": 1}, \"12\": {\"In\": 1}, \"13\": {\"In\": 1}, \"14\": {\"In\": 1}, \"15\": {\"In\": 1}, \"16\": {\"O\": 1}, \"17\": {\"O\": 1}, \"18\": {\"O\": 1}, \"19\": {\"O\": 1}, \"20\": {\"O\": 1}, \"21\": {\"O\": 1}, \"22\": {\"O\": 1}, \"23\": {\"O\": 1}, \"24\": {\"O\": 1}, \"25\": {\"O\": 1}, \"26\": {\"O\": 1}, \"27\": {\"O\": 1}, \"28\": {\"O\": 1}, \"29\": {\"O\": 1}, \"30\": {\"O\": 1}, \"31\": {\"O\": 1}, \"32\": {\"O\": 1}, \"33\": {\"O\": 1}, \"34\": {\"O\": 1}, \"35\": {\"O\": 1}, \"36\": {\"O\": 1}, \"37\": {\"O\": 1}, \"38\": {\"O\": 1}, \"39\": {\"O\": 1}}" n_minim_iter=5 energy=-45150.133104926645 stress="0.023820673924542502 -3.111878454234325e-13 2.0492620538305004e-14 -3.111878454234325e-13 0.02378287178774428 3.1252937139772287e-13 2.0492620538305004e-14 3.1252937139772287e-13 0.023691350041472777" free_energy=-45150.133104926645 pbc="T T T"
In       2.80976593       4.64671935       9.30537008        0       0.00027448       0.01436338       0.00823802
In      -0.00375409       4.07971112       6.99802831        1       0.00027448      -0.01436338      -0.00823802
In       2.81727412       1.73790919      15.14972751        2      -0.00027448       0.01436338      -0.00823802
In       5.63079414       1.17090097       1.15367088        3      -0.00027448      -0.01436338       0.00823802
In       2.81727412       1.17090097       6.99802831        4      -0.00027448      -0.01436338      -0.00823802
In       5.63079414       1.73790919       9.30537008        5      -0.00027448       0.01436338       0.00823802
In       2.80976593       4.07971112       1.15367088        6       0.00027448      -0.01436338       0.00823802
In      -0.00375409       4.64671935      15.14972751        7       0.00027448       0.01436338      -0.00823802
In       2.79625770       4.34159770      13.33894477        8      -0.00136644      -0.00594491      -0.00063902
In       5.60977773       4.38483277       2.96445362        9      -0.00136644       0.00594491       0.00063902
In       2.83078235       1.43278754      11.11615282       10       0.00136644      -0.00594491       0.00063902
In       0.01726232       1.47602262       5.18724557       11       0.00136644       0.00594491      -0.00063902
In       2.83078235       1.47602262       2.96445362       12       0.00136644       0.00594491       0.00063902
In       0.01726232       1.43278754      13.33894477       13       0.00136644      -0.00594491      -0.00063902
In       2.79625770       4.38483277       5.18724557       14      -0.00136644       0.00594491      -0.00063902
In       5.60977773       4.34159770      11.11615282       15      -0.00136644      -0.00594491       0.00063902
O        4.83451119       5.11536911      13.01181653       16      -0.00178916      -0.00405873       0.00965808
O        2.02099116       3.61106136       3.29158186       17      -0.00178916       0.00405873      -0.00965808
O        0.79252886       2.20655896      11.44328106       18       0.00178916      -0.00405873      -0.00965808
O        3.60604889       0.70225120       4.86011733       19       0.00178916       0.00405873       0.00965808
O        0.79252886       0.70225120       3.29158186       20       0.00178916       0.00405873      -0.00965808
O        3.60604889       2.20655896      13.01181653       21       0.00178916      -0.00405873       0.00965808
O        4.83451119       3.61106136       4.86011733       22      -0.00178916       0.00405873       0.00965808
O        2.02099116       5.11536911      11.44328106       23      -0.00178916      -0.00405873      -0.00965808
O        3.96912208       3.06460240      10.18124833       24      -0.00293901       0.01204750       0.00032083
O        1.15560205       5.66182807       6.12215006       25      -0.00293901      -0.01204750      -0.00032083
O        1.65791797       0.15579224      14.27384926       26       0.00293901       0.01204750      -0.00032083
O        4.47143800       2.75301791       2.02954913       27       0.00293901      -0.01204750       0.00032083
O        1.65791797       2.75301791       6.12215006       28       0.00293901      -0.01204750      -0.00032083
O        4.47143800       0.15579224      10.18124833       29       0.00293901       0.01204750       0.00032083
O        3.96912208       5.66182807       2.02954913       30      -0.00293901      -0.01204750       0.00032083
O        1.15560205       3.06460240      14.27384926       31      -0.00293901       0.01204750      -0.00032083
O        3.64007411       3.84081473      15.45765903       32      -0.00189596       0.00062808      -0.00110477
O        0.82655408       4.88561574       0.84573936       33      -0.00189596      -0.00062808       0.00110477
O        1.98696594       0.93200457       8.99743856       34       0.00189596       0.00062808       0.00110477
O        4.80048597       1.97680559       7.30595983       35       0.00189596      -0.00062808      -0.00110477
O        1.98696594       1.97680559       0.84573936       36       0.00189596      -0.00062808       0.00110477
O        4.80048597       0.93200457      15.45765903       37       0.00189596       0.00062808      -0.00110477
O        3.64007411       4.88561574       7.30595983       38      -0.00189596      -0.00062808      -0.00110477
O        0.82655408       3.84081473       8.99743856       39      -0.00189596       0.00062808       0.00110477
40