40
Lattice="5.882246639114219 1.1640303706959164e-42 0.0 -8.114415069183976e-43 6.1731539701602 0.0 0.0 0.0 17.207214087720658" Properties=species:S:1:pos:R:3:spacegroup_kinds:I:1:forces:R:3 spacegroup="P 1" unit_cell=conventional occupancy="_JSON {\"0\": {\"In\": 1}, \"1\": {\"In\": 1}, \"2\": {\"In\": 1}, \"3\": {\"In\": 1}, \"4\": {\"In\": 1}, \"5\": {\"In\": 1}, \"6\": {\"In\": 1}, \"7\": {\"In\": 1}, \"8\": {\"In\": 1}, \"9\": {\"In\": 1}, \"10\": {\"In\": 1}, \"11\": {\"In\": 1}, \"12\": {\"In\": 1}, \"13\": {\"In\": 1}, \"14\": {\"In\": 1}, \"15\": {\"In\": 1}, \"16\": {\"O\": 1}, \"17\": {\"O\": 1}, \"18\": {\"O\": 1}, \"19\": {\"O\": 1}, \"20\": {\"O\": 1}, \"21\": {\"O\": 1}, \"22\": {\"O\": 1}, \"23\": {\"O\": 1}, \"24\": {\"O\": 1}, \"25\": {\"O\": 1}, \"26\": {\"O\": 1}, \"27\": {\"O\": 1}, \"28\": {\"O\": 1}, \"29\": {\"O\": 1}, \"30\": {\"O\": 1}, \"31\": {\"O\": 1}, \"32\": {\"O\": 1}, \"33\": {\"O\": 1}, \"34\": {\"O\": 1}, \"35\": {\"O\": 1}, \"36\": {\"O\": 1}, \"37\": {\"O\": 1}, \"38\": {\"O\": 1}, \"39\": {\"O\": 1}}" n_minim_iter=15 energy=-45144.599781866615 stress="0.08522639795082644 4.680154093353029e-13 1.0638083431896823e-13 4.680154093353029e-13 0.08520845330218733 -1.5170837200642237e-13 1.0638083431896823e-13 -1.5170837200642237e-13 0.08519723409029516" free_energy=-45144.599781866615 pbc="T T T"
In       2.66773473       5.16772996       9.96216017        0      -0.00121033       0.00229112       0.00071262
In      -0.27338859       4.09200099       7.24505392        1      -0.00121033      -0.00229112      -0.00071262
In       3.21451191       2.08115298      15.84866096        2       0.00121033       0.00229112      -0.00071262
In       6.15563523       1.00542401       1.35855312        3       0.00121033      -0.00229112       0.00071262
In       3.21451191       1.00542401       7.24505392        4       0.00121033      -0.00229112      -0.00071262
In       6.15563523       2.08115298       9.96216017        5       0.00121033       0.00229112       0.00071262
In       2.66773473       4.09200099       1.35855312        6      -0.00121033      -0.00229112       0.00071262
In      -0.27338859       5.16772996      15.84866096        7      -0.00121033       0.00229112      -0.00071262
In       2.69799981       4.91247095      13.98790104        8      -0.00194880      -0.00072735      -0.00088202
In       5.63912313       4.34726001       3.21931304        9      -0.00194880       0.00072735       0.00088202
In       3.18424683       1.82589396      11.82292009       10       0.00194880      -0.00072735       0.00088202
In       0.24312351       1.26068302       5.38429400       11       0.00194880       0.00072735      -0.00088202
In       3.18424683       1.26068302       3.21931304       12       0.00194880       0.00072735       0.00088202
In       0.24312351       1.82589396      13.98790104       13       0.00194880      -0.00072735      -0.00088202
In       2.69799981       4.34726001       5.38429400       14      -0.00194880       0.00072735      -0.00088202
In       5.63912313       4.91247095      11.82292009       15      -0.00194880      -0.00072735       0.00088202
O        4.86095380       5.67949555      13.75834239       16      -0.00457727       0.00288185       0.00205611
O        1.91983049       3.58023540       3.44887170       17      -0.00457727      -0.00288185      -0.00205611
O        1.02129283       2.59291857      12.05247874       18       0.00457727       0.00288185      -0.00205611
O        3.96241615       0.49365842       5.15473534       19       0.00457727      -0.00288185       0.00205611
O        1.02129283       0.49365842       3.44887170       20       0.00457727      -0.00288186      -0.00205611
O        3.96241615       2.59291857      13.75834239       21       0.00457727       0.00288186       0.00205611
O        4.86095380       3.58023540       5.15473534       22      -0.00457727      -0.00288185       0.00205611
O        1.91983049       5.67949555      12.05247874       23      -0.00457727       0.00288186      -0.00205611
O        4.10126757       3.61052573      10.86172369       24       0.00086400      -0.00045438       0.00009245
O        1.16014425       5.64920523       6.34549040       25       0.00086400       0.00045438      -0.00009245
O        1.78097907       0.52394874      14.94909744       26      -0.00086400      -0.00045438      -0.00009245
O        4.72210239       2.56262824       2.25811664       27      -0.00086400       0.00045438       0.00009245
O        1.78097907       2.56262824       6.34549040       28      -0.00086400       0.00045438      -0.00009245
O        4.72210239       0.52394874      10.86172369       29      -0.00086400      -0.00045438       0.00009245
O        4.10126757       5.64920523       2.25811664       30       0.00086400       0.00045438       0.00009245
O        1.16014425       3.61052573      14.94909744       31       0.00086400      -0.00045438      -0.00009245
O        3.70839512       4.15537449      16.41172152       32       0.00261872       0.00189914      -0.00127254
O        0.76727180       5.10435646       0.79549257       33       0.00261872      -0.00189914       0.00127254
O        2.17385152       1.06879751       9.39909961       34      -0.00261872       0.00189914       0.00127254
O        5.11497484       2.01777948       7.80811447       35      -0.00261872      -0.00189914      -0.00127254
O        2.17385152       2.01777948       0.79549257       36      -0.00261872      -0.00189914       0.00127254
O        5.11497484       1.06879751      16.41172152       37      -0.00261872       0.00189914      -0.00127254
O        3.70839512       5.10435646       7.80811447       38       0.00261872      -0.00189914      -0.00127254
O        0.76727180       4.15537449       9.39909961       39       0.00261872       0.00189914       0.00127254
