40
Lattice="5.667007237931322 -2.5923945035776716e-43 0.0 6.933082380364338e-43 5.870425064035562 0.0 0.0 0.0 16.43408915351044" Properties=species:S:1:pos:R:3:spacegroup_kinds:I:1:forces:R:3 spacegroup="P 1" unit_cell=conventional occupancy="_JSON {\"0\": {\"In\": 1}, \"1\": {\"In\": 1}, \"2\": {\"In\": 1}, \"3\": {\"In\": 1}, \"4\": {\"In\": 1}, \"5\": {\"In\": 1}, \"6\": {\"In\": 1}, \"7\": {\"In\": 1}, \"8\": {\"In\": 1}, \"9\": {\"In\": 1}, \"10\": {\"In\": 1}, \"11\": {\"In\": 1}, \"12\": {\"In\": 1}, \"13\": {\"In\": 1}, \"14\": {\"In\": 1}, \"15\": {\"In\": 1}, \"16\": {\"O\": 1}, \"17\": {\"O\": 1}, \"18\": {\"O\": 1}, \"19\": {\"O\": 1}, \"20\": {\"O\": 1}, \"21\": {\"O\": 1}, \"22\": {\"O\": 1}, \"23\": {\"O\": 1}, \"24\": {\"O\": 1}, \"25\": {\"O\": 1}, \"26\": {\"O\": 1}, \"27\": {\"O\": 1}, \"28\": {\"O\": 1}, \"29\": {\"O\": 1}, \"30\": {\"O\": 1}, \"31\": {\"O\": 1}, \"32\": {\"O\": 1}, \"33\": {\"O\": 1}, \"34\": {\"O\": 1}, \"35\": {\"O\": 1}, \"36\": {\"O\": 1}, \"37\": {\"O\": 1}, \"38\": {\"O\": 1}, \"39\": {\"O\": 1}}" n_minim_iter=7 energy=-45149.68531246705 stress="0.04471307726394635 -1.7877569837953525e-13 -3.395288161345503e-13 -1.7877569837953525e-13 0.044764046997036545 1.933879567108188e-13 -3.395288161345503e-13 1.933879567108188e-13 0.0447192051385788" free_energy=-45149.68531246705 pbc="T T T"
In       2.82796030       4.69785799       9.38169979        0      -0.00208725      -0.00166507       0.00092997
In      -0.00554332       4.10777960       7.05238936        1      -0.00208725       0.00166507      -0.00092997
In       2.83904694       1.76264546      15.26943394        2       0.00208725      -0.00166507      -0.00092997
In       5.67255056       1.17256707       1.16465521        3       0.00208725       0.00166507       0.00092997
In       2.83904694       1.17256707       7.05238936        4       0.00208725       0.00166507      -0.00092997
In       5.67255056       1.76264546       9.38169979        5       0.00208725      -0.00166507       0.00092997
In       2.82796030       4.10777960       1.16465521        6      -0.00208725       0.00166507       0.00092997
In      -0.00554332       4.69785799      15.26943394        7      -0.00208725      -0.00166507      -0.00092997
In       2.81040294       4.37878539      13.44277442        8      -0.00334890       0.00006179      -0.00340235
In       5.64390656       4.42685221       2.99131473        9      -0.00334890      -0.00006179       0.00340235
In       2.85660429       1.44357286      11.20835931       10       0.00334890       0.00006179       0.00340235
In       0.02310067       1.49163968       5.22572985       11       0.00334890      -0.00006179      -0.00340235
In       2.85660429       1.49163968       2.99131473       12       0.00334890      -0.00006179       0.00340235
In       0.02310067       1.44357286      13.44277442       13       0.00334890       0.00006179      -0.00340235
In       2.81040294       4.42685221       5.22572985       14      -0.00334890      -0.00006179      -0.00340235
In       5.64390656       4.37878539      11.20835931       15      -0.00334890       0.00006179       0.00340235
O        4.86639671       5.15362344      13.11836686       16      -0.00311372       0.00353441       0.00039451
O        2.03289309       3.65201415       3.31572229       17      -0.00311372      -0.00353441      -0.00039451
O        0.80061053       2.21841091      11.53276687       18       0.00311372       0.00353441      -0.00039451
O        3.63411415       0.71680162       4.90132228       19       0.00311372      -0.00353441       0.00039451
O        0.80061053       0.71680162       3.31572229       20       0.00311372      -0.00353441      -0.00039451
O        3.63411415       2.21841091      13.11836686       21       0.00311372       0.00353441       0.00039451
O        4.86639671       3.65201415       4.90132228       22      -0.00311372      -0.00353441       0.00039451
O        2.03289309       5.15362344      11.53276687       23      -0.00311372       0.00353441      -0.00039451
O        3.98695963       3.10026284      10.26394730       24       0.00106096       0.00326928       0.00315312
O        1.15345601       5.70537476       6.17014186       25       0.00106096      -0.00326928      -0.00315312
O        1.68004761       0.16505030      14.38718643       26      -0.00106096       0.00326928      -0.00315312
O        4.51355123       2.77016223       2.04690272       27      -0.00106096      -0.00326928       0.00315312
O        1.68004761       2.77016223       6.17014186       28      -0.00106096      -0.00326928      -0.00315312
O        4.51355123       0.16505030      10.26394730       29      -0.00106096       0.00326928       0.00315312
O        3.98695963       5.70537476       2.04690272       30       0.00106096      -0.00326928       0.00315312
O        1.15345601       3.10026284      14.38718643       31       0.00106096       0.00326928      -0.00315312
O        3.66795523       3.87986124      15.58588305       32      -0.00291153       0.00192458      -0.00332508
O        0.83445161       4.92577635       0.84820610       33      -0.00291153      -0.00192458       0.00332508
O        1.99905200       0.94464871       9.06525068       34       0.00291153       0.00192458       0.00332508
O        4.83255562       1.99056382       7.36883847       35       0.00291153      -0.00192458      -0.00332508
O        1.99905200       1.99056382       0.84820610       36       0.00291153      -0.00192458       0.00332508
O        4.83255562       0.94464871      15.58588305       37       0.00291153       0.00192458      -0.00332508
O        3.66795523       4.92577635       7.36883847       38      -0.00291153      -0.00192458      -0.00332508
O        0.83445161       3.87986124       9.06525068       39      -0.00291153       0.00192458       0.00332508
