40
Lattice="5.922815139287393 1.1720584200437874e-42 0.0 -8.170378320869216e-43 6.2157287911889885 0.0 0.0 0.0 17.32588827983217" Properties=species:S:1:pos:R:3:spacegroup_kinds:I:1:forces:R:3 spacegroup="P 1" unit_cell=conventional occupancy="_JSON {\"0\": {\"In\": 1}, \"1\": {\"In\": 1}, \"2\": {\"In\": 1}, \"3\": {\"In\": 1}, \"4\": {\"In\": 1}, \"5\": {\"In\": 1}, \"6\": {\"In\": 1}, \"7\": {\"In\": 1}, \"8\": {\"In\": 1}, \"9\": {\"In\": 1}, \"10\": {\"In\": 1}, \"11\": {\"In\": 1}, \"12\": {\"In\": 1}, \"13\": {\"In\": 1}, \"14\": {\"In\": 1}, \"15\": {\"In\": 1}, \"16\": {\"O\": 1}, \"17\": {\"O\": 1}, \"18\": {\"O\": 1}, \"19\": {\"O\": 1}, \"20\": {\"O\": 1}, \"21\": {\"O\": 1}, \"22\": {\"O\": 1}, \"23\": {\"O\": 1}, \"24\": {\"O\": 1}, \"25\": {\"O\": 1}, \"26\": {\"O\": 1}, \"27\": {\"O\": 1}, \"28\": {\"O\": 1}, \"29\": {\"O\": 1}, \"30\": {\"O\": 1}, \"31\": {\"O\": 1}, \"32\": {\"O\": 1}, \"33\": {\"O\": 1}, \"34\": {\"O\": 1}, \"35\": {\"O\": 1}, \"36\": {\"O\": 1}, \"37\": {\"O\": 1}, \"38\": {\"O\": 1}, \"39\": {\"O\": 1}}" n_minim_iter=15 energy=-45144.599781866615 stress="0.08522639795082644 4.680154093353029e-13 1.0638083431896823e-13 4.680154093353029e-13 0.08520845330218733 -1.5170837200642237e-13 1.0638083431896823e-13 -1.5170837200642237e-13 0.08519723409029516" free_energy=-45144.599781866615 pbc="T T T"
In       2.68613348       5.20337061      10.03086689        0      -0.00121033       0.00229112       0.00071262
In      -0.27527409       4.12022258       7.29502139        1      -0.00121033      -0.00229112      -0.00071262
In       3.23668166       2.09550621      15.95796553        2       0.00121033       0.00229112      -0.00071262
In       6.19808923       1.01235819       1.36792275        3       0.00121033      -0.00229112       0.00071262
In       3.23668166       1.01235819       7.29502139        4       0.00121033      -0.00229112      -0.00071262
In       6.19808923       2.09550621      10.03086689        5       0.00121033       0.00229112       0.00071262
In       2.68613348       4.12022258       1.36792275        6      -0.00121033      -0.00229112       0.00071262
In      -0.27527409       5.20337061      15.95796553        7      -0.00121033       0.00229112      -0.00071262
In       2.71660729       4.94635113      14.08437237        8      -0.00194880      -0.00072735      -0.00088202
In       5.67801486       4.37724206       3.24151591        9      -0.00194880       0.00072735       0.00088202
In       3.20620785       1.83848673      11.90446005       10       0.00194880      -0.00072735       0.00088202
In       0.24480028       1.26937766       5.42142823       11       0.00194880       0.00072735      -0.00088202
In       3.20620785       1.26937766       3.24151591       12       0.00194880       0.00072735       0.00088202
In       0.24480028       1.83848673      14.08437237       13       0.00194880      -0.00072735      -0.00088202
In       2.71660729       4.37724206       5.42142823       14      -0.00194880       0.00072735      -0.00088202
In       5.67801486       4.94635113      11.90446005       15      -0.00194880      -0.00072735       0.00088202
O        4.89447868       5.71866572      13.85323051       16      -0.00457727       0.00288185       0.00205611
O        1.93307111       3.60492746       3.47265777       17      -0.00457727      -0.00288185      -0.00205611
O        1.02833646       2.61080133      12.13560191       18       0.00457727       0.00288185      -0.00205611
O        3.98974403       0.49706307       5.19028637       19       0.00457727      -0.00288185       0.00205611
O        1.02833646       0.49706307       3.47265777       20       0.00457727      -0.00288186      -0.00205611
O        3.98974403       2.61080133      13.85323051       21       0.00457727       0.00288186       0.00205611
O        4.89447868       3.60492746       5.19028637       22      -0.00457727      -0.00288185       0.00205611
O        1.93307111       5.71866572      12.13560191       23      -0.00457727       0.00288186      -0.00205611
O        4.12955307       3.63542669      10.93663449       24       0.00086400      -0.00045438       0.00009245
O        1.16814550       5.68816649       6.38925379       25       0.00086400       0.00045438      -0.00009245
O        1.79326207       0.52756230      15.05219793       26      -0.00086400      -0.00045438      -0.00009245
O        4.75466964       2.58030210       2.27369035       27      -0.00086400       0.00045438       0.00009245
O        1.79326207       2.58030210       6.38925379       28      -0.00086400       0.00045438      -0.00009245
O        4.75466964       0.52756230      10.93663449       29      -0.00086400      -0.00045438       0.00009245
O        4.12955307       5.68816649       2.27369035       30       0.00086400       0.00045438       0.00009245
O        1.16814550       3.63542669      15.05219793       31       0.00086400      -0.00045438      -0.00009245
O        3.73397107       4.18403315      16.52490938       32       0.00261872       0.00189914      -0.00127254
O        0.77256350       5.13956003       0.80097890       33       0.00261872      -0.00189914       0.00127254
O        2.18884407       1.07616876       9.46392304       34      -0.00261872       0.00189914       0.00127254
O        5.15025164       2.03169564       7.86196524       35      -0.00261872      -0.00189914      -0.00127254
O        2.18884407       2.03169564       0.80097890       36      -0.00261872      -0.00189914       0.00127254
O        5.15025164       1.07616876      16.52490938       37      -0.00261872       0.00189914      -0.00127254
O        3.73397107       5.13956003       7.86196524       38       0.00261872      -0.00189914      -0.00127254
O        0.77256350       4.18403315       9.46392304       39       0.00261872       0.00189914       0.00127254
