40
Lattice="5.4963881187470305 -4.936460791087957e-43 0.0 -7.093701085419175e-44 5.677473117809496 0.0 0.0 0.0 15.851515224152328" Properties=species:S:1:pos:R:3:spacegroup_kinds:I:1:forces:R:3 spacegroup="P 1" unit_cell=conventional occupancy="_JSON {\"0\": {\"In\": 1}, \"1\": {\"In\": 1}, \"2\": {\"In\": 1}, \"3\": {\"In\": 1}, \"4\": {\"In\": 1}, \"5\": {\"In\": 1}, \"6\": {\"In\": 1}, \"7\": {\"In\": 1}, \"8\": {\"In\": 1}, \"9\": {\"In\": 1}, \"10\": {\"In\": 1}, \"11\": {\"In\": 1}, \"12\": {\"In\": 1}, \"13\": {\"In\": 1}, \"14\": {\"In\": 1}, \"15\": {\"In\": 1}, \"16\": {\"O\": 1}, \"17\": {\"O\": 1}, \"18\": {\"O\": 1}, \"19\": {\"O\": 1}, \"20\": {\"O\": 1}, \"21\": {\"O\": 1}, \"22\": {\"O\": 1}, \"23\": {\"O\": 1}, \"24\": {\"O\": 1}, \"25\": {\"O\": 1}, \"26\": {\"O\": 1}, \"27\": {\"O\": 1}, \"28\": {\"O\": 1}, \"29\": {\"O\": 1}, \"30\": {\"O\": 1}, \"31\": {\"O\": 1}, \"32\": {\"O\": 1}, \"33\": {\"O\": 1}, \"34\": {\"O\": 1}, \"35\": {\"O\": 1}, \"36\": {\"O\": 1}, \"37\": {\"O\": 1}, \"38\": {\"O\": 1}, \"39\": {\"O\": 1}}" n_minim_iter=7 energy=-45150.1186526957 stress="-0.026934437013658257 6.711856426878706e-14 -4.2947064773226326e-13 6.711856426878706e-14 -0.02698386129247321 -1.1734737780737948e-13 -4.2947064773226326e-13 -1.1734737780737948e-13 -0.026997995204185" free_energy=-45150.1186526957 pbc="T T T"
In       2.74642226       4.52912082       9.04736054        0      -0.00254018       0.00389532      -0.00296674
In      -0.00177180       3.98708886       6.80415468        1      -0.00254018      -0.00389532       0.00296674
In       2.74996585       1.69038426      14.72991229        2       0.00254018       0.00389532       0.00296674
In       5.49815991       1.14835230       1.12160293        3       0.00254018      -0.00389532      -0.00296674
In       2.74996585       1.14835230       6.80415468        4       0.00254018      -0.00389532       0.00296674
In       5.49815991       1.69038426       9.04736054        5       0.00254018       0.00389532      -0.00296674
In       2.74642226       3.98708886       1.12160293        6      -0.00254018      -0.00389532      -0.00296674
In      -0.00177180       4.52912082      14.72991229        7      -0.00254018       0.00389532       0.00296674
In       2.73845080       4.23619637      12.97036132        8       0.00144608      -0.00416747       0.00763936
In       5.48664486       4.28001331       2.88115391        9       0.00144608       0.00416747      -0.00763936
In       2.75793732       1.39745981      10.80691152       10      -0.00144608      -0.00416747      -0.00763936
In       0.00974326       1.44127675       5.04460371       11      -0.00144608       0.00416747       0.00763936
In       2.75793732       1.44127675       2.88115391       12      -0.00144608       0.00416747      -0.00763936
In       0.00974326       1.39745981      12.97036132       13      -0.00144608      -0.00416747       0.00763936
In       2.73845080       4.28001331       5.04460371       14       0.00144608       0.00416747       0.00763936
In       5.48664486       4.23619637      10.80691152       15       0.00144608      -0.00416747      -0.00763936
O        4.72511641       5.00150188      12.65260791       16       0.00045545       0.00207971       0.00504131
O        1.97692235       3.51470780       3.19890732       17       0.00045545      -0.00207971      -0.00504131
O        0.77127171       2.16276532      11.12466493       18      -0.00045545       0.00207971      -0.00504131
O        3.51946577       0.67597124       4.72685030       19      -0.00045545      -0.00207971       0.00504131
O        0.77127171       0.67597124       3.19890732       20      -0.00045545      -0.00207971      -0.00504131
O        3.51946577       2.16276532      12.65260791       21      -0.00045545       0.00207971       0.00504131
O        4.72511641       3.51470780       4.72685030       22       0.00045545      -0.00207971       0.00504131
O        1.97692235       5.00150188      11.12466493       23       0.00045545       0.00207971      -0.00504131
O        3.88847301       2.98509429       9.90011356       24       0.00283198      -0.00643420      -0.00134854
O        1.14027895       5.53111539       5.95140166       25       0.00283198       0.00643420       0.00134854
O        1.60791511       0.14635773      13.87715927       26      -0.00283198      -0.00643420       0.00134854
O        4.35610917       2.69237883       1.97435595       27      -0.00283198       0.00643420      -0.00134854
O        1.60791511       2.69237883       5.95140166       28      -0.00283198       0.00643420       0.00134854
O        4.35610917       0.14635773       9.90011356       29      -0.00283198      -0.00643420      -0.00134854
O        3.88847301       5.53111539       1.97435595       30       0.00283198       0.00643420      -0.00134854
O        1.14027895       2.98509429      13.87715927       31       0.00283198      -0.00643420       0.00134854
O        3.54816969       3.74187107      15.01673231       32       0.00463237      -0.00166443       0.00365879
O        0.79997563       4.77433860       0.83478292       33       0.00463237       0.00166443      -0.00365879
O        1.94821843       0.90313452       8.76054053       34      -0.00463237      -0.00166443      -0.00365879
O        4.69641248       1.93560204       7.09097469       35      -0.00463237       0.00166443       0.00365879
O        1.94821843       1.93560204       0.83478292       36      -0.00463237       0.00166443      -0.00365879
O        4.69641248       0.90313452      15.01673231       37      -0.00463237      -0.00166443       0.00365879
O        3.54816969       4.77433860       7.09097469       38       0.00463237       0.00166443       0.00365879
O        0.79997563       3.74187107       8.76054053       39       0.00463237      -0.00166443      -0.00365879
