40
Lattice="8.919682340494337 6.990997312768897e-10 -4.728473172240315e-16 -2.973227447490564 8.40955715842489 -1.2108775916364053e-09 -2.973227446501888 -4.204778578513343 7.282890134580483" Properties=species:S:1:pos:R:3:spacegroup_kinds:I:1:forces:R:3 spacegroup="P 1" unit_cell=conventional occupancy="_JSON {\"0\": {\"In\": 1}, \"1\": {\"In\": 1}, \"2\": {\"In\": 1}, \"3\": {\"In\": 1}, \"4\": {\"In\": 1}, \"5\": {\"In\": 1}, \"6\": {\"In\": 1}, \"7\": {\"In\": 1}, \"8\": {\"In\": 1}, \"9\": {\"In\": 1}, \"10\": {\"In\": 1}, \"11\": {\"In\": 1}, \"12\": {\"In\": 1}, \"13\": {\"In\": 1}, \"14\": {\"In\": 1}, \"15\": {\"In\": 1}, \"16\": {\"O\": 1}, \"17\": {\"O\": 1}, \"18\": {\"O\": 1}, \"19\": {\"O\": 1}, \"20\": {\"O\": 1}, \"21\": {\"O\": 1}, \"22\": {\"O\": 1}, \"23\": {\"O\": 1}, \"24\": {\"O\": 1}, \"25\": {\"O\": 1}, \"26\": {\"O\": 1}, \"27\": {\"O\": 1}, \"28\": {\"O\": 1}, \"29\": {\"O\": 1}, \"30\": {\"O\": 1}, \"31\": {\"O\": 1}, \"32\": {\"O\": 1}, \"33\": {\"O\": 1}, \"34\": {\"O\": 1}, \"35\": {\"O\": 1}, \"36\": {\"O\": 1}, \"37\": {\"O\": 1}, \"38\": {\"O\": 1}, \"39\": {\"O\": 1}}" n_minim_iter=1 energy=-45151.901814725585 stress="0.0028975797512950313 1.310317841819961e-13 -8.525067065805794e-14 1.310317841819961e-13 0.002897579750947018 1.4261233632924446e-13 -8.525067065805794e-14 1.4261233632924446e-13 0.0028975797510877623" free_energy=-45151.901814725585 pbc="T T T"
In      -4.26096793       3.01295932       5.70573658        0       0.00518339      -0.00366521       0.00634833
In       7.23419537       1.19181926       1.57715355        1      -0.00518339       0.00366521      -0.00634833
In       1.28774048      -0.91057003       5.21859862        2      -0.00518339       0.00366521      -0.00634833
In      -1.48661372      -2.10238929       3.64144506        3       0.00000000       0.00000000      -0.00000000
In      -1.28774048       4.06415396       3.39787608        4       0.00518339      -0.00366521      -0.00634833
In       4.65871441      -2.87233470       5.46216760        5       0.00518339       0.00733042      -0.00000000
In      -1.28774048       1.33244388       5.46216760        6       0.00518339       0.00733042      -0.00000000
In      -1.68548697       7.07711328       1.82072253        7      -0.00518339      -0.00733042       0.00000000
In       4.26096793       0.14062462       3.88501405        8      -0.00518339       0.00366521       0.00634833
In      -1.48661373       4.20477858      -0.00000000        9       0.00000000       0.00000000      -0.00000000
In       4.26096793       6.44779249       0.24356898       10      -0.00518339       0.00366521       0.00634833
In      -1.28774048      -2.24301390       7.03932115       11       0.00518339      -0.00366521      -0.00634833
In       4.26096793       2.87233470       1.82072253       12      -0.00518339      -0.00733042      -0.00000000
In       1.68548696       5.11534861       2.06429151       13       0.00518339      -0.00366521       0.00634833
In       4.45984117       0.00000000      -0.00000000       14      -0.00000000      -0.00000000       0.00000000
In       1.48661372       2.10238929       3.64144506       15      -0.00000000      -0.00000000       0.00000000
O        0.86923494       4.20407218       3.96292640       16       0.01879531       0.00974816      -0.00553112
O       -2.10399251       3.43234814       5.30203869       17       0.01879531      -0.00966417      -0.00567659
O       -0.43917542       2.25514469       0.05812474       18       0.00634429      -0.00085997      -0.02092592
O       -0.86923494      -0.77313684       1.98207496       19      -0.01879531       0.00008399      -0.01120771
O        3.93737969       5.01147376       1.92395022       20      -0.01537657      -0.01216557       0.00971821
O        2.00907520       2.94193640       1.66059362       21       0.01537657      -0.01449900      -0.00567659
O        2.00907520       6.27431593       0.26335659       22       0.01537657       0.00233343       0.01539480
O       -2.27256261       5.96951153       3.69956981       23       0.00292555      -0.00569480      -0.02092592
O        3.41240287       1.94963389       7.22476539       24      -0.00634429       0.00085997       0.02092592
O        5.24579006      -1.76473295       3.58332032       25      -0.00292555       0.00569480       0.02092592
O        6.38563031       3.28029914       1.71749485       26      -0.00634429      -0.01855236      -0.00971821
O        3.67389228       2.32155496       3.90480166       27       0.00292555      -0.01527498       0.01539480
O        0.70066483       4.32326925       6.96140879       28       0.00292555       0.02096978       0.00553112
O        2.27256261      -0.11849066       0.32148133       29      -0.00292555      -0.02096978      -0.00553112
O       -3.41240287       0.92447944       5.56539528       30       0.00634429       0.01855236       0.00971821
O        5.07721995       0.77243044       1.98085144       31      -0.01879531       0.00966417       0.00567659
O        0.96415225       1.26284218       5.62229651       32      -0.01537657       0.01449900       0.00567659
O        3.41240287      -1.02515445       5.62352003       33      -0.00634429       0.01769239      -0.01120771
O        2.10399251       0.00070640       3.31996373       34      -0.01879531      -0.00974816       0.00553112
O        0.96415225      -2.06953735       7.01953354       35      -0.01537657      -0.00233343      -0.01539480
O       -0.70066484       1.88322362       3.37808847       36      -0.00292555       0.01527498      -0.01539480
O       -0.96415225      -0.80669517       5.35893991       37       0.01537657       0.01216557      -0.00971821
O       -0.43917542       5.22993303       1.65937010       38       0.00634429      -0.01769239       0.01120771
O        3.84246239       4.97791542       5.30081517       39       0.01879531      -0.00008399       0.01120771
40
Lattice="8.910808753948272 6.984042226654611e-10 -5.611387167878722e-16 -2.9702695853078875 8.401191060798233 -1.2096729719586653e-09 -2.9702695843201945 -4.200595529700711 7.275644881504452" Properties=species:S:1:pos:R:3:spacegroup_kinds:I:1:forces:R:3 spacegroup="P 1" unit_cell=conventional occupancy="_JSON {\"0\": {\"In\": 1}, \"1\": {\"In\": 1}, \"2\": {\"In\": 1}, \"3\": {\"In\": 1}, \"4\": {\"In\": 1}, \"5\": {\"In\": 1}, \"6\": {\"In\": 1}, \"7\": {\"In\": 1}, \"8\": {\"In\": 1}, \"9\": {\"In\": 1}, \"10\": {\"In\": 1}, \"11\": {\"In\": 1}, \"12\": {\"In\": 1}, \"13\": {\"In\": 1}, \"14\": {\"In\": 1}, \"15\": {\"In\": 1}, \"16\": {\"O\": 1}, \"17\": {\"O\": 1}, \"18\": {\"O\": 1}, \"19\": {\"O\": 1}, \"20\": {\"O\": 1}, \"21\": {\"O\": 1}, \"22\": {\"O\": 1}, \"23\": {\"O\": 1}, \"24\": {\"O\": 1}, \"25\": {\"O\": 1}, \"26\": {\"O\": 1}, \"27\": {\"O\": 1}, \"28\": {\"O\": 1}, \"29\": {\"O\": 1}, \"30\": {\"O\": 1}, \"31\": {\"O\": 1}, \"32\": {\"O\": 1}, \"33\": {\"O\": 1}, \"34\": {\"O\": 1}, \"35\": {\"O\": 1}, \"36\": {\"O\": 1}, \"37\": {\"O\": 1}, \"38\": {\"O\": 1}, \"39\": {\"O\": 1}}" n_minim_iter=2 energy=-45151.90426824366 stress="9.941842895592435e-05 7.122985634760155e-14 9.760673606332529e-14 7.122985634760155e-14 9.941842883015268e-05 -6.857723739371295e-13 9.760673606332529e-14 -6.857723739371295e-13 9.941842848707316e-05" free_energy=-45151.90426824366 pbc="T T T"
In      -4.25672573       3.00995963       5.70006432        0       0.00277211      -0.00196018       0.00339513
In       7.22699531       1.19063591       1.57558056        1      -0.00277211       0.00196018      -0.00339513
In       1.28645614      -0.90966186       5.21340300        2      -0.00277211       0.00196018      -0.00339513
In      -1.48513479      -2.10029776       3.63782244        3       0.00000000       0.00000000      -0.00000000
In      -1.28645614       4.06010851       3.39449178        4       0.00277211      -0.00196018      -0.00339513
In       4.65408303      -2.86947260       5.45673366        5       0.00277211       0.00392036      -0.00000000
In      -1.28645614       1.33112293       5.45673366        6       0.00277211       0.00392036      -0.00000000
In      -1.68381345       7.07006814       1.81891122        7      -0.00277211      -0.00392036      -0.00000000
In       4.25672572       0.14048702       3.88115310        8      -0.00277211       0.00196018       0.00339513
In      -1.48513479       4.20059553      -0.00000000        9      -0.00000000      -0.00000000       0.00000000
In       4.25672572       6.44138032       0.24333066       10      -0.00277211       0.00196018       0.00339513
In      -1.28645614      -2.24078478       7.03231422       11       0.00277211      -0.00196018      -0.00339513
In       4.25672572       2.86947261       1.81891122       12      -0.00277211      -0.00392036      -0.00000000
In       1.68381344       5.11025739       2.06224188       13       0.00277211      -0.00196018       0.00339513
In       4.45540438       0.00000000      -0.00000000       14      -0.00000000      -0.00000000       0.00000000
In       1.48513479       2.10029777       3.63782244       15      -0.00000000       0.00000000      -0.00000000
O        0.86838200       4.19989596       3.95898048       16       0.01681508       0.00787145       0.00125070
O       -2.10188758       3.42892746       5.29676048       17       0.01681508      -0.00285258      -0.00744223
O       -0.43873453       2.25290066       0.05805377       18       0.01033686       0.00172821      -0.01537640
O       -0.86838201      -0.77236764       1.98009609       19      -0.01681508       0.00501887      -0.00619153
O        3.93345300       5.00648054       1.92204231       20      -0.00829447      -0.01389644       0.00918487
O        2.00708616       2.93900056       1.65893804       21       0.00829447      -0.01490255      -0.00744223
O        2.00708616       6.26807551       0.26310427       22       0.00829447       0.00100612       0.01662710
O       -2.27029996       5.96356929       3.69587621       23       0.00181625      -0.01032176      -0.01537640
O        3.40900411       1.94769487       7.21759110       24      -0.01033686      -0.00172821       0.01537640
O        5.24056954      -1.76297376       3.57976866       25      -0.00181625       0.01032176       0.01537640
O        6.37927370       3.27702414       1.71578012       26      -0.01033686      -0.01245225      -0.00918487
O        3.67023921       2.31923581       3.90092671       27       0.00181625      -0.00815547       0.01662710
O        0.69996963       4.31898149       6.95448684       28       0.00181625       0.01847723      -0.00125070
O        2.27029995      -0.11838596       0.32115804       29      -0.00181625      -0.01847723       0.00125070
O       -3.40900412       0.92357140       5.55986475       30       0.01033686       0.01245225       0.00918487
O        5.07215716       0.77166808       1.97888439       31      -0.01681508       0.00285258       0.00744223
O        0.96318342       1.26159497       5.61670683       32      -0.00829447       0.01490255       0.00744223
O        3.40900411      -1.02412348       5.61791853       33      -0.01033686       0.01418046      -0.00619153
O        2.10188758       0.00069957       3.31666440       34      -0.01681508      -0.00787145      -0.00125070
O        0.96318342      -2.06747997       7.01254061       35      -0.00829447      -0.00100612      -0.01662710
O       -0.69996963       1.88135972       3.37471817       36      -0.00181625       0.00815547      -0.01662710
O       -0.96318342      -0.80588500       5.35360256       37       0.00829447       0.01389644      -0.00918487
O       -0.43873453       5.22471901       1.65772635       38       0.01033686      -0.01418046       0.00619153
O        3.83865159       4.97296318       5.29554879       39       0.01681508      -0.00501887       0.00619153
40
Lattice="8.90933814301823 6.98288968569501e-10 -5.655390561050798e-16 -2.9697793816644307 8.399804555516774 -1.2094733133579155e-09 -2.9697793806768997 -4.199902277060098 7.274444132708097" Properties=species:S:1:pos:R:3:spacegroup_kinds:I:1:forces:R:3 spacegroup="P 1" unit_cell=conventional occupancy="_JSON {\"0\": {\"In\": 1}, \"1\": {\"In\": 1}, \"2\": {\"In\": 1}, \"3\": {\"In\": 1}, \"4\": {\"In\": 1}, \"5\": {\"In\": 1}, \"6\": {\"In\": 1}, \"7\": {\"In\": 1}, \"8\": {\"In\": 1}, \"9\": {\"In\": 1}, \"10\": {\"In\": 1}, \"11\": {\"In\": 1}, \"12\": {\"In\": 1}, \"13\": {\"In\": 1}, \"14\": {\"In\": 1}, \"15\": {\"In\": 1}, \"16\": {\"O\": 1}, \"17\": {\"O\": 1}, \"18\": {\"O\": 1}, \"19\": {\"O\": 1}, \"20\": {\"O\": 1}, \"21\": {\"O\": 1}, \"22\": {\"O\": 1}, \"23\": {\"O\": 1}, \"24\": {\"O\": 1}, \"25\": {\"O\": 1}, \"26\": {\"O\": 1}, \"27\": {\"O\": 1}, \"28\": {\"O\": 1}, \"29\": {\"O\": 1}, \"30\": {\"O\": 1}, \"31\": {\"O\": 1}, \"32\": {\"O\": 1}, \"33\": {\"O\": 1}, \"34\": {\"O\": 1}, \"35\": {\"O\": 1}, \"36\": {\"O\": 1}, \"37\": {\"O\": 1}, \"38\": {\"O\": 1}, \"39\": {\"O\": 1}}" n_minim_iter=3 energy=-45151.904719441365 stress="-0.0004172802009447016 5.400228470474401e-14 -3.1882810294169986e-13 5.400228470474401e-14 -0.0004172802011565806 4.214967655760215e-15 -3.1882810294169986e-13 4.214967655760215e-15 -0.00041728020212165564" free_energy=-45151.904719441365 pbc="T T T"
In      -4.25583094       3.00932692       5.69935908        0       0.00510761      -0.00361163       0.00625552
In       7.22561032       1.19057536       1.57508505        1      -0.00510761       0.00361163      -0.00625552
In       1.28605156      -0.90937578       5.21230712        2      -0.00510761       0.00361163      -0.00625552
In      -1.48488969      -2.09995114       3.63722206        3       0.00000000      -0.00000000      -0.00000000
In      -1.28605156       4.05930249       3.39369608        4       0.00510761      -0.00361163      -0.00625552
In       4.65350720      -2.86872713       5.45583310        5       0.00510761       0.00722325      -0.00000000
In      -1.28605156       1.33117515       5.45583310        6       0.00510761       0.00722325       0.00000000
In      -1.68372782       7.06862941       1.81861103        7      -0.00510761      -0.00722325       0.00000000
In       4.25583094       0.14059979       3.88074804        8      -0.00510761       0.00361163       0.00625552
In      -1.48488969       4.19990228      -0.00000000        9      -0.00000000      -0.00000000       0.00000000
In       4.25583094       6.44045321       0.24352598       10      -0.00510761       0.00361163       0.00625552
In      -1.28605156      -2.24055093       7.03091815       11       0.00510761      -0.00361163      -0.00625552
In       4.25583094       2.86872713       1.81861103       12      -0.00510761      -0.00722325       0.00000000
In       1.68372782       5.10927806       2.06213701       13       0.00510761      -0.00361163       0.00625552
In       4.45466907       0.00000000      -0.00000000       14      -0.00000000      -0.00000000       0.00000000
In       1.48488969       2.09995114       3.63722206       15       0.00000000      -0.00000000       0.00000000
O        0.86943562       4.19976083       3.95843294       16       0.01246956      -0.00105114      -0.00094672
O       -2.10034376       3.42817422       5.29535016       17       0.01246956      -0.00029431       0.00138367
O       -0.43791368       2.25265864       0.05695873       18       0.00288801       0.00648086      -0.01035127
O       -0.86943563      -0.77186951       1.97933897       19      -0.01246956      -0.00134545       0.00043696
O        3.93222823       5.00465694       1.92238024       20      -0.00443400      -0.00463086       0.01078823
O        2.00733053       2.93744948       1.65812809       21       0.00443400      -0.01165831       0.00138367
O        2.00733053       6.26710973       0.26425214       22       0.00443400       0.00702745       0.00940455
O       -2.26979816       5.96183618       3.69418080       23      -0.00514754      -0.00488313      -0.01035127
O        3.40769306       1.94724364       7.21748539       24      -0.00288801      -0.00648086       0.01035127
O        5.23957754      -1.76193390       3.58026333       25       0.00514754       0.00488313       0.01035127
O        6.37747244       3.27560817       1.71484182       26      -0.00288801      -0.00572403      -0.01078823
O        3.66976060       2.31828747       3.90147421       27      -0.00514754      -0.00652290       0.00940455
O        0.69998122       4.31958319       6.95323325       28      -0.00514754       0.01140603       0.00094672
O        2.26979816      -0.11968090       0.32121088       29       0.00514754      -0.01140603      -0.00094672
O       -3.40769306       0.92429411       5.55960230       30       0.00288801       0.00572403       0.01078823
O        5.07012313       0.77172806       1.97909397       31      -0.01246956       0.00029431      -0.00138367
O        0.96244885       1.26245280       5.61631603       32      -0.00443400       0.01165831      -0.00138367
O        3.40769306      -1.02294953       5.61656104       33      -0.00288801       0.01220489       0.00043696
O        2.10034375       0.00014145       3.31601118       34      -0.01246956       0.00105114       0.00094672
O        0.96244885      -2.06720745       7.01019199       35      -0.00443400      -0.00702745      -0.00940455
O       -0.69998122       1.88161481       3.37296992       36       0.00514754       0.00652290      -0.00940455
O       -0.96244885      -0.80475465       5.35206389       37       0.00443400       0.00463086      -0.01078823
O       -0.43791368       5.22285181       1.65788309       38       0.00288801      -0.01220489      -0.00043696
O        3.83921501       4.97177179       5.29510515       39       0.01246956       0.00134545      -0.00043696
40
Lattice="8.909794686660412 6.983247561391458e-10 -5.659794270379875e-16 -2.9699315628785232 8.400234988990482 -1.2095352978335045e-09 -2.9699315618909417 -4.2001174937969195 7.274816899031011" Properties=species:S:1:pos:R:3:spacegroup_kinds:I:1:forces:R:3 spacegroup="P 1" unit_cell=conventional occupancy="_JSON {\"0\": {\"In\": 1}, \"1\": {\"In\": 1}, \"2\": {\"In\": 1}, \"3\": {\"In\": 1}, \"4\": {\"In\": 1}, \"5\": {\"In\": 1}, \"6\": {\"In\": 1}, \"7\": {\"In\": 1}, \"8\": {\"In\": 1}, \"9\": {\"In\": 1}, \"10\": {\"In\": 1}, \"11\": {\"In\": 1}, \"12\": {\"In\": 1}, \"13\": {\"In\": 1}, \"14\": {\"In\": 1}, \"15\": {\"In\": 1}, \"16\": {\"O\": 1}, \"17\": {\"O\": 1}, \"18\": {\"O\": 1}, \"19\": {\"O\": 1}, \"20\": {\"O\": 1}, \"21\": {\"O\": 1}, \"22\": {\"O\": 1}, \"23\": {\"O\": 1}, \"24\": {\"O\": 1}, \"25\": {\"O\": 1}, \"26\": {\"O\": 1}, \"27\": {\"O\": 1}, \"28\": {\"O\": 1}, \"29\": {\"O\": 1}, \"30\": {\"O\": 1}, \"31\": {\"O\": 1}, \"32\": {\"O\": 1}, \"33\": {\"O\": 1}, \"34\": {\"O\": 1}, \"35\": {\"O\": 1}, \"36\": {\"O\": 1}, \"37\": {\"O\": 1}, \"38\": {\"O\": 1}, \"39\": {\"O\": 1}}" n_minim_iter=4 energy=-45151.905157917725 stress="-0.00035723641217271033 6.380938490174254e-14 -9.643182486282079e-14 6.380938490174254e-14 -0.00035723641189086883 7.195174103173839e-14 -9.643182486282079e-14 7.195174103173839e-14 -0.0003572364114503472" free_energy=-45151.905157917725 pbc="T T T"
In      -4.25567524       3.00921682       5.70010893        0       0.00776327      -0.00548946       0.00950802
In       7.22560680       1.19090068       1.57470797        1      -0.00776327       0.00548946      -0.00950802
In       1.28574367      -0.90915807       5.21211642        2      -0.00776327       0.00548946      -0.00950802
In      -1.48496578      -2.10005875       3.63740845        3      -0.00000000       0.00000000       0.00000000
In      -1.28574368       4.05924619       3.39341219        4       0.00776327      -0.00548946      -0.00950802
In       4.65411945      -2.86834551       5.45611267        5       0.00776327       0.01097891      -0.00000000
In      -1.28574368       1.33177198       5.45611267        6       0.00776327       0.01097891      -0.00000000
In      -1.68418789       7.06846301       1.81870422        7      -0.00776327      -0.01097891      -0.00000000
In       4.25567523       0.14087131       3.88140470        8      -0.00776327       0.00548946       0.00950802
In      -1.48496578       4.20011750      -0.00000000        9      -0.00000000      -0.00000000      -0.00000000
In       4.25567523       6.44104755       0.24399625       10      -0.00776327       0.00548946       0.00950802
In      -1.28574368      -2.24093005       7.03082064       11       0.00776327      -0.00548946      -0.00950802
In       4.25567523       2.86834552       1.81870422       12      -0.00776327      -0.01097891       0.00000000
In       1.68418789       5.10927557       2.06270048       13       0.00776327      -0.00548946       0.00950802
In       4.45489734       0.00000000      -0.00000000       14      -0.00000000      -0.00000000       0.00000000
In       1.48496578       2.10005875       3.63740845       15       0.00000000       0.00000000       0.00000000
O        0.87129130       4.20065645       3.95872197       16       0.00701360      -0.01096795      -0.00439975
O       -2.09864026       3.42808432       5.29498916       17       0.00701360       0.00167368       0.01169840
O       -0.43694130       2.25308572       0.05532955       18      -0.00642486       0.01117610      -0.00476028
O       -0.87129131      -0.77149422       1.97889424       19      -0.00701360      -0.00929427       0.00729865
O        3.93157565       5.00355625       1.92356469       20      -0.00075990       0.00654592       0.01205893
O        2.00828748       2.93598099       1.65758072       21       0.00075990      -0.00717037       0.01169840
O        2.00828748       6.26769276       0.26598397       22       0.00075990       0.01371630       0.00036053
O       -2.26987669       5.96109988       3.69273800       23      -0.01267855       0.00233205      -0.00476028
O        3.40687286       1.94703178       7.21948734       24       0.00642486      -0.01117610       0.00476028
O        5.23980824      -1.76098238       3.58207889       25       0.01267855      -0.00233205       0.00476028
O        6.37680442       3.27451841       1.71384376       26       0.00642486       0.00146553      -0.01205893
O        3.66998644       2.31751373       3.90339242       27      -0.01267855      -0.00528854       0.00036053
O        0.70005488       4.32173888       6.95350337       28      -0.01267855       0.00295650       0.00439975
O        2.26987668      -0.12162138       0.32131352       29       0.01267855      -0.00295650      -0.00439975
O       -3.40687286       0.92559909       5.56097314       30      -0.00642486      -0.00146553       0.01205893
O        5.06857182       0.77203317       1.97982773       31      -0.00701360      -0.00167368      -0.01169840
O        0.96164408       1.26413651       5.61723618       32      -0.00075990       0.00717037      -0.01169840
O        3.40687286      -1.02143268       5.61630269       33       0.00642486       0.00971057       0.00729865
O        2.09864026      -0.00053895       3.31609492       34      -0.00701360       0.01096795       0.00439975
O        0.96164408      -2.06757526       7.00883292       35      -0.00075990      -0.01371630      -0.00036053
O       -0.70005488       1.88260377       3.37142447       36       0.01267855       0.00528854      -0.00036053
O       -0.96164409      -0.80343875       5.35125221       37       0.00075990      -0.00654592      -0.01205893
O       -0.43694130       5.22155018       1.65851420       38      -0.00642486      -0.00971057      -0.00729865
O        3.84122286       4.97161172       5.29592265       39       0.00701360       0.00929427      -0.00729865
40
Lattice="8.910924059616269 6.984132690470845e-10 -5.718277519912906e-16 -2.9703080205305588 8.401299772024553 -1.2096886176821184e-09 -2.970308019542852 -4.200649885313867 7.275739028188136" Properties=species:S:1:pos:R:3:spacegroup_kinds:I:1:forces:R:3 spacegroup="P 1" unit_cell=conventional occupancy="_JSON {\"0\": {\"In\": 1}, \"1\": {\"In\": 1}, \"2\": {\"In\": 1}, \"3\": {\"In\": 1}, \"4\": {\"In\": 1}, \"5\": {\"In\": 1}, \"6\": {\"In\": 1}, \"7\": {\"In\": 1}, \"8\": {\"In\": 1}, \"9\": {\"In\": 1}, \"10\": {\"In\": 1}, \"11\": {\"In\": 1}, \"12\": {\"In\": 1}, \"13\": {\"In\": 1}, \"14\": {\"In\": 1}, \"15\": {\"In\": 1}, \"16\": {\"O\": 1}, \"17\": {\"O\": 1}, \"18\": {\"O\": 1}, \"19\": {\"O\": 1}, \"20\": {\"O\": 1}, \"21\": {\"O\": 1}, \"22\": {\"O\": 1}, \"23\": {\"O\": 1}, \"24\": {\"O\": 1}, \"25\": {\"O\": 1}, \"26\": {\"O\": 1}, \"27\": {\"O\": 1}, \"28\": {\"O\": 1}, \"29\": {\"O\": 1}, \"30\": {\"O\": 1}, \"31\": {\"O\": 1}, \"32\": {\"O\": 1}, \"33\": {\"O\": 1}, \"34\": {\"O\": 1}, \"35\": {\"O\": 1}, \"36\": {\"O\": 1}, \"37\": {\"O\": 1}, \"38\": {\"O\": 1}, \"39\": {\"O\": 1}}" n_minim_iter=5 energy=-45151.90541875225 stress="-8.320357714438687e-05 2.7796231374324113e-14 -6.964218571958926e-13 2.7796231374324113e-14 -8.320357729885997e-05 -9.877098356226747e-15 -6.964218571958926e-13 -9.877098356226747e-15 -8.320357707601724e-05" free_energy=-45151.90541875225 pbc="T T T"
In      -4.25577379       3.00928651       5.70137142        0       0.00793512      -0.00561098       0.00971849
In       7.22608181       1.19136338       1.57436761        1      -0.00793512       0.00561098      -0.00971849
In       1.28546577      -0.90896156       5.21223712        2      -0.00793512       0.00561098      -0.00971849
In      -1.48515401      -2.10032494       3.63786951        3       0.00000000      -0.00000000      -0.00000000
In      -1.28546577       4.05944898       3.39330236        4       0.00793512      -0.00561098      -0.00971849
In       4.65515027      -2.86808559       5.45680427        5       0.00793512       0.01122195       0.00000000
In      -1.28546577       1.33256429       5.45680427        6       0.00793512       0.01122195       0.00000000
In      -1.68484225       7.06873549       1.81893475        7      -0.00793512      -0.01122195      -0.00000000
In       4.25577379       0.14120091       3.88243666        8      -0.00793512       0.00561098       0.00971849
In      -1.48515401       4.20064989      -0.00000000        9      -0.00000000       0.00000000       0.00000000
In       4.25577379       6.44217574       0.24456714       10      -0.00793512       0.00561098       0.00971849
In      -1.28546577      -2.24152585       7.03117188       11       0.00793512      -0.00561098      -0.00971849
In       4.25577379       2.86808560       1.81893475       12      -0.00793512      -0.01122195       0.00000000
In       1.68484225       5.10961145       2.06350190       13       0.00793512      -0.00561098       0.00971849
In       4.45546203       0.00000000      -0.00000000       14       0.00000000      -0.00000000      -0.00000000
In       1.48515401       2.10032495       3.63786951       15       0.00000000       0.00000000       0.00000000
O        0.87295551       4.20152317       3.95919722       16       0.00322004      -0.01471585      -0.00518180
O       -2.09735251       3.42832873       5.29538413       17       0.00322004       0.00287036       0.01533520
O       -0.43634286       2.25381754       0.05395815       18      -0.01009470       0.01228529      -0.00097195
O       -0.87295551      -0.77144787       1.97884232       19      -0.00322004      -0.01184550       0.01015340
O        3.93137682       5.00325052       1.92488417       20       0.00163285       0.01128434       0.01112535
O        2.00923921       2.93495161       1.65751462       21      -0.00163285      -0.00399266       0.01533520
O        2.00923921       6.26894879       0.26736955       22      -0.00163285       0.01527701      -0.00420985
O       -2.27036718       5.96109031       3.69182766       23      -0.01494759       0.00542227      -0.00097195
O        3.40665088       1.94683235       7.22178087       24       0.01009470      -0.01228529       0.00097195
O        5.24067520      -1.76044042       3.58391136       25       0.01494759      -0.00542227       0.00097195
O        6.37695890       3.27396285       1.71298534       26       0.01009470       0.00530092      -0.01112535
O        3.67024886       2.31699634       3.90523906       27      -0.01494759      -0.00355287      -0.00420985
O        0.69994084       4.32386302       6.95441132       28      -0.01494759      -0.00186941       0.00518180
O        2.27036718      -0.12321313       0.32132770       29       0.01494759       0.00186941      -0.00518180
O       -3.40665088       0.92668704       5.56275368       30      -0.01009470      -0.00530092       0.01112535
O        5.06766053       0.77232116       1.98035489       31      -0.00322004      -0.00287036      -0.01533520
O        0.96106880       1.26569828       5.61822441       32       0.00163285       0.00399266      -0.01533520
O        3.40665088      -1.02014530       5.61671184       33       0.01009470       0.00698438       0.01015340
O        2.09735251      -0.00087328       3.31654181       34      -0.00322004       0.01471585       0.00518180
O        0.96106881      -2.06829890       7.00836948       35       0.00163285      -0.01527701       0.00420985
O       -0.69994084       1.88365355       3.37049996       36       0.01494759       0.00355287       0.00420985
O       -0.96106881      -0.80260063       5.35085485       37      -0.00163285      -0.01128434      -0.01112535
O       -0.43634286       5.22079519       1.65902719       38      -0.01009470      -0.00698438      -0.01015340
O        3.84326353       4.97209776       5.29689670       39       0.00322004       0.01184550      -0.01015340
40