40
Lattice="8.91208640439135 6.985043819464273e-10 -5.85676263303074e-16 -2.9706954687890046 8.402395641187905 -1.2098463995675487e-09 -2.9706954678011694 -4.201197819895452 7.276688078722929" Properties=species:S:1:pos:R:3:spacegroup_kinds:I:1:forces:R:3 spacegroup="P 1" unit_cell=conventional occupancy="_JSON {\"0\": {\"In\": 1}, \"1\": {\"In\": 1}, \"2\": {\"In\": 1}, \"3\": {\"In\": 1}, \"4\": {\"In\": 1}, \"5\": {\"In\": 1}, \"6\": {\"In\": 1}, \"7\": {\"In\": 1}, \"8\": {\"In\": 1}, \"9\": {\"In\": 1}, \"10\": {\"In\": 1}, \"11\": {\"In\": 1}, \"12\": {\"In\": 1}, \"13\": {\"In\": 1}, \"14\": {\"In\": 1}, \"15\": {\"In\": 1}, \"16\": {\"O\": 1}, \"17\": {\"O\": 1}, \"18\": {\"O\": 1}, \"19\": {\"O\": 1}, \"20\": {\"O\": 1}, \"21\": {\"O\": 1}, \"22\": {\"O\": 1}, \"23\": {\"O\": 1}, \"24\": {\"O\": 1}, \"25\": {\"O\": 1}, \"26\": {\"O\": 1}, \"27\": {\"O\": 1}, \"28\": {\"O\": 1}, \"29\": {\"O\": 1}, \"30\": {\"O\": 1}, \"31\": {\"O\": 1}, \"32\": {\"O\": 1}, \"33\": {\"O\": 1}, \"34\": {\"O\": 1}, \"35\": {\"O\": 1}, \"36\": {\"O\": 1}, \"37\": {\"O\": 1}, \"38\": {\"O\": 1}, \"39\": {\"O\": 1}}" n_minim_iter=7 energy=-45151.90573962641 stress="0.00015111019786327384 1.6159683735906586e-14 4.7624632787474096e-14 1.6159683735906586e-14 0.00015111019767169423 1.3916781898837708e-13 4.7624632787474096e-14 1.3916781898837708e-13 0.00015111019799909898" free_energy=-45151.90573962641 pbc="T T T"
In      -4.25539980       3.00902206       5.70325303        0       0.00201964      -0.00142810       0.00247355
In       7.22609527       1.19217577       1.57343504        1      -0.00201964       0.00142810      -0.00247355
In       1.28470433      -0.90842314       5.21177908        2      -0.00201964       0.00142810      -0.00247355
In      -1.48534774      -2.10059891       3.63834404        3      -0.00000000      -0.00000000       0.00000000
In      -1.28470433       4.05932151       3.39260706        4       0.00201964      -0.00142810      -0.00247355
In       4.65668660      -2.86714574       5.45751606        5       0.00201964       0.00285621      -0.00000000
In      -1.28470433       1.33405208       5.45751606        6       0.00201964       0.00285621      -0.00000000
In      -1.68599114       7.06834357       1.81917202        7      -0.00201964      -0.00285621       0.00000000
In       4.25539980       0.14187631       3.88408101        8      -0.00201964       0.00142810       0.00247355
In      -1.48534774       4.20119782      -0.00000000        9      -0.00000000       0.00000000       0.00000000
In       4.25539980       6.44367304       0.24573697       10      -0.00201964       0.00142810       0.00247355
In      -1.28470433      -2.24247522       7.03095110       11       0.00201964      -0.00142810      -0.00247355
In       4.25539980       2.86714575       1.81917202       12      -0.00201964      -0.00285621      -0.00000000
In       1.68599113       5.10962097       2.06490899       13       0.00201964      -0.00142810       0.00247355
In       4.45604320       0.00000000      -0.00000000       14       0.00000000      -0.00000000       0.00000000
In       1.48534773       2.10059891       3.63834404       15      -0.00000000       0.00000000      -0.00000000
O        0.87517571       4.20176968       3.95946557       16      -0.00033777      -0.00630381       0.00091334
O       -2.09551975       3.42871185       5.29646004       17      -0.00033777       0.00394288       0.00500259
O       -0.43604237       2.25528413       0.05220838       18      -0.00233849       0.00535761       0.00255221
O       -0.87517572      -0.77191412       1.97923754       19       0.00033777      -0.00236093       0.00591593
O        3.93112711       5.00325446       1.92702916       20       0.00382997       0.00383445       0.00336372
O        2.01026382       2.93336993       1.65811600       21      -0.00382997      -0.00099584       0.00500259
O        2.01026382       6.27108235       0.26891315       22      -0.00382997       0.00483029      -0.00163887
O       -2.27164973       5.96114005       3.69055242       23      -0.00583070       0.00041889       0.00255221
O        3.40673784       1.94591369       7.22447970       24       0.00233849      -0.00535761      -0.00255221
O        5.24234520      -1.75994222       3.58613566       25       0.00583070      -0.00041889      -0.00255221
O        6.37743331       3.27345476       1.71131487       26       0.00233849       0.00488908      -0.00336372
O        3.66974121       2.31614104       3.90725719       27      -0.00583070       0.00200083      -0.00163887
O        0.69904574       4.32631238       6.95556654       28      -0.00583070      -0.00241972      -0.00091334
O        2.27164973      -0.12511456       0.32112153       29       0.00583070       0.00241972       0.00091334
O       -3.40673784       0.92774306       5.56537320       30      -0.00233849      -0.00488908       0.00336372
O        5.06621522       0.77248598       1.98022803       31       0.00033777      -0.00394288      -0.00500259
O        0.96043164       1.26782789       5.61857207       32       0.00382997       0.00099584      -0.00500259
O        3.40673784      -1.01817062       5.61758158       33       0.00233849       0.00046853       0.00591593
O        2.09551975      -0.00057186       3.31722250       34       0.00033777       0.00630381      -0.00091334
O        0.96043164      -2.06988453       7.00777492       35       0.00382997      -0.00483029       0.00163887
O       -0.69904574       1.88505679       3.36943088       36       0.00583070      -0.00200083       0.00163887
O       -0.96043164      -0.80205664       5.34965891       37      -0.00382997      -0.00383445      -0.00336372
O       -0.43604237       5.21936845       1.65910649       38      -0.00233849      -0.00046853      -0.00591593
O        3.84587118       4.97311194       5.29745053       39      -0.00033777       0.00236093      -0.00591593
