40
Lattice="8.524103993261022 6.680882743640016e-10 5.366044653534512e-15 -2.841367998383556 8.036602316009567 -1.1571812385966096e-09 -2.8413679974387365 -4.0183011573366825 6.959901766548589" Properties=species:S:1:pos:R:3:spacegroup_kinds:I:1:forces:R:3 spacegroup="P 1" unit_cell=conventional occupancy="_JSON {\"0\": {\"In\": 1}, \"1\": {\"In\": 1}, \"2\": {\"In\": 1}, \"3\": {\"In\": 1}, \"4\": {\"In\": 1}, \"5\": {\"In\": 1}, \"6\": {\"In\": 1}, \"7\": {\"In\": 1}, \"8\": {\"In\": 1}, \"9\": {\"In\": 1}, \"10\": {\"In\": 1}, \"11\": {\"In\": 1}, \"12\": {\"In\": 1}, \"13\": {\"In\": 1}, \"14\": {\"In\": 1}, \"15\": {\"In\": 1}, \"16\": {\"O\": 1}, \"17\": {\"O\": 1}, \"18\": {\"O\": 1}, \"19\": {\"O\": 1}, \"20\": {\"O\": 1}, \"21\": {\"O\": 1}, \"22\": {\"O\": 1}, \"23\": {\"O\": 1}, \"24\": {\"O\": 1}, \"25\": {\"O\": 1}, \"26\": {\"O\": 1}, \"27\": {\"O\": 1}, \"28\": {\"O\": 1}, \"29\": {\"O\": 1}, \"30\": {\"O\": 1}, \"31\": {\"O\": 1}, \"32\": {\"O\": 1}, \"33\": {\"O\": 1}, \"34\": {\"O\": 1}, \"35\": {\"O\": 1}, \"36\": {\"O\": 1}, \"37\": {\"O\": 1}, \"38\": {\"O\": 1}, \"39\": {\"O\": 1}}" n_minim_iter=3 energy=-45146.98392375117 stress="-0.16560245641590002 1.977932435669074e-13 1.1547957802160743e-13 1.977932435669074e-13 -0.16560245641567925 -1.8159118018836067e-13 1.1547957802160743e-13 -1.8159118018836067e-13 -0.1656024564162296" free_energy=-45146.98392375117 pbc="T T T"
In      -4.06650385       2.87545245       5.45942291        0       0.00042415      -0.00029992       0.00051948
In       6.90787184       1.14284871       1.50047885        1      -0.00042415       0.00029992      -0.00051948
In       1.22513585      -0.86630187       4.98042973        2      -0.00042415       0.00029992      -0.00051948
In      -1.42068400      -2.00915058       3.47995088        3      -0.00000000       0.00000000      -0.00000000
In      -1.22513585       3.88002774       3.24045429        4       0.00042415      -0.00029992      -0.00051948
In       4.45760014      -2.73717902       5.21992632        5       0.00042415       0.00059984      -0.00000000
In      -1.22513585       1.28112213       5.21992632        6       0.00042415       0.00059984      -0.00000000
In      -1.61623215       6.75548019       1.73997544        7      -0.00042415      -0.00059984       0.00000000
In       4.06650385       0.13827342       3.71944747        8      -0.00042415       0.00029992       0.00051948
In      -1.42068400       4.01830116      -0.00000000        9       0.00000000       0.00000000       0.00000000
In       4.06650385       6.16572516       0.23949659       10      -0.00042415       0.00029992       0.00051948
In      -1.22513585      -2.14742400       6.72040517       11       0.00042415      -0.00029992      -0.00051948
In       4.06650385       2.73717903       1.73997544       12      -0.00042415      -0.00059984       0.00000000
In       1.61623214       4.88460303       1.97947203       13       0.00042415      -0.00029992       0.00051948
In       4.26205200       0.00000000      -0.00000000       14      -0.00000000      -0.00000000       0.00000000
In       1.42068400       2.00915058       3.47995088       15      -0.00000000       0.00000000       0.00000000
O        0.81337638       4.01101244       3.81607145       16      -0.00506376       0.00837560      -0.00014925
O       -2.02799162       3.30845919       5.05817826       17      -0.00506376      -0.00431705      -0.00717885
O       -0.40499185       2.16082504       0.08603714       18       0.00213851      -0.00940983       0.00164209
O       -0.81337638      -0.71713070       1.91434795       19       0.00506376       0.00405854      -0.00732811
O        3.79524244       4.78510542       1.82831081       20      -0.00238224      -0.00311048      -0.00897019
O        1.88749355       2.81833968       1.57822737       21       0.00238224       0.00621317      -0.00717885
O        1.88749355       5.98506690       0.25008343       22       0.00238224      -0.00932366      -0.00179134
O       -2.17224267       5.68900670       3.56598802       23       0.00958451       0.00112040       0.00164209
O        3.24635984       1.85747612       6.87386462       24      -0.00213851       0.00940983      -0.00164209
O        5.01361066      -1.67070554       3.39391374       25      -0.00958451      -0.00112040      -0.00164209
O        6.08772784       3.16407345       1.65164007       26      -0.00213851      -0.00328282       0.00897019
O        3.51049333       2.25288345       3.73003431       27       0.00958451       0.00086189      -0.00179134
O        0.66912533       4.11301333       6.62378119       28       0.00958451      -0.00198229       0.00014925
O        2.17224267      -0.09471217       0.33612057       29      -0.00958451       0.00198229      -0.00014925
O       -3.24635984       0.85422771       5.30826169       30       0.00213851       0.00328282      -0.00897019
O        4.86935961       0.70984197       1.90172350       31       0.00506376       0.00431705       0.00717885
O        0.95387444       1.19996148       5.38167439       32      -0.00238224      -0.00621317       0.00717885
O        3.24635984      -1.00324840       5.39429883       33      -0.00213851      -0.00612700      -0.00732811
O        2.02799161       0.00728873       3.14383031       34       0.00506376      -0.00837560       0.00014925
O        0.95387444      -1.96676574       6.70981833       35      -0.00238224       0.00932366       0.00179134
O       -0.66912533       1.76541771       3.22986745       36      -0.00958451      -0.00086189       0.00179134
O       -0.95387444      -0.76680426       5.13159095       37       0.00238224       0.00311048       0.00897019
O       -0.40499185       5.02154957       1.56560293       38       0.00213851       0.00612700       0.00732811
O        3.65474438       4.73543186       5.04555381       39      -0.00506376      -0.00405854       0.00732811
