40
Lattice="9.337099822843893 7.318100018980114e-10 1.663767053594782e-14 -3.112366608304589 8.80310213488756 -1.2675491229594444e-09 -3.1123666072696667 -4.401551066711959 7.623710081766679" Properties=species:S:1:pos:R:3:spacegroup_kinds:I:1:forces:R:3 spacegroup="P 1" unit_cell=conventional occupancy="_JSON {\"0\": {\"In\": 1}, \"1\": {\"In\": 1}, \"2\": {\"In\": 1}, \"3\": {\"In\": 1}, \"4\": {\"In\": 1}, \"5\": {\"In\": 1}, \"6\": {\"In\": 1}, \"7\": {\"In\": 1}, \"8\": {\"In\": 1}, \"9\": {\"In\": 1}, \"10\": {\"In\": 1}, \"11\": {\"In\": 1}, \"12\": {\"In\": 1}, \"13\": {\"In\": 1}, \"14\": {\"In\": 1}, \"15\": {\"In\": 1}, \"16\": {\"O\": 1}, \"17\": {\"O\": 1}, \"18\": {\"O\": 1}, \"19\": {\"O\": 1}, \"20\": {\"O\": 1}, \"21\": {\"O\": 1}, \"22\": {\"O\": 1}, \"23\": {\"O\": 1}, \"24\": {\"O\": 1}, \"25\": {\"O\": 1}, \"26\": {\"O\": 1}, \"27\": {\"O\": 1}, \"28\": {\"O\": 1}, \"29\": {\"O\": 1}, \"30\": {\"O\": 1}, \"31\": {\"O\": 1}, \"32\": {\"O\": 1}, \"33\": {\"O\": 1}, \"34\": {\"O\": 1}, \"35\": {\"O\": 1}, \"36\": {\"O\": 1}, \"37\": {\"O\": 1}, \"38\": {\"O\": 1}, \"39\": {\"O\": 1}}" n_minim_iter=6 energy=-45147.752413114125 stress="0.08650383907951474 1.7550768486772661e-13 -1.1216015150906409e-13 1.7550768486772661e-13 0.08650383907962275 2.5484175135714464e-13 -1.1216015150906409e-13 2.5484175135714464e-13 0.08650383908017026" free_energy=-45147.752413114125 pbc="T T T"
In      -4.42870276       3.13156575       6.01153413        0      -0.00549384       0.00388473      -0.00672855
In       7.54106936       1.26998532       1.61217594        1       0.00549384      -0.00388473       0.00672855
In       1.31633615      -0.93079021       5.42403098        2       0.00549384      -0.00388473       0.00672855
In      -1.55618331      -2.20077553       3.81185504        3       0.00000000       0.00000000      -0.00000000
In      -1.31633615       4.23195352       3.51810346        4      -0.00549384       0.00388473       0.00672855
In       4.90839707      -2.96196820       5.71778256        5      -0.00549384      -0.00776946       0.00000000
In      -1.31633615       1.43958287       5.71778256        6      -0.00549384      -0.00776946      -0.00000000
In      -1.79603046       7.36351927       1.90592752        7       0.00549384       0.00776946       0.00000000
In       4.42870275       0.16959755       4.10560661        8       0.00549384      -0.00388473      -0.00672855
In      -1.55618331       4.40155107      -0.00000000        9      -0.00000000      -0.00000000       0.00000000
In       4.42870275       6.77192415       0.29375157       10       0.00549384      -0.00388473      -0.00672855
In      -1.31633615      -2.37037308       7.32995851       11      -0.00549384       0.00388473       0.00672855
In       4.42870275       2.96196820       1.90592752       12       0.00549384       0.00776946      -0.00000000
In       1.79603046       5.33234129       2.19967909       13      -0.00549384       0.00388473      -0.00672855
In       4.66854991       0.00000000      -0.00000000       14       0.00000000       0.00000000      -0.00000000
In       1.55618330       2.20077554       3.81185504       15       0.00000000      -0.00000000       0.00000000
O        1.02635285       4.41783124       4.11639143       16      -0.00178817       0.00358028       0.00332609
O       -2.08601375       3.55675947       5.55141532       17      -0.00178817       0.00109034      -0.00476366
O       -0.43901045       2.39215227      -0.05513591       18       0.00380745      -0.00286635       0.00208954
O       -1.02635286      -0.82851143       2.04409668       19       0.00178817       0.00467062      -0.00143756
O        4.04868290       5.19822977       2.09923258       20       0.00162404      -0.00346422      -0.00352710
O        2.17605031       2.98190167       1.73956028       21      -0.00162404       0.00132245      -0.00476366
O        2.17605031       6.61787917       0.35967230       22      -0.00162404      -0.00478667       0.00123655
O       -2.40167960       6.21884554       3.75671913       23       0.00397157      -0.00263425       0.00208954
O        3.55137706       2.00939880       7.67884599       24      -0.00380745       0.00286635      -0.00208954
O        5.51404621      -1.81729446       3.86699095       25      -0.00397157       0.00263425      -0.00208954
O        6.66374366       3.34910257       1.71262245       26      -0.00380745       0.00037642       0.00352711
O        3.82305361       2.34476697       4.17152734       27       0.00397157       0.00312672       0.00123655
O        0.71068700       4.64104070       7.31917369       28       0.00397157      -0.00049247      -0.00332609
O        2.40167960      -0.23948963       0.30453639       29      -0.00397157       0.00049247       0.00332609
O       -3.55137706       1.05244850       5.91108762       30       0.00380745      -0.00037642      -0.00352710
O        5.19838036       0.84479160       2.07229475       31       0.00178817      -0.00109034       0.00476366
O        0.93631629       1.41964940       5.88414979       32       0.00162404      -0.00132245       0.00476366
O        3.55137706      -0.95695030       5.85595172       33      -0.00380745      -0.00324277      -0.00143756
O        2.08601375      -0.01628016       3.50731865       34       0.00178817      -0.00358028      -0.00332609
O        0.93631629      -2.21632810       7.26403778       35       0.00162404       0.00478667      -0.00123655
O       -0.71068701       2.05678410       3.45218274       36      -0.00397157      -0.00312672      -0.00123655
O       -0.93631630      -0.79667870       5.52447749       37      -0.00162404       0.00346422       0.00352710
O       -0.43901045       5.35850137       1.76775836       38       0.00380745       0.00324277       0.00143756
O        4.13871946       5.23006250       5.57961340       39      -0.00178817      -0.00467062       0.00143756
