40
Lattice="8.273248147763018 6.484262088879318e-10 9.119775953172e-15 -2.7577493831990174 7.800093156746894 -1.1231284950551552e-09 -2.7577493822820105 -3.9000465777250066 6.755078826376709" Properties=species:S:1:pos:R:3:spacegroup_kinds:I:1:forces:R:3 spacegroup="P 1" unit_cell=conventional occupancy="_JSON {\"0\": {\"In\": 1}, \"1\": {\"In\": 1}, \"2\": {\"In\": 1}, \"3\": {\"In\": 1}, \"4\": {\"In\": 1}, \"5\": {\"In\": 1}, \"6\": {\"In\": 1}, \"7\": {\"In\": 1}, \"8\": {\"In\": 1}, \"9\": {\"In\": 1}, \"10\": {\"In\": 1}, \"11\": {\"In\": 1}, \"12\": {\"In\": 1}, \"13\": {\"In\": 1}, \"14\": {\"In\": 1}, \"15\": {\"In\": 1}, \"16\": {\"O\": 1}, \"17\": {\"O\": 1}, \"18\": {\"O\": 1}, \"19\": {\"O\": 1}, \"20\": {\"O\": 1}, \"21\": {\"O\": 1}, \"22\": {\"O\": 1}, \"23\": {\"O\": 1}, \"24\": {\"O\": 1}, \"25\": {\"O\": 1}, \"26\": {\"O\": 1}, \"27\": {\"O\": 1}, \"28\": {\"O\": 1}, \"29\": {\"O\": 1}, \"30\": {\"O\": 1}, \"31\": {\"O\": 1}, \"32\": {\"O\": 1}, \"33\": {\"O\": 1}, \"34\": {\"O\": 1}, \"35\": {\"O\": 1}, \"36\": {\"O\": 1}, \"37\": {\"O\": 1}, \"38\": {\"O\": 1}, \"39\": {\"O\": 1}}" n_minim_iter=6 energy=-45136.960376155715 stress="-0.3369338779687385 7.762391857302595e-13 2.0406753001261237e-13 7.762391857302595e-13 -0.3369338779691566 -3.562385898218746e-14 2.0406753001261237e-13 -3.562385898218746e-14 -0.33693387796800867" free_energy=-45136.960376155715 pbc="T T T"
In      -3.93462788       2.78220205       5.31370293        0      -0.00247208       0.00174802      -0.00302766
In       6.69237725       1.11784453       1.44137589        1       0.00247208      -0.00174802       0.00302766
In       1.17687849      -0.83217876       4.81891531        2       0.00247208      -0.00174802       0.00302766
In      -1.37887469      -1.95002329       3.37753941        3      -0.00000000       0.00000000      -0.00000000
In      -1.17687849       3.75721370       3.13014560        4      -0.00247208       0.00174802       0.00302766
In       4.33862027      -2.63936917       5.06630912        5      -0.00247208      -0.00349605      -0.00000000
In      -1.17687849       1.26067741       5.06630912        6      -0.00247208      -0.00349605      -0.00000000
In      -1.58087089       6.53941575       1.68876970        7       0.00247208       0.00349605       0.00000000
In       3.93462787       0.14283289       3.62493322        8       0.00247208      -0.00174802      -0.00302766
In      -1.37887469       3.90004658      -0.00000000        9      -0.00000000      -0.00000000      -0.00000000
In       3.93462787       5.99290275       0.24739381       10       0.00247208      -0.00174802      -0.00302766
In      -1.17687849      -2.09285617       6.50768501       11      -0.00247208       0.00174802       0.00302766
In       3.93462787       2.63936917       1.68876970       12       0.00247208       0.00349605      -0.00000000
In       1.58087089       4.73222534       1.93616351       13      -0.00247208       0.00174802      -0.00302766
In       4.13662407       0.00000000      -0.00000000       14       0.00000000      -0.00000000      -0.00000000
In       1.37887469       1.95002329       3.37753941       15      -0.00000000      -0.00000000      -0.00000000
O        0.78453520       3.88996103       3.72875741       16       0.00368359      -0.00006759       0.00420277
O       -1.97321418       3.23424142       4.89943446       17       0.00368359       0.00367350      -0.00204285
O       -0.37572414       2.10464538       0.10087337       18       0.00462755       0.00300602      -0.00088674
O       -0.78453520      -0.67589071       1.87311305       19      -0.00368359       0.00360591       0.00215992
O        3.70701011       4.63417656       1.77223967       20       0.00223555      -0.00411787       0.00304666
O        1.80848865       2.73230699       1.52189505       21      -0.00223555      -0.00469742      -0.00204285
O        1.80848865       5.80191615       0.25034462       22      -0.00223555       0.00057955       0.00508951
O       -2.10952007       5.50275753       3.47841278       23      -0.00129159      -0.00536490      -0.00088674
O        3.13347352       1.79540120       6.65420545       24      -0.00462755      -0.00300602       0.00088674
O        4.86726945      -1.60271094       3.27666604       25       0.00129159       0.00536490       0.00088674
O        5.89122290       3.08970488       1.60529973       26      -0.00462755       0.00073507      -0.00304666
O        3.40597869       2.21103837       3.62788404       27      -0.00129159       0.00191451       0.00508951
O        0.64822931       3.98634385       6.40386082       28      -0.00129159       0.00345039      -0.00420277
O        2.10952007      -0.08629727       0.35121800       29       0.00129159      -0.00345039       0.00420277
O       -3.13347352       0.81034170       5.14977909       30       0.00462755      -0.00073507       0.00304666
O        4.73096356       0.66580516       1.85564436       31      -0.00368359      -0.00367350       0.00204285
O        0.94926073       1.16773959       5.23318377       32       0.00223555       0.00469742       0.00204285
O        3.13347352      -0.98505950       5.25065246       33      -0.00462755       0.00227095       0.00215992
O        1.97321418       0.01008555       3.02632141       34      -0.00368359       0.00006759      -0.00420277
O        0.94926073      -1.90186957       6.50473420       35       0.00223555      -0.00057955      -0.00508951
O       -0.64822931       1.68900821       3.12719478       36       0.00129159      -0.00191451      -0.00508951
O       -0.94926073      -0.73412998       4.98283915       37      -0.00223555       0.00411787      -0.00304666
O       -0.37572414       4.88510608       1.50442636       38       0.00462755      -0.00227095      -0.00215992
O        3.54228458       4.57593729       4.88196577       39       0.00368359      -0.00360591      -0.00215992
