40
Lattice="9.268943379707562 7.264672941804358e-10 1.124193553806346e-14 -3.089647793920778 8.738843624058346 -1.2582956456229741e-09 -3.0896477928934063 -4.3694218113026935 7.568060578973055" Properties=species:S:1:pos:R:3:spacegroup_kinds:I:1:forces:R:3 spacegroup="P 1" unit_cell=conventional occupancy="_JSON {\"0\": {\"In\": 1}, \"1\": {\"In\": 1}, \"2\": {\"In\": 1}, \"3\": {\"In\": 1}, \"4\": {\"In\": 1}, \"5\": {\"In\": 1}, \"6\": {\"In\": 1}, \"7\": {\"In\": 1}, \"8\": {\"In\": 1}, \"9\": {\"In\": 1}, \"10\": {\"In\": 1}, \"11\": {\"In\": 1}, \"12\": {\"In\": 1}, \"13\": {\"In\": 1}, \"14\": {\"In\": 1}, \"15\": {\"In\": 1}, \"16\": {\"O\": 1}, \"17\": {\"O\": 1}, \"18\": {\"O\": 1}, \"19\": {\"O\": 1}, \"20\": {\"O\": 1}, \"21\": {\"O\": 1}, \"22\": {\"O\": 1}, \"23\": {\"O\": 1}, \"24\": {\"O\": 1}, \"25\": {\"O\": 1}, \"26\": {\"O\": 1}, \"27\": {\"O\": 1}, \"28\": {\"O\": 1}, \"29\": {\"O\": 1}, \"30\": {\"O\": 1}, \"31\": {\"O\": 1}, \"32\": {\"O\": 1}, \"33\": {\"O\": 1}, \"34\": {\"O\": 1}, \"35\": {\"O\": 1}, \"36\": {\"O\": 1}, \"37\": {\"O\": 1}, \"38\": {\"O\": 1}, \"39\": {\"O\": 1}}" n_minim_iter=9 energy=-45148.87655770114 stress="0.07797984087724139 -5.239264367916532e-13 1.3167843964144026e-13 -5.239264367916532e-13 0.0779798408774522 3.2524628018763006e-13 1.3167843964144026e-13 3.2524628018763006e-13 0.07797984087770889" free_energy=-45148.87655770114 pbc="T T T"
In      -4.40108330       3.11203585       5.96188666        0       0.00132693      -0.00093828       0.00162515
In       7.49073109       1.25738597       1.60617391        1      -0.00132693       0.00093828      -0.00162515
In       1.31143551      -0.92732494       5.39020420        2      -0.00132693       0.00093828      -0.00162515
In      -1.54482390      -2.18471090       3.78403029        3      -0.00000000      -0.00000000      -0.00000000
In      -1.31143551       4.20439130       3.49818905        4       0.00132693      -0.00093828      -0.00162515
In       4.86786008      -2.94700533       5.67604543        5       0.00132693       0.00187656       0.00000000
In      -1.31143551       1.42241648       5.67604543        6       0.00132693       0.00187656      -0.00000000
In      -1.77821229       7.31642715       1.89201514        7      -0.00132693      -0.00187656      -0.00000000
In       4.40108330       0.16503052       4.06987152        8      -0.00132693       0.00093828       0.00162515
In      -1.54482390       4.36942181      -0.00000000        9       0.00000000      -0.00000000       0.00000000
In       4.40108330       6.71916323       0.28584123       10      -0.00132693       0.00093828       0.00162515
In      -1.31143551      -2.34974142       7.28221934       11       0.00132693      -0.00093828      -0.00162515
In       4.40108330       2.94700534       1.89201514       12      -0.00132693      -0.00187656      -0.00000000
In       1.77821228       5.29674675       2.17785637       13       0.00132693      -0.00093828       0.00162515
In       4.63447169       0.00000000      -0.00000000       14       0.00000000       0.00000000      -0.00000000
In       1.54482389       2.18471091       3.78403029       15       0.00000000      -0.00000000      -0.00000000
O        0.99436116       4.38261189       4.09365473       16      -0.00024330       0.00331294       0.00159281
O       -2.09528664       3.53861396       5.50981027       17      -0.00024330      -0.00027705      -0.00366550
O       -0.43940372       2.36772791      -0.03021620       18       0.00278116      -0.00241567       0.00003869
O       -0.99436116      -0.81761778       2.03540442       19       0.00024330       0.00303589      -0.00207268
O        4.03466611       5.16959426       2.06562062       20      -0.00018011      -0.00301355      -0.00211138
O        2.14462948       2.98062811       1.72577998       21       0.00018011       0.00032173      -0.00366550
O        2.14462948       6.55838797       0.33984064       22       0.00018011      -0.00333528       0.00155412
O       -2.37878319       6.17916388       3.75381409       23       0.00320457      -0.00181688       0.00003869
O        3.52905151       2.00169390       7.59827677       24      -0.00278116       0.00241567      -0.00003869
O        5.46843098      -1.80974206       3.81424648       25      -0.00320457       0.00181688      -0.00003869
O        6.61869930       3.34240687       1.71840967       26      -0.00278116      -0.00117432       0.00211138
O        3.80051240       2.34602733       4.12387093       27       0.00320457       0.00094195       0.00155412
O        0.71086460       4.58307423       7.25843613       28       0.00320457       0.00087493      -0.00159281
O        2.37878319      -0.21365241       0.30962444       29      -0.00320457      -0.00087493       0.00159281
O       -3.52905151       1.02701495       5.84965091       30       0.00278116       0.00117432      -0.00211138
O        5.18493443       0.83080786       2.05825031       31       0.00024330       0.00027705       0.00366550
O        0.94501831       1.38879371       5.84228060       32      -0.00018011      -0.00032173       0.00366550
O        3.52905151      -0.97467895       5.81943471       33      -0.00278116      -0.00124134      -0.00207268
O        2.09528663      -0.01319008       3.47440584       34       0.00024330      -0.00331294      -0.00159281
O        0.94501831      -2.18896615       7.22821994       35      -0.00018011       0.00333528      -0.00155412
O       -0.71086461       2.02339448       3.44418965       36      -0.00320457      -0.00094195      -0.00155412
O       -0.94501832      -0.80017245       5.50243996       37       0.00018011       0.00301355       0.00211138
O       -0.43940372       5.34410077       1.74862586       38       0.00278116       0.00124134       0.00207268
O        4.08400895       5.18703960       5.53265615       39      -0.00024330      -0.00303589       0.00207268
