40
Lattice="8.683469822539099 6.805812140451814e-10 4.701016412737485e-15 -2.8944899414880254 8.186853860767997 -1.1788082383709408e-09 -2.894489940525541 -4.09342692970341 7.090023421281665" Properties=species:S:1:pos:R:3:spacegroup_kinds:I:1:forces:R:3 spacegroup="P 1" unit_cell=conventional occupancy="_JSON {\"0\": {\"In\": 1}, \"1\": {\"In\": 1}, \"2\": {\"In\": 1}, \"3\": {\"In\": 1}, \"4\": {\"In\": 1}, \"5\": {\"In\": 1}, \"6\": {\"In\": 1}, \"7\": {\"In\": 1}, \"8\": {\"In\": 1}, \"9\": {\"In\": 1}, \"10\": {\"In\": 1}, \"11\": {\"In\": 1}, \"12\": {\"In\": 1}, \"13\": {\"In\": 1}, \"14\": {\"In\": 1}, \"15\": {\"In\": 1}, \"16\": {\"O\": 1}, \"17\": {\"O\": 1}, \"18\": {\"O\": 1}, \"19\": {\"O\": 1}, \"20\": {\"O\": 1}, \"21\": {\"O\": 1}, \"22\": {\"O\": 1}, \"23\": {\"O\": 1}, \"24\": {\"O\": 1}, \"25\": {\"O\": 1}, \"26\": {\"O\": 1}, \"27\": {\"O\": 1}, \"28\": {\"O\": 1}, \"29\": {\"O\": 1}, \"30\": {\"O\": 1}, \"31\": {\"O\": 1}, \"32\": {\"O\": 1}, \"33\": {\"O\": 1}, \"34\": {\"O\": 1}, \"35\": {\"O\": 1}, \"36\": {\"O\": 1}, \"37\": {\"O\": 1}, \"38\": {\"O\": 1}, \"39\": {\"O\": 1}}" n_minim_iter=1 energy=-45150.3122230231 stress="-0.08431492852797344 -3.9376238776622144e-13 -5.207747714832012e-13 -3.9376238776622144e-13 -0.08431492852819927 2.0362272892802615e-13 -5.207747714832012e-13 2.0362272892802615e-13 -0.08431492852864175" free_energy=-45150.3122230231 pbc="T T T"
In      -4.14566174       2.93142553       5.55765718        0      -0.00138332       0.00097815      -0.00169421
In       7.04015167       1.16200141       1.53236623        1       0.00138332      -0.00097815       0.00169421
In       1.25117179      -0.88471206       5.07737795        2       0.00138332      -0.00097815       0.00169421
In      -1.44724497      -2.04671346       3.54501171        3      -0.00000000       0.00000000      -0.00000000
In      -1.25117180       3.95478226       3.30487209        4      -0.00138332       0.00097815       0.00169421
In       4.53780809      -2.79278085       5.31751756        5      -0.00138332      -0.00195631      -0.00000000
In      -1.25117179       1.30064608       5.31751756        6      -0.00138332      -0.00195631       0.00000000
In      -1.64331815       6.88620778       1.77250585        7       0.00138332       0.00195631      -0.00000000
In       4.14566173       0.13864468       3.78515133        8       0.00138332      -0.00097815      -0.00169421
In      -1.44724497       4.09342693      -0.00000000        9       0.00000000      -0.00000000      -0.00000000
In       4.14566173       6.27878507       0.24013961       10       0.00138332      -0.00097815      -0.00169421
In      -1.25117179      -2.18535814       6.84988380       11      -0.00138332       0.00097815       0.00169421
In       4.14566173       2.79278085       1.77250585       12       0.00138332       0.00195631       0.00000000
In       1.64331815       4.97813899       2.01264547       13      -0.00138332       0.00097815      -0.00169421
In       4.34173491       0.00000000      -0.00000000       14      -0.00000000       0.00000000       0.00000000
In       1.44724497       2.04671347       3.54501171       15      -0.00000000      -0.00000000      -0.00000000
O        0.83969588       4.08962553       3.87125782       16      -0.02537545       0.00426102       0.06886891
O       -2.05479406       3.35450833       5.15768662       17      -0.02537545       0.05751172      -0.03812460
O       -0.42034452       2.19877797       0.06944690       18       0.04978141       0.00436779       0.05392337
O       -0.83969588      -0.74272001       1.93892103       19       0.02537545       0.06177273       0.03074430
O        3.84759213       4.87624213       1.86947413       20       0.06268105      -0.03064006      -0.02317907
O        1.94138775       2.86582244       1.61267491       21      -0.06268105       0.00475363      -0.03812460
O        1.94138775       6.10384662       0.25679922       22      -0.06268105      -0.03539369       0.01494554
O       -2.21314259       5.80351902       3.61445861       23       0.01247581      -0.04839029       0.05392337
O        3.31483445       1.89464896       7.02057652       24      -0.04978141      -0.00436779      -0.05392337
O        5.10763253      -1.71009208       3.47556481       25      -0.01247581       0.04839029      -0.05392337
O        6.20932439       3.20624523       1.67553758       26      -0.04978141       0.04888291       0.02317907
O        3.57583729       2.27516694       3.80181093       27       0.01247581       0.07089416       0.01494554
O        0.68134735       4.20159485       6.76377730       28       0.01247581      -0.02250386      -0.06886891
O        2.21314259      -0.10816791       0.32624611       29      -0.01247581       0.02250386       0.06886891
O       -3.31483446       0.88718170       5.41448584       30       0.04978141      -0.04888291      -0.02317907
O        4.94928400       0.73891861       1.93233680       31       0.02537545      -0.05751172       0.03812460
O        0.95310219       1.22760449       5.47734851       32       0.06268105      -0.00475363       0.03812460
O        3.31483445      -1.00746726       5.48393274       33      -0.04978141      -0.04451512       0.03074430
O        2.05479406       0.00380141       3.21876559       34       0.02537545      -0.00426102      -0.06886891
O        0.95310219      -2.01041968       6.83322420       35       0.06268105       0.03539369      -0.01494554
O       -0.68134735       1.81826000       3.28821249       36      -0.01247581      -0.07089416      -0.01494554
O       -0.95310219      -0.78281519       5.22054929       37      -0.06268105       0.03064006       0.02317907
O       -0.42034452       5.10089419       1.60609068       38       0.04978141       0.04451512      -0.03074430
O        3.73418582       4.83614694       5.15110239       39      -0.02537545      -0.06177273      -0.03074430
40
Lattice="8.683469822539102 6.805812140451819e-10 4.70101641273749e-15 -2.8944899414880276 8.186853860768 -1.1788082383709418e-09 -2.8944899405255433 -4.093426929703412 7.090023421281672" Properties=species:S:1:pos:R:3:spacegroup_kinds:I:1:forces:R:3 spacegroup="P 1" unit_cell=conventional occupancy="_JSON {\"0\": {\"In\": 1}, \"1\": {\"In\": 1}, \"2\": {\"In\": 1}, \"3\": {\"In\": 1}, \"4\": {\"In\": 1}, \"5\": {\"In\": 1}, \"6\": {\"In\": 1}, \"7\": {\"In\": 1}, \"8\": {\"In\": 1}, \"9\": {\"In\": 1}, \"10\": {\"In\": 1}, \"11\": {\"In\": 1}, \"12\": {\"In\": 1}, \"13\": {\"In\": 1}, \"14\": {\"In\": 1}, \"15\": {\"In\": 1}, \"16\": {\"O\": 1}, \"17\": {\"O\": 1}, \"18\": {\"O\": 1}, \"19\": {\"O\": 1}, \"20\": {\"O\": 1}, \"21\": {\"O\": 1}, \"22\": {\"O\": 1}, \"23\": {\"O\": 1}, \"24\": {\"O\": 1}, \"25\": {\"O\": 1}, \"26\": {\"O\": 1}, \"27\": {\"O\": 1}, \"28\": {\"O\": 1}, \"29\": {\"O\": 1}, \"30\": {\"O\": 1}, \"31\": {\"O\": 1}, \"32\": {\"O\": 1}, \"33\": {\"O\": 1}, \"34\": {\"O\": 1}, \"35\": {\"O\": 1}, \"36\": {\"O\": 1}, \"37\": {\"O\": 1}, \"38\": {\"O\": 1}, \"39\": {\"O\": 1}}" n_minim_iter=2 energy=-45150.317102227295 stress="-0.08379223535613138 1.0126179477385192e-13 -2.954324757021426e-13 1.0126179477385192e-13 -0.08379223535585316 -6.925040659694179e-14 -2.954324757021426e-13 -6.925040659694179e-14 -0.0837922353559194" free_energy=-45150.317102227295 pbc="T T T"
In      -4.14576054       2.93149539       5.55753617        0       0.03030579      -0.02142943       0.03711686
In       7.04025048       1.16193154       1.53248725        1      -0.03030579       0.02142943      -0.03711686
In       1.25127060      -0.88478193       5.07749896        2      -0.03030579       0.02142943      -0.03711686
In      -1.44724497      -2.04671346       3.54501171        3       0.00000000       0.00000000       0.00000000
In      -1.25127060       3.95485213       3.30499310        4       0.03030579      -0.02142943      -0.03711686
In       4.53770928      -2.79292059       5.31751756        5       0.03030579       0.04285886      -0.00000000
In      -1.25127060       1.30050634       5.31751756        6       0.03030579       0.04285886      -0.00000000
In      -1.64321934       6.88634752       1.77250585        7      -0.03030579      -0.04285886      -0.00000000
In       4.14576054       0.13857481       3.78503031        8      -0.03030579       0.02142943       0.03711686
In      -1.44724497       4.09342693      -0.00000000        9      -0.00000000      -0.00000000      -0.00000000
In       4.14576054       6.27871520       0.24001860       10      -0.03030579       0.02142943       0.03711686
In      -1.25127060      -2.18528827       6.85000482       11       0.03030579      -0.02142943      -0.03711686
In       4.14576054       2.79292059       1.77250585       12      -0.03030579      -0.04285886       0.00000000
In       1.64321934       4.97820886       2.01252446       13       0.03030579      -0.02142943       0.03711686
In       4.34173491       0.00000000      -0.00000000       14      -0.00000000       0.00000000       0.00000000
In       1.44724497       2.04671347       3.54501171       15       0.00000000       0.00000000      -0.00000000
O        0.83788335       4.08992989       3.87617703       16      -0.02956257      -0.02035853      -0.00467330
O       -2.05660659       3.35861631       5.15496343       17      -0.02956257       0.00613207       0.01996766
O       -0.41678870       2.19908996       0.07329857       18      -0.02326703       0.00168045       0.02767809
O       -0.83788335      -0.73830767       1.94111705       19       0.02956257      -0.01422647       0.01529436
O        3.85206935       4.87405355       1.86781848       20       0.01563556       0.03020642      -0.01238373
O        1.93691053       2.86616199       1.60995172       21      -0.01563556       0.02582784       0.01996766
O        1.93691053       6.10131850       0.25786675       22      -0.01563556       0.00437858      -0.03235139
O       -2.21225146       5.80006257       3.61831028       23      -0.00934002       0.02137622       0.02767809
O        3.31127864       1.89433698       7.01672485       24       0.02326703      -0.00168045      -0.02767809
O        5.10674140      -1.70663563       3.47171314       25       0.00934002      -0.02137622      -0.02767809
O        6.20576858       3.20973687       1.67719323       26       0.02326703       0.02481015       0.01238373
O        3.57672842       2.28023080       3.80287846       27      -0.00934002       0.01328182      -0.03235139
O        0.68223848       4.19998743       6.75885809       28      -0.00934002      -0.03465804       0.00467330
O        2.21225146      -0.10656049       0.33116532       29       0.00934002       0.03465804      -0.00467330
O       -3.31127864       0.88369007       5.41283019       30      -0.02326703      -0.02481015      -0.01238373
O        4.95109653       0.73481063       1.93505998       31       0.02956257      -0.00613207      -0.01996766
O        0.95757941       1.22726495       5.48007169       32       0.01563556      -0.02582784      -0.01996766
O        3.31127864      -1.01064691       5.48612876       33       0.02326703      -0.02312970       0.01529436
O        2.05660659       0.00349705       3.21384638       34       0.02956257       0.02035853       0.00467330
O        0.95757941      -2.00789156       6.83215666       35       0.01563556      -0.00437858       0.03235139
O       -0.68223848       1.81319613       3.28714495       36       0.00934002      -0.01328182       0.03235139
O       -0.95757941      -0.78062662       5.22220494       37      -0.01563556      -0.03020642       0.01238373
O       -0.41678870       5.10407384       1.60389466       38      -0.02326703       0.02312970      -0.01529436
O        3.73237329       4.83173461       5.14890637       39      -0.02956257       0.01422647      -0.01529436
40
Lattice="8.683469822539111 6.805812140451824e-10 4.7010164127375066e-15 -2.8944899414880307 8.186853860768002 -1.178808238370943e-09 -2.8944899405255464 -4.093426929703413 7.090023421281679" Properties=species:S:1:pos:R:3:spacegroup_kinds:I:1:forces:R:3 spacegroup="P 1" unit_cell=conventional occupancy="_JSON {\"0\": {\"In\": 1}, \"1\": {\"In\": 1}, \"2\": {\"In\": 1}, \"3\": {\"In\": 1}, \"4\": {\"In\": 1}, \"5\": {\"In\": 1}, \"6\": {\"In\": 1}, \"7\": {\"In\": 1}, \"8\": {\"In\": 1}, \"9\": {\"In\": 1}, \"10\": {\"In\": 1}, \"11\": {\"In\": 1}, \"12\": {\"In\": 1}, \"13\": {\"In\": 1}, \"14\": {\"In\": 1}, \"15\": {\"In\": 1}, \"16\": {\"O\": 1}, \"17\": {\"O\": 1}, \"18\": {\"O\": 1}, \"19\": {\"O\": 1}, \"20\": {\"O\": 1}, \"21\": {\"O\": 1}, \"22\": {\"O\": 1}, \"23\": {\"O\": 1}, \"24\": {\"O\": 1}, \"25\": {\"O\": 1}, \"26\": {\"O\": 1}, \"27\": {\"O\": 1}, \"28\": {\"O\": 1}, \"29\": {\"O\": 1}, \"30\": {\"O\": 1}, \"31\": {\"O\": 1}, \"32\": {\"O\": 1}, \"33\": {\"O\": 1}, \"34\": {\"O\": 1}, \"35\": {\"O\": 1}, \"36\": {\"O\": 1}, \"37\": {\"O\": 1}, \"38\": {\"O\": 1}, \"39\": {\"O\": 1}}" n_minim_iter=3 energy=-45150.319173937125 stress="-0.0834060915045829 -4.48536533999609e-13 -6.0629871855867e-14 -4.48536533999609e-13 -0.0834060915042135 -1.0018820652942525e-13 -6.0629871855867e-14 -1.0018820652942525e-13 -0.08340609150433316" free_energy=-45150.319173937125 pbc="T T T"
In      -4.14400683       2.93025533       5.55968401        0       0.00619358      -0.00437952       0.00758555
In       7.03849677       1.16317160       1.53033940        1      -0.00619358       0.00437952      -0.00758555
In       1.24951689      -0.88354187       5.07535111        2      -0.00619358       0.00437952      -0.00758555
In      -1.44724497      -2.04671346       3.54501171        3       0.00000000      -0.00000000      -0.00000000
In      -1.24951689       3.95361207       3.30284526        4       0.00619358      -0.00437952      -0.00758555
In       4.53946299      -2.79044047       5.31751756        5       0.00619358       0.00875904      -0.00000000
In      -1.24951689       1.30298646       5.31751756        6       0.00619358       0.00875904       0.00000000
In      -1.64497305       6.88386740       1.77250585        7      -0.00619358      -0.00875904       0.00000000
In       4.14400683       0.13981487       3.78717816        8      -0.00619358       0.00437952       0.00758555
In      -1.44724497       4.09342693      -0.00000000        9      -0.00000000       0.00000000      -0.00000000
In       4.14400683       6.27995526       0.24216645       10      -0.00619358       0.00437952       0.00758555
In      -1.24951689      -2.18652833       6.84785697       11       0.00619358      -0.00437952      -0.00758555
In       4.14400683       2.79044047       1.77250585       12      -0.00619358      -0.00875904      -0.00000000
In       1.64497305       4.97696880       2.01467230       13       0.00619358      -0.00437952       0.00758555
In       4.34173491       0.00000000      -0.00000000       14       0.00000000      -0.00000000       0.00000000
In       1.44724497       2.04671347       3.54501171       15      -0.00000000      -0.00000000       0.00000000
O        0.83500913       4.08889685       3.87889564       16      -0.00638680      -0.00353642      -0.01433644
O       -2.05948081       3.36148721       5.15449876       17      -0.00638680      -0.01064751       0.01023085
O       -0.41601401       2.19938070       0.07730287       18      -0.01550167      -0.00420232      -0.00093254
O       -0.83500914      -0.73646980       1.94337099       19       0.00638680      -0.01418393      -0.00410559
O        3.85573414       4.87452757       1.86606812       20      -0.00790964       0.01364553      -0.00317305
O        1.93324574       2.86791486       1.60948705       21       0.00790964       0.00957070       0.01023085
O        1.93324574       6.10003965       0.25658106       22       0.00790964       0.00407482      -0.01340390
O       -2.21226734       5.79923527       3.62231458       23      -0.00120523       0.01601589      -0.00093254
O        3.31050395       1.89404624       7.01272054       24       0.01550167       0.00420232       0.00093254
O        5.10675728      -1.70580834       3.46770884       25       0.00120523      -0.01601589       0.00093254
O        6.20499389       3.21335007       1.67894359       26       0.01550167      -0.00290877       0.00317305
O        3.57671254       2.28411228       3.80159277       27      -0.00120523      -0.00881555      -0.01340390
O        0.68222260       4.19693324       6.75613948       28      -0.00120523      -0.00720034       0.01433644
O        2.21226734      -0.10350631       0.33388393       29       0.00120523       0.00720034      -0.01433644
O       -3.31050395       0.88007687       5.41107983       30      -0.01550167       0.00290877      -0.00317305
O        4.95397075       0.73193972       1.93552465       31       0.00638680       0.01064751      -0.01023085
O        0.96124420       1.22551208       5.48053636       32      -0.00790964      -0.00957070      -0.01023085
O        3.31050395      -1.01396937       5.48838270       33       0.01550167      -0.00129356      -0.00410559
O        2.05948081       0.00453009       3.21112777       34       0.00638680       0.00353642       0.01433644
O        0.96124420      -2.00661271       6.83344235       35      -0.00790964      -0.00407482       0.01340390
O       -0.68222260       1.80931465       3.28843064       36       0.00120523       0.00881555       0.01340390
O       -0.96124420      -0.78110064       5.22395530       37       0.00790964      -0.01364553       0.00317305
O       -0.41601401       5.10739630       1.60164072       38      -0.01550167       0.00129356       0.00410559
O        3.72949907       4.82989674       5.14665243       39      -0.00638680       0.01418393       0.00410559
40
Lattice="8.683469822539116 6.805812140451827e-10 4.701016412737497e-15 -2.894489941488032 8.186853860768002 -1.1788082383709437e-09 -2.8944899405255478 -4.093426929703413 7.09002342128168" Properties=species:S:1:pos:R:3:spacegroup_kinds:I:1:forces:R:3 spacegroup="P 1" unit_cell=conventional occupancy="_JSON {\"0\": {\"In\": 1}, \"1\": {\"In\": 1}, \"2\": {\"In\": 1}, \"3\": {\"In\": 1}, \"4\": {\"In\": 1}, \"5\": {\"In\": 1}, \"6\": {\"In\": 1}, \"7\": {\"In\": 1}, \"8\": {\"In\": 1}, \"9\": {\"In\": 1}, \"10\": {\"In\": 1}, \"11\": {\"In\": 1}, \"12\": {\"In\": 1}, \"13\": {\"In\": 1}, \"14\": {\"In\": 1}, \"15\": {\"In\": 1}, \"16\": {\"O\": 1}, \"17\": {\"O\": 1}, \"18\": {\"O\": 1}, \"19\": {\"O\": 1}, \"20\": {\"O\": 1}, \"21\": {\"O\": 1}, \"22\": {\"O\": 1}, \"23\": {\"O\": 1}, \"24\": {\"O\": 1}, \"25\": {\"O\": 1}, \"26\": {\"O\": 1}, \"27\": {\"O\": 1}, \"28\": {\"O\": 1}, \"29\": {\"O\": 1}, \"30\": {\"O\": 1}, \"31\": {\"O\": 1}, \"32\": {\"O\": 1}, \"33\": {\"O\": 1}, \"34\": {\"O\": 1}, \"35\": {\"O\": 1}, \"36\": {\"O\": 1}, \"37\": {\"O\": 1}, \"38\": {\"O\": 1}, \"39\": {\"O\": 1}}" n_minim_iter=4 energy=-45150.31931188096 stress="-0.08348041921315061 2.337840827050707e-13 2.0972829399782325e-13 2.337840827050707e-13 -0.0834804192135617 3.186235456874856e-13 2.0972829399782325e-13 3.186235456874856e-13 -0.08348041921231561" free_energy=-45150.31931188096 pbc="T T T"
In      -4.14387575       2.93016264       5.55984456        0      -0.00088298       0.00062436      -0.00108143
In       7.03836569       1.16326429       1.53017886        1       0.00088298      -0.00062436       0.00108143
In       1.24938581      -0.88344918       5.07519057        2       0.00088298      -0.00062436       0.00108143
In      -1.44724497      -2.04671346       3.54501171        3      -0.00000000       0.00000000      -0.00000000
In      -1.24938581       3.95351938       3.30268471        4      -0.00088298       0.00062436       0.00108143
In       4.53959407      -2.79025508       5.31751756        5      -0.00088298      -0.00124873      -0.00000000
In      -1.24938581       1.30317185       5.31751756        6      -0.00088298      -0.00124873      -0.00000000
In      -1.64510413       6.88368202       1.77250585        7       0.00088298       0.00124873       0.00000000
In       4.14387575       0.13990756       3.78733870        8       0.00088298      -0.00062436      -0.00108143
In      -1.44724497       4.09342693      -0.00000000        9      -0.00000000       0.00000000       0.00000000
In       4.14387575       6.28004795       0.24232699       10       0.00088298      -0.00062436      -0.00108143
In      -1.24938581      -2.18662102       6.84769642       11      -0.00088298       0.00062436       0.00108143
In       4.14387575       2.79025509       1.77250585       12       0.00088298       0.00124873       0.00000000
In       1.64510413       4.97687611       2.01483285       13      -0.00088298       0.00062436      -0.00108143
In       4.34173491       0.00000000      -0.00000000       14      -0.00000000       0.00000000      -0.00000000
In       1.44724497       2.04671347       3.54501171       15       0.00000000      -0.00000000      -0.00000000
O        0.83504600       4.08879652       3.87824920       16      -0.00352058       0.00185937      -0.00213985
O       -2.05944394       3.36097753       5.15490887       17      -0.00352058      -0.00278285      -0.00054033
O       -0.41657684       2.19929506       0.07697851       18      -0.00204419      -0.00382681       0.00126786
O       -0.83504600      -0.73707980       1.94313465       19       0.00352058      -0.00092348      -0.00268019
O        3.85524132       4.87495030       1.86615614       20      -0.00145017       0.00165548      -0.00394805
O        1.93373856       2.86804999       1.60989716       21       0.00145017       0.00424685      -0.00054033
O        1.93373856       6.10032724       0.25625897       22       0.00145017      -0.00259137      -0.00340771
O       -2.21237422       5.79979445       3.62199022       23       0.00292655       0.00320289       0.00126786
O        3.31106678       1.89413187       7.01304491       24       0.00204419       0.00382681      -0.00126786
O        5.10686416      -1.70636752       3.46803320       25      -0.00292655      -0.00320289      -0.00126786
O        6.20555672       3.21302634       1.67885557       26       0.00204419      -0.00081541       0.00394805
O        3.57660566       2.28355179       3.80127069       27       0.00292655      -0.00050344      -0.00340771
O        0.68211572       4.19693456       6.75678593       28       0.00292655      -0.00269944       0.00213985
O        2.21237422      -0.10350762       0.33323749       29      -0.00292655       0.00269944      -0.00213985
O       -3.31106678       0.88040059       5.41116785       30      -0.00204419       0.00081541      -0.00394805
O        4.95393388       0.73244940       1.93511455       31       0.00352058       0.00278285       0.00054033
O        0.96075138       1.22537694       5.48012626       32      -0.00145017      -0.00424685       0.00054033
O        3.31106678      -1.01373128       5.48814636       33       0.00204419      -0.00301141      -0.00268019
O        2.05944394       0.00463041       3.21177422       34       0.00352058      -0.00185937       0.00213985
O        0.96075138      -2.00690031       6.83376444       35      -0.00145017       0.00259137       0.00340771
O       -0.68211573       1.80987515       3.28875273       36      -0.00292655       0.00050344       0.00340771
O       -0.96075138      -0.78152337       5.22386728       37       0.00145017      -0.00165548       0.00394805
O       -0.41657684       5.10715821       1.60187706       38      -0.00204419       0.00301141       0.00268019
O        3.72953594       4.83050674       5.14688877       39      -0.00352058       0.00092348       0.00268019
