40
Lattice="8.358545378819587 6.551125571815529e-10 7.857140137665891e-15 -2.78618179355751 7.880512157406708 -1.13470819083381e-09 -2.7861817926310444 -3.9402560780482276 6.824723723902788" Properties=species:S:1:pos:R:3:spacegroup_kinds:I:1:forces:R:3 spacegroup="P 1" unit_cell=conventional occupancy="_JSON {\"0\": {\"In\": 1}, \"1\": {\"In\": 1}, \"2\": {\"In\": 1}, \"3\": {\"In\": 1}, \"4\": {\"In\": 1}, \"5\": {\"In\": 1}, \"6\": {\"In\": 1}, \"7\": {\"In\": 1}, \"8\": {\"In\": 1}, \"9\": {\"In\": 1}, \"10\": {\"In\": 1}, \"11\": {\"In\": 1}, \"12\": {\"In\": 1}, \"13\": {\"In\": 1}, \"14\": {\"In\": 1}, \"15\": {\"In\": 1}, \"16\": {\"O\": 1}, \"17\": {\"O\": 1}, \"18\": {\"O\": 1}, \"19\": {\"O\": 1}, \"20\": {\"O\": 1}, \"21\": {\"O\": 1}, \"22\": {\"O\": 1}, \"23\": {\"O\": 1}, \"24\": {\"O\": 1}, \"25\": {\"O\": 1}, \"26\": {\"O\": 1}, \"27\": {\"O\": 1}, \"28\": {\"O\": 1}, \"29\": {\"O\": 1}, \"30\": {\"O\": 1}, \"31\": {\"O\": 1}, \"32\": {\"O\": 1}, \"33\": {\"O\": 1}, \"34\": {\"O\": 1}, \"35\": {\"O\": 1}, \"36\": {\"O\": 1}, \"37\": {\"O\": 1}, \"38\": {\"O\": 1}, \"39\": {\"O\": 1}}" n_minim_iter=1 energy=-45141.077868715984 stress="-0.2731157877714032 -3.5794152413638e-13 -1.0004102384341245e-14 -3.5794152413638e-13 -0.27311578777153545 -2.5300720746401145e-13 -1.0004102384341245e-14 -2.5300720746401145e-13 -0.2731157877717979" free_energy=-45141.077868715984 pbc="T T T"
In      -3.98574357       2.81834631       5.35556658        0       0.01353570      -0.00957119       0.01657778
In       6.77192536       1.12190977       1.46915713        1      -0.01353570       0.00957119      -0.01657778
In       1.19956178      -0.84821827       4.88151900        2      -0.01353570       0.00957119      -0.01657778
In      -1.39309090      -1.97012804       3.41236186        3       0.00000000       0.00000000       0.00000000
In      -1.19956178       3.80341033       3.17533806        4       0.01353570      -0.00957119      -0.01657778
In       4.37280181      -2.68150055       5.11854279        5       0.01353570       0.01914237       0.00000000
In      -1.19956178       1.25875552       5.11854279        6       0.01353570       0.01914237      -0.00000000
In      -1.58662002       6.62175664       1.70618093        7      -0.01353570      -0.01914237       0.00000000
In       3.98574357       0.13684575       3.64938565        8      -0.01353570       0.00957119       0.01657778
In      -1.39309090       3.94025608      -0.00000000        9       0.00000000      -0.00000000       0.00000000
In       3.98574357       6.04722987       0.23702379       10      -0.01353570       0.00957119       0.01657778
In      -1.19956178      -2.10697379       6.58769993       11       0.01353570      -0.00957119      -0.01657778
In       3.98574357       2.68150056       1.70618093       12      -0.01353570      -0.01914237       0.00000000
In       1.58662001       4.78847435       1.94320472       13       0.01353570      -0.00957119       0.01657778
In       4.17927269       0.00000000      -0.00000000       14       0.00000000       0.00000000       0.00000000
In       1.39309089       1.97012804       3.41236186       15       0.00000000       0.00000000      -0.00000000
O        0.79366396       3.93207682       3.74801638       16      -0.00454288      -0.01121217       0.10637953
O       -1.99251784       3.24996703       4.95779898       17      -0.00454288       0.09773346      -0.04347974
O       -0.39396759       2.11962131       0.09089147       18       0.08005876       0.03791106       0.06013568
O       -0.79366396      -0.69846831       1.88109163       19       0.00454288       0.08652129       0.06289979
O        3.72827091       4.69120061       1.79020016       20       0.09365828      -0.05180194       0.00276410
O        1.84409267       2.76536953       1.54543712       21      -0.09365828      -0.02829475      -0.04347974
O        1.84409267       5.86608716       0.24476304       22      -0.09365828      -0.02350719       0.04624384
O       -2.12972066       5.57527989       3.50325333       23      -0.00905664      -0.08811715       0.06013568
O        3.18014938       1.82063477       6.73383224       24      -0.08005876      -0.03791106      -0.06013568
O        4.91590245      -1.63502380       3.32147038       25       0.00905664       0.08811715      -0.06013568
O        5.96633117       3.10865302       1.62216170       26      -0.08005876       0.07103456      -0.00276410
O        3.44264292       2.21639449       3.65712490       27      -0.00905664       0.09613760       0.04624384
O        0.65646113       4.02909387       6.48906920       28      -0.00905664      -0.00802046      -0.10637953
O        2.12972066      -0.08883779       0.33565451       29       0.00905664       0.00802046       0.10637953
O       -3.18014938       0.83160306       5.20256202       30       0.08005876      -0.07103456       0.00276410
O        4.77869963       0.69028905       1.86692474       31       0.00454288      -0.09773346       0.04347974
O        0.94208912       1.17488655       5.27928660       32       0.09365828       0.02829475       0.04347974
O        3.18014938      -0.98903171       5.29345350       33      -0.08005876      -0.03312350       0.06289979
O        1.99251783       0.00817926       3.07670734       34       0.00454288       0.01121217      -0.10637953
O        0.94208912      -1.92583108       6.57996068       35       0.09365828       0.02350719      -0.04624384
O       -0.65646113       1.72386160       3.16759882       36       0.00905664      -0.09613760      -0.04624384
O       -0.94208912      -0.75094453       5.03452356       37      -0.09365828       0.05180194      -0.00276410
O       -0.39396759       4.92928779       1.53127022       38       0.08005876       0.03312350      -0.06289979
O        3.57984575       4.63872439       4.94363208       39      -0.00454288      -0.08652129      -0.06289979
40
Lattice="8.358545378819587 6.551125571815529e-10 7.857140137665898e-15 -2.78618179355751 7.8805121574067085 -1.13470819083381e-09 -2.7861817926310444 -3.940256078048228 6.824723723902789" Properties=species:S:1:pos:R:3:spacegroup_kinds:I:1:forces:R:3 spacegroup="P 1" unit_cell=conventional occupancy="_JSON {\"0\": {\"In\": 1}, \"1\": {\"In\": 1}, \"2\": {\"In\": 1}, \"3\": {\"In\": 1}, \"4\": {\"In\": 1}, \"5\": {\"In\": 1}, \"6\": {\"In\": 1}, \"7\": {\"In\": 1}, \"8\": {\"In\": 1}, \"9\": {\"In\": 1}, \"10\": {\"In\": 1}, \"11\": {\"In\": 1}, \"12\": {\"In\": 1}, \"13\": {\"In\": 1}, \"14\": {\"In\": 1}, \"15\": {\"In\": 1}, \"16\": {\"O\": 1}, \"17\": {\"O\": 1}, \"18\": {\"O\": 1}, \"19\": {\"O\": 1}, \"20\": {\"O\": 1}, \"21\": {\"O\": 1}, \"22\": {\"O\": 1}, \"23\": {\"O\": 1}, \"24\": {\"O\": 1}, \"25\": {\"O\": 1}, \"26\": {\"O\": 1}, \"27\": {\"O\": 1}, \"28\": {\"O\": 1}, \"29\": {\"O\": 1}, \"30\": {\"O\": 1}, \"31\": {\"O\": 1}, \"32\": {\"O\": 1}, \"33\": {\"O\": 1}, \"34\": {\"O\": 1}, \"35\": {\"O\": 1}, \"36\": {\"O\": 1}, \"37\": {\"O\": 1}, \"38\": {\"O\": 1}, \"39\": {\"O\": 1}}" n_minim_iter=2 energy=-45141.08590817057 stress="-0.27192236831875866 -4.025863537362006e-13 6.502462801539886e-13 -4.025863537362006e-13 -0.2719223683192138 -6.677774614916153e-13 6.502462801539886e-13 -6.677774614916153e-13 -0.2719223683191204" free_energy=-45141.08590817057 pbc="T T T"
In      -3.98496917       2.81779872       5.35651503        0       0.07590323      -0.05367169       0.09296210
In       6.77115096       1.12245736       1.46820869        1      -0.07590323       0.05367169      -0.09296210
In       1.19878737      -0.84767068       4.88057055        2      -0.07590323       0.05367169      -0.09296210
In      -1.39309090      -1.97012804       3.41236186        3       0.00000000       0.00000000      -0.00000000
In      -1.19878738       3.80286274       3.17438962        4       0.07590323      -0.05367169      -0.09296210
In       4.37357621      -2.68040538       5.11854279        5       0.07590323       0.10734338       0.00000000
In      -1.19878738       1.25985070       5.11854279        6       0.07590323       0.10734338       0.00000000
In      -1.58739442       6.62066146       1.70618093        7      -0.07590323      -0.10734338       0.00000000
In       3.98496917       0.13739334       3.65033410        8      -0.07590323       0.05367169       0.09296210
In      -1.39309090       3.94025608      -0.00000000        9      -0.00000000      -0.00000000       0.00000000
In       3.98496917       6.04777746       0.23797224       10      -0.07590323       0.05367169       0.09296210
In      -1.19878738      -2.10752138       6.58675148       11       0.07590323      -0.05367169      -0.09296210
In       3.98496917       2.68040538       1.70618093       12      -0.07590323      -0.10734338       0.00000000
In       1.58739442       4.78792676       1.94415317       13       0.07590323      -0.05367169       0.09296210
In       4.17927269       0.00000000      -0.00000000       14      -0.00000000       0.00000000      -0.00000000
In       1.39309089       1.97012804       3.41236186       15       0.00000000      -0.00000000      -0.00000000
O        0.79340405       3.93143535       3.75410256       16      -0.02879990      -0.03539285      -0.01943910
O       -1.99277774       3.25555856       4.95531141       17      -0.02879990       0.00086167       0.04037065
O       -0.38938726       2.12179028       0.09433196       18      -0.04215628       0.01030605       0.02401251
O       -0.79340405      -0.69351825       1.88469026       19       0.02879990      -0.03453118       0.02093155
O        3.73362929       4.68823692       1.79035830       20       0.01041235       0.04839481      -0.00308095
O        1.83873429       2.76375073       1.54294955       21      -0.01041235       0.02686559       0.04037065
O        1.83873429       5.86474227       0.24740874       22      -0.01041235       0.02152922      -0.04345161
O       -2.13023881       5.57023853       3.50669382       23      -0.02376873       0.03630997       0.02401251
O        3.17556905       1.81846581       6.73039176       24       0.04215628      -0.01030605      -0.02401251
O        4.91642060      -1.62998244       3.31802990       25       0.02376873      -0.03630997      -0.02401251
O        5.96175085       3.11271705       1.62200356       26       0.04215628       0.02594846       0.00308095
O        3.44212477       2.22189471       3.65977060       27      -0.02376873       0.00264046      -0.04345161
O        0.65594298       4.02863500       6.48298302       28      -0.02376873      -0.03895042       0.01943910
O        2.13023881      -0.08837892       0.34174070       29       0.02376873       0.03895042      -0.01943910
O       -3.17556906       0.82753903       5.20272016       30      -0.04215628      -0.02594846      -0.00308095
O        4.77895953       0.68469752       1.86941230       31       0.02879990      -0.00086167      -0.04037065
O        0.94744749       1.17650535       5.28177417       32       0.01041235      -0.02686559      -0.04037065
O        3.17556905      -0.99092677       5.29705212       33       0.04215628      -0.01564241       0.02093155
O        1.99277774       0.00882073       3.07062115       34       0.02879990       0.03539285       0.01943910
O        0.94744750      -1.92448618       6.57731498       35       0.01041235      -0.02152922       0.04345161
O       -0.65594298       1.71836137       3.16495311       36       0.02376873      -0.00264046       0.04345161
O       -0.94744750      -0.74798083       5.03436542       37      -0.01041235      -0.04839481       0.00308095
O       -0.38938726       4.93118286       1.52767160       38      -0.04215628       0.01564242      -0.02093155
O        3.57958584       4.63377433       4.94003346       39      -0.02879990       0.03453118      -0.02093155
40
Lattice="8.358545378819587 6.551125571815529e-10 7.85714013766589e-15 -2.78618179355751 7.8805121574067085 -1.13470819083381e-09 -2.7861817926310444 -3.940256078048228 6.824723723902789" Properties=species:S:1:pos:R:3:spacegroup_kinds:I:1:forces:R:3 spacegroup="P 1" unit_cell=conventional occupancy="_JSON {\"0\": {\"In\": 1}, \"1\": {\"In\": 1}, \"2\": {\"In\": 1}, \"3\": {\"In\": 1}, \"4\": {\"In\": 1}, \"5\": {\"In\": 1}, \"6\": {\"In\": 1}, \"7\": {\"In\": 1}, \"8\": {\"In\": 1}, \"9\": {\"In\": 1}, \"10\": {\"In\": 1}, \"11\": {\"In\": 1}, \"12\": {\"In\": 1}, \"13\": {\"In\": 1}, \"14\": {\"In\": 1}, \"15\": {\"In\": 1}, \"16\": {\"O\": 1}, \"17\": {\"O\": 1}, \"18\": {\"O\": 1}, \"19\": {\"O\": 1}, \"20\": {\"O\": 1}, \"21\": {\"O\": 1}, \"22\": {\"O\": 1}, \"23\": {\"O\": 1}, \"24\": {\"O\": 1}, \"25\": {\"O\": 1}, \"26\": {\"O\": 1}, \"27\": {\"O\": 1}, \"28\": {\"O\": 1}, \"29\": {\"O\": 1}, \"30\": {\"O\": 1}, \"31\": {\"O\": 1}, \"32\": {\"O\": 1}, \"33\": {\"O\": 1}, \"34\": {\"O\": 1}, \"35\": {\"O\": 1}, \"36\": {\"O\": 1}, \"37\": {\"O\": 1}, \"38\": {\"O\": 1}, \"39\": {\"O\": 1}}" n_minim_iter=3 energy=-45141.09131088435 stress="-0.27118142761274605 -2.9008322058370406e-14 -3.8978515789247316e-13 -2.9008322058370406e-14 -0.27118142761301417 1.2145669704686016e-13 -3.8978515789247316e-13 1.2145669704686016e-13 -0.27118142761269964" free_energy=-45141.09131088435 pbc="T T T"
In      -3.98136870       2.81525281       5.36092468        0       0.01007766      -0.00712598       0.01234257
In       6.76755049       1.12500327       1.46379903        1      -0.01007766       0.00712598      -0.01234257
In       1.19518691      -0.84512477       4.87616090        2      -0.01007766       0.00712598      -0.01234257
In      -1.39309090      -1.97012804       3.41236186        3       0.00000000       0.00000000      -0.00000000
In      -1.19518691       3.80031683       3.16997996        4       0.01007766      -0.00712598      -0.01234257
In       4.37717668      -2.67531355       5.11854279        5       0.01007766       0.01425197      -0.00000000
In      -1.19518691       1.26494253       5.11854279        6       0.01007766       0.01425197       0.00000000
In      -1.59099489       6.61556964       1.70618093        7      -0.01007766      -0.01425197       0.00000000
In       3.98136870       0.13993925       3.65474375        8      -0.01007766       0.00712598       0.01234257
In      -1.39309090       3.94025608      -0.00000000        9       0.00000000      -0.00000000      -0.00000000
In       3.98136870       6.05032337       0.24238189       10      -0.01007766       0.00712598       0.01234257
In      -1.19518691      -2.11006729       6.58234183       11       0.01007766      -0.00712598      -0.01234257
In       3.98136870       2.67531356       1.70618093       12      -0.01007766      -0.01425197      -0.00000000
In       1.59099488       4.78538085       1.94856282       13       0.01007766      -0.00712598       0.01234257
In       4.17927269       0.00000000      -0.00000000       14      -0.00000000      -0.00000000       0.00000000
In       1.39309089       1.97012804       3.41236186       15       0.00000000      -0.00000000      -0.00000000
O        0.79206070       3.92956831       3.75739856       16       0.00955163       0.02457399       0.00129632
O       -1.99412110       3.25934650       4.95528032       17       0.00955163      -0.01116435      -0.02192986
O       -0.38802401       2.12366436       0.09761577       18       0.01582661      -0.01560142      -0.01424461
O       -0.79206070      -0.69159735       1.88795516       19      -0.00955163       0.01340964      -0.02063354
O        3.73764838       4.68821193       1.79033939       20      -0.01370972      -0.02163377      -0.00638893
O        1.83471521       2.76375461       1.54291846       21       0.01370972      -0.00528391      -0.02192986
O        1.83471521       5.86471340       0.24742093       22       0.01370972      -0.01634986       0.01554093
O       -2.13155129       5.56832854       3.50997763       23       0.01998470      -0.00972099      -0.01424461
O        3.17420580       1.81659173       6.72710795       24      -0.01582661       0.01560142       0.01424461
O        4.91773308      -1.62807246       3.31474609       25      -0.01998470       0.00972099       0.01424461
O        5.96038759       3.11649796       1.62202246       26      -0.01582661      -0.02013691       0.00638893
O        3.44081229       2.22569357       3.65978279       27       0.01998470      -0.00747570       0.01554093
O        0.65463050       4.02674613       6.47968702       28       0.01998470       0.01719669      -0.00129632
O        2.13155129      -0.08649005       0.34503670       29      -0.01998470      -0.01719669       0.00129632
O       -3.17420580       0.82375813       5.20270125       30       0.01582661       0.02013691      -0.00638893
O        4.78030289       0.68090958       1.86944340       31      -0.00955163       0.01116435       0.02192986
O        0.95146658       1.17650148       5.28180526       32      -0.01370972       0.00528391       0.02192986
O        3.17420580      -0.99283360       5.30031702       33      -0.01582661       0.00453548      -0.02063354
O        1.99412109       0.01068777       3.06732516       34      -0.00955163      -0.02457399      -0.00129632
O        0.95146658      -1.92445732       6.57730279       35      -0.01370972       0.01634986      -0.01554093
O       -0.65463050       1.71456252       3.16494093       36      -0.01998470       0.00747570      -0.01554093
O       -0.95146659      -0.74795584       5.03438433       37       0.01370972       0.02163377       0.00638893
O       -0.38802401       4.93308968       1.52440669       38       0.01582661      -0.00453548       0.02063354
O        3.57824249       4.63185344       4.93676856       39       0.00955163      -0.01340964       0.02063354
40
Lattice="8.358545378819588 6.551125571815529e-10 7.857140137665855e-15 -2.78618179355751 7.88051215740671 -1.1347081908338102e-09 -2.7861817926310444 -3.940256078048229 6.824723723902792" Properties=species:S:1:pos:R:3:spacegroup_kinds:I:1:forces:R:3 spacegroup="P 1" unit_cell=conventional occupancy="_JSON {\"0\": {\"In\": 1}, \"1\": {\"In\": 1}, \"2\": {\"In\": 1}, \"3\": {\"In\": 1}, \"4\": {\"In\": 1}, \"5\": {\"In\": 1}, \"6\": {\"In\": 1}, \"7\": {\"In\": 1}, \"8\": {\"In\": 1}, \"9\": {\"In\": 1}, \"10\": {\"In\": 1}, \"11\": {\"In\": 1}, \"12\": {\"In\": 1}, \"13\": {\"In\": 1}, \"14\": {\"In\": 1}, \"15\": {\"In\": 1}, \"16\": {\"O\": 1}, \"17\": {\"O\": 1}, \"18\": {\"O\": 1}, \"19\": {\"O\": 1}, \"20\": {\"O\": 1}, \"21\": {\"O\": 1}, \"22\": {\"O\": 1}, \"23\": {\"O\": 1}, \"24\": {\"O\": 1}, \"25\": {\"O\": 1}, \"26\": {\"O\": 1}, \"27\": {\"O\": 1}, \"28\": {\"O\": 1}, \"29\": {\"O\": 1}, \"30\": {\"O\": 1}, \"31\": {\"O\": 1}, \"32\": {\"O\": 1}, \"33\": {\"O\": 1}, \"34\": {\"O\": 1}, \"35\": {\"O\": 1}, \"36\": {\"O\": 1}, \"37\": {\"O\": 1}, \"38\": {\"O\": 1}, \"39\": {\"O\": 1}}" n_minim_iter=4 energy=-45141.092007891064 stress="-0.2710850235243652 -7.082389066702232e-14 -2.0258586710404852e-13 -7.082389066702232e-14 -0.27108502352582176 -1.1029499571167598e-13 -2.0258586710404852e-13 -1.1029499571167598e-13 -0.2710850235252739" free_energy=-45141.092007891064 pbc="T T T"
In      -3.98019655       2.81442397       5.36236027        0       0.00196504      -0.00138950       0.00240668
In       6.76637834       1.12583211       1.46236345        1      -0.00196504       0.00138950      -0.00240668
In       1.19401476      -0.84429593       4.87472531        2      -0.00196504       0.00138950      -0.00240668
In      -1.39309090      -1.97012804       3.41236186        3      -0.00000000      -0.00000000       0.00000000
In      -1.19401476       3.79948799       3.16854438        4       0.00196504      -0.00138950      -0.00240668
In       4.37834883      -2.67365588       5.11854279        5       0.00196504       0.00277899      -0.00000000
In      -1.19401476       1.26660019       5.11854279        6       0.00196504       0.00277899      -0.00000000
In      -1.59216704       6.61391197       1.70618093        7      -0.00196504      -0.00277899       0.00000000
In       3.98019655       0.14076809       3.65617934        8      -0.00196504       0.00138950       0.00240668
In      -1.39309090       3.94025608      -0.00000000        9       0.00000000       0.00000000       0.00000000
In       3.98019655       6.05115221       0.24381748       10      -0.00196504       0.00138950       0.00240668
In      -1.19401476      -2.11089612       6.58090624       11       0.00196504      -0.00138950      -0.00240668
In       3.98019655       2.67365589       1.70618093       12      -0.00196504      -0.00277899       0.00000000
In       1.59216703       4.78455201       1.94999841       13       0.00196504      -0.00138950       0.00240668
In       4.17927269       0.00000000      -0.00000000       14      -0.00000000      -0.00000000      -0.00000000
In       1.39309089       1.97012804       3.41236186       15       0.00000000      -0.00000000      -0.00000000
O        0.79253640       3.93100293       3.75795432       16       0.01251222      -0.00600788      -0.00157663
O       -1.99364539       3.25911049       4.95376002       17       0.01251222       0.00163854       0.00599129
O       -0.38673538       2.12285352       0.09709110       18       0.00005129       0.01044975      -0.00927017
O       -0.79253640      -0.69039874       1.88699063       19      -0.01251222      -0.00436934       0.00441467
O        3.73726730       4.68671040       1.78989952       20      -0.00262590      -0.00098279       0.01368483
O        1.83509628       2.76338478       1.54139816       21       0.00262590      -0.01234281       0.00599129
O        1.83509628       5.86358170       0.24850136       22       0.00262590       0.01136002       0.00769354
O       -2.13035729       5.56738389       3.50945296       23      -0.00983503      -0.00353160      -0.00927017
O        3.17291717       1.81740256       6.72763262       24      -0.00005129      -0.01044975       0.00927017
O        4.91653908      -1.62712781       3.31527076       25       0.00983503       0.00353160       0.00927017
O        5.95909896       3.11563816       1.62246233       26      -0.00005129      -0.00280332      -0.01368483
O        3.44200630       2.22571152       3.66086322       27      -0.00983503      -0.00626240       0.00769354
O        0.65582451       4.02767283       6.47913126       28      -0.00983503       0.00979400       0.00157663
O        2.13035728      -0.08741675       0.34559246       29       0.00983503      -0.00979400      -0.00157663
O       -3.17291717       0.82461792       5.20226138       30       0.00005129       0.00280332       0.01368483
O        4.77982718       0.68114559       1.87096370       31      -0.01251222      -0.00163854      -0.00599129
O        0.95108551       1.17687130       5.28332556       32      -0.00262590       0.01234281      -0.00599129
O        3.17291717      -0.99278464       5.29935249       33      -0.00005129       0.01325308       0.00441467
O        1.99364539       0.00925315       3.06676940       34      -0.01251222       0.00600788       0.00157663
O        0.95108551      -1.92332562       6.57622236       35      -0.00262590      -0.01136002      -0.00769354
O       -0.65582451       1.71454456       3.16386050       36       0.00983503       0.00626240      -0.00769354
O       -0.95108551      -0.74645432       5.03482420       37       0.00262590       0.00098279      -0.01368483
O       -0.38673538       4.93304072       1.52537123       38       0.00005129      -0.01325308      -0.00441467
O        3.57871819       4.63065482       4.93773309       39       0.01251222       0.00436934      -0.00441467
40
Lattice="8.358545378819581 6.551125571815524e-10 7.857140137665847e-15 -2.7861817935575077 7.880512157406703 -1.1347081908338091e-09 -2.786181792631042 -3.9402560780482254 6.824723723902785" Properties=species:S:1:pos:R:3:spacegroup_kinds:I:1:forces:R:3 spacegroup="P 1" unit_cell=conventional occupancy="_JSON {\"0\": {\"In\": 1}, \"1\": {\"In\": 1}, \"2\": {\"In\": 1}, \"3\": {\"In\": 1}, \"4\": {\"In\": 1}, \"5\": {\"In\": 1}, \"6\": {\"In\": 1}, \"7\": {\"In\": 1}, \"8\": {\"In\": 1}, \"9\": {\"In\": 1}, \"10\": {\"In\": 1}, \"11\": {\"In\": 1}, \"12\": {\"In\": 1}, \"13\": {\"In\": 1}, \"14\": {\"In\": 1}, \"15\": {\"In\": 1}, \"16\": {\"O\": 1}, \"17\": {\"O\": 1}, \"18\": {\"O\": 1}, \"19\": {\"O\": 1}, \"20\": {\"O\": 1}, \"21\": {\"O\": 1}, \"22\": {\"O\": 1}, \"23\": {\"O\": 1}, \"24\": {\"O\": 1}, \"25\": {\"O\": 1}, \"26\": {\"O\": 1}, \"27\": {\"O\": 1}, \"28\": {\"O\": 1}, \"29\": {\"O\": 1}, \"30\": {\"O\": 1}, \"31\": {\"O\": 1}, \"32\": {\"O\": 1}, \"33\": {\"O\": 1}, \"34\": {\"O\": 1}, \"35\": {\"O\": 1}, \"36\": {\"O\": 1}, \"37\": {\"O\": 1}, \"38\": {\"O\": 1}, \"39\": {\"O\": 1}}" n_minim_iter=5 energy=-45141.09221751449 stress="-0.27112572185768435 6.211171291902483e-13 -2.1595724942764395e-13 6.211171291902483e-13 -0.2711257218576056 2.7632564265300947e-13 -2.1595724942764395e-13 2.7632564265300947e-13 -0.2711257218581904" free_energy=-45141.09221751449 pbc="T T T"
In      -3.97986084       2.81418659       5.36277143        0      -0.00172374       0.00121887      -0.00211115
In       6.76604263       1.12606949       1.46195229        1       0.00172374      -0.00121887       0.00211115
In       1.19367905      -0.84405855       4.87431415        2       0.00172374      -0.00121887       0.00211115
In      -1.39309090      -1.97012804       3.41236186        3      -0.00000000      -0.00000000      -0.00000000
In      -1.19367905       3.79925061       3.16813322        4      -0.00172374       0.00121887       0.00211115
In       4.37868454      -2.67318111       5.11854279        5      -0.00172374      -0.00243774      -0.00000000
In      -1.19367905       1.26707496       5.11854279        6      -0.00172374      -0.00243774       0.00000000
In      -1.59250275       6.61343720       1.70618093        7       0.00172374       0.00243774       0.00000000
In       3.97986084       0.14100547       3.65659050        8       0.00172374      -0.00121887      -0.00211115
In      -1.39309090       3.94025608      -0.00000000        9       0.00000000       0.00000000      -0.00000000
In       3.97986084       6.05138959       0.24422864       10       0.00172374      -0.00121887      -0.00211115
In      -1.19367905      -2.11113351       6.58049508       11      -0.00172374       0.00121887       0.00211115
In       3.97986084       2.67318112       1.70618093       12       0.00172374       0.00243774      -0.00000000
In       1.59250274       4.78431463       1.95040957       13      -0.00172374       0.00121887      -0.00211115
In       4.17927269       0.00000000      -0.00000000       14      -0.00000000      -0.00000000      -0.00000000
In       1.39309089       1.97012804       3.41236186       15       0.00000000       0.00000000       0.00000000
O        0.79357634       3.93097431       3.75775516       16       0.00451077      -0.00092333       0.00435911
O       -1.99260545       3.25895232       4.95388439       17       0.00451077       0.00423676      -0.00137992
O       -0.38656483       2.12331011       0.09615067       18       0.00462752       0.00415421      -0.00123693
O       -0.79357634      -0.69058553       1.88691583       19      -0.00451077       0.00331343       0.00297918
O        3.73677153       4.68635423       1.79076515       20       0.00249087      -0.00402758       0.00421612
O        1.83559205       2.76245704       1.54152252       21      -0.00249087      -0.00566505      -0.00137992
O        1.83559205       5.86415327       0.24924263       22      -0.00249087       0.00163748       0.00559604
O       -2.13073091       5.56707090       3.50851253       23      -0.00237412      -0.00574761      -0.00123693
O        3.17274662       1.81694597       6.72857305       24      -0.00462752      -0.00415421       0.00123693
O        4.91691270      -1.62681482       3.31621119       25       0.00237412       0.00574761       0.00123693
O        5.95892842       3.11505202       1.62159670       26      -0.00462752       0.00100589      -0.00421612
O        3.44163267       2.22505358       3.66160449       27      -0.00237412       0.00180259       0.00559604
O        0.65545088       4.02864376       6.47933042       28      -0.00237412       0.00394502      -0.00435911
O        2.13073091      -0.08838768       0.34539330       29       0.00237412      -0.00394502       0.00435911
O       -3.17274663       0.82520406       5.20312702       30       0.00462752      -0.00100589       0.00421612
O        4.77878724       0.68130376       1.87083933       31      -0.00451077      -0.00423676       0.00137992
O        0.95058973       1.17779905       5.28320119       32       0.00249087       0.00566505       0.00137992
O        3.17274662      -0.99174191       5.29927769       33      -0.00462752       0.00314832       0.00297918
O        1.99260545       0.00928177       3.06696856       34      -0.00451077       0.00092333      -0.00435911
O        0.95058974      -1.92389719       6.57548109       35       0.00249087      -0.00163748      -0.00559604
O       -0.65545088       1.71520251       3.16311923       36       0.00237412      -0.00180259      -0.00559604
O       -0.95058974      -0.74609814       5.03395856       37      -0.00249087       0.00402758      -0.00421612
O       -0.38656483       4.93199799       1.52544603       38       0.00462752      -0.00314832      -0.00297918
O        3.57975813       4.63084161       4.93780789       39       0.00451077      -0.00331343      -0.00297918
