40
Lattice="8.273248147763027 6.48426208887932e-10 9.119775953171977e-15 -2.7577493831990183 7.800093156746898 -1.1231284950551556e-09 -2.7577493822820114 -3.9000465777250084 6.755078826376715" Properties=species:S:1:pos:R:3:spacegroup_kinds:I:1:forces:R:3 spacegroup="P 1" unit_cell=conventional occupancy="_JSON {\"0\": {\"In\": 1}, \"1\": {\"In\": 1}, \"2\": {\"In\": 1}, \"3\": {\"In\": 1}, \"4\": {\"In\": 1}, \"5\": {\"In\": 1}, \"6\": {\"In\": 1}, \"7\": {\"In\": 1}, \"8\": {\"In\": 1}, \"9\": {\"In\": 1}, \"10\": {\"In\": 1}, \"11\": {\"In\": 1}, \"12\": {\"In\": 1}, \"13\": {\"In\": 1}, \"14\": {\"In\": 1}, \"15\": {\"In\": 1}, \"16\": {\"O\": 1}, \"17\": {\"O\": 1}, \"18\": {\"O\": 1}, \"19\": {\"O\": 1}, \"20\": {\"O\": 1}, \"21\": {\"O\": 1}, \"22\": {\"O\": 1}, \"23\": {\"O\": 1}, \"24\": {\"O\": 1}, \"25\": {\"O\": 1}, \"26\": {\"O\": 1}, \"27\": {\"O\": 1}, \"28\": {\"O\": 1}, \"29\": {\"O\": 1}, \"30\": {\"O\": 1}, \"31\": {\"O\": 1}, \"32\": {\"O\": 1}, \"33\": {\"O\": 1}, \"34\": {\"O\": 1}, \"35\": {\"O\": 1}, \"36\": {\"O\": 1}, \"37\": {\"O\": 1}, \"38\": {\"O\": 1}, \"39\": {\"O\": 1}}" n_minim_iter=1 energy=-45136.94667690508 stress="-0.3390211241259485 1.281617442954402e-13 -1.5834908974520714e-13 1.281617442954402e-13 -0.3390211241266011 1.7296522743433273e-13 -1.5834908974520714e-13 1.7296522743433273e-13 -0.339021124125983" free_energy=-45136.94667690508 pbc="T T T"
In      -3.93924718       2.78546840       5.30804545        0      -0.01162033       0.00821681      -0.01423194
In       6.69699656       1.11457819       1.44703337        1       0.01162033      -0.00821681       0.01423194
In       1.18149780      -0.83544510       4.82457278        2       0.01162033      -0.00821681       0.01423194
In      -1.37887469      -1.95002329       3.37753941        3      -0.00000000      -0.00000000      -0.00000000
In      -1.18149780       3.76048004       3.13580307        4      -0.01162033       0.00821681       0.01423194
In       4.33400097      -2.64590185       5.06630912        5      -0.01162033      -0.01643363       0.00000000
In      -1.18149780       1.25414473       5.06630912        6      -0.01162033      -0.01643363       0.00000000
In      -1.57625159       6.54594844       1.68876970        7       0.01162033       0.01643363      -0.00000000
In       3.93924718       0.13956654       3.61927575        8       0.01162033      -0.00821681      -0.01423194
In      -1.37887469       3.90004658      -0.00000000        9      -0.00000000      -0.00000000       0.00000000
In       3.93924718       5.98963641       0.24173633       10       0.01162033      -0.00821681      -0.01423194
In      -1.18149780      -2.08958983       6.51334249       11      -0.01162033       0.00821681       0.01423194
In       3.93924718       2.64590186       1.68876970       12       0.01162033       0.01643363      -0.00000000
In       1.57625158       4.73549169       1.93050604       13      -0.01162033       0.00821681      -0.01423194
In       4.13662407       0.00000000      -0.00000000       14      -0.00000000      -0.00000000      -0.00000000
In       1.37887469       1.95002329       3.37753941       15       0.00000000       0.00000000      -0.00000000
O        0.78547806       3.89085953       3.71940805       16      -0.00557441       0.00435925       0.12887974
O       -1.97227132       3.22569539       4.90333102       17      -0.00557441       0.10943351      -0.06821509
O       -0.38262002       2.10164217       0.09516947       18       0.10542670       0.03094387       0.06773295
O       -0.78547806      -0.68353824       1.86766024       19       0.00557441       0.11379276       0.06066465
O        3.69863855       4.63853095       1.77249077       20       0.10503304      -0.07468712      -0.00706830
O        1.81686022       2.73426673       1.52579161       21      -0.10503304      -0.03122223      -0.06821509
O        1.81686022       5.80431080       0.24669916       22      -0.10503304      -0.04346489       0.06114679
O       -2.10898725       5.51026009       3.47270889       23       0.00596807      -0.10971187       0.06773295
O        3.14036940       1.79840441       6.65990935       24      -0.10542670      -0.03094387      -0.06773295
O        4.86673662      -1.61021351       3.28236993       25      -0.00596807       0.10971187      -0.06773295
O        5.89811878       3.08326356       1.60504864       26      -0.10542670       0.07413039       0.00706830
O        3.40651152       2.20234736       3.62423857       27       0.00596807       0.11351439       0.06114679
O        0.64876214       3.98753228       6.41321019       28       0.00596807      -0.00380252      -0.12887974
O        2.10898724      -0.08748570       0.34186863       29      -0.00596807       0.00380252       0.12887974
O       -3.14036940       0.81678302       5.15003018       30       0.10542670      -0.07413039      -0.00706830
O        4.73002070       0.67435120       1.85174780       31       0.00557441      -0.10943351       0.06821509
O        0.94088916       1.16577985       5.22928722       32       0.10503304       0.03122223       0.06821509
O        3.14036940      -0.98162139       5.24519966       33      -0.10542670      -0.04318652       0.06066465
O        1.97227132       0.00918705       3.03567077       34       0.00557441      -0.00435925      -0.12887974
O        0.94088916      -1.90426422       6.50837966       35       0.10503304       0.04346488      -0.06114679
O       -0.64876214       1.69769922       3.13084025       36      -0.00596807      -0.11351439      -0.06114679
O       -0.94088917      -0.73848437       4.98258806       37      -0.10503304       0.07468712       0.00706830
O       -0.38262002       4.88166797       1.50987917       38       0.10542670       0.04318652      -0.06066465
O        3.54322744       4.58358483       4.88741858       39      -0.00557441      -0.11379276      -0.06066465
40
Lattice="8.273248147763018 6.484262088879314e-10 9.119775953171984e-15 -2.7577493831990156 7.8000931567468905 -1.1231284950551544e-09 -2.7577493822820087 -3.900046577725005 6.7550788263767085" Properties=species:S:1:pos:R:3:spacegroup_kinds:I:1:forces:R:3 spacegroup="P 1" unit_cell=conventional occupancy="_JSON {\"0\": {\"In\": 1}, \"1\": {\"In\": 1}, \"2\": {\"In\": 1}, \"3\": {\"In\": 1}, \"4\": {\"In\": 1}, \"5\": {\"In\": 1}, \"6\": {\"In\": 1}, \"7\": {\"In\": 1}, \"8\": {\"In\": 1}, \"9\": {\"In\": 1}, \"10\": {\"In\": 1}, \"11\": {\"In\": 1}, \"12\": {\"In\": 1}, \"13\": {\"In\": 1}, \"14\": {\"In\": 1}, \"15\": {\"In\": 1}, \"16\": {\"O\": 1}, \"17\": {\"O\": 1}, \"18\": {\"O\": 1}, \"19\": {\"O\": 1}, \"20\": {\"O\": 1}, \"21\": {\"O\": 1}, \"22\": {\"O\": 1}, \"23\": {\"O\": 1}, \"24\": {\"O\": 1}, \"25\": {\"O\": 1}, \"26\": {\"O\": 1}, \"27\": {\"O\": 1}, \"28\": {\"O\": 1}, \"29\": {\"O\": 1}, \"30\": {\"O\": 1}, \"31\": {\"O\": 1}, \"32\": {\"O\": 1}, \"33\": {\"O\": 1}, \"34\": {\"O\": 1}, \"35\": {\"O\": 1}, \"36\": {\"O\": 1}, \"37\": {\"O\": 1}, \"38\": {\"O\": 1}, \"39\": {\"O\": 1}}" n_minim_iter=2 energy=-45136.95301847041 stress="-0.3380282770572352 1.4339498459344168e-13 3.1347411761433043e-13 1.4339498459344168e-13 -0.3380282770575327 9.418773702612765e-14 3.1347411761433043e-13 9.418773702612765e-14 -0.33802827705751726" free_energy=-45136.95301847041 pbc="T T T"
In      -3.93961137       2.78572592       5.30759941        0       0.06628023      -0.04686720       0.08117637
In       6.69736075       1.11432066       1.44747941        1      -0.06628023       0.04686720      -0.08117637
In       1.18186199      -0.83570263       4.82501882        2      -0.06628023       0.04686720      -0.08117637
In      -1.37887469      -1.95002329       3.37753941        3      -0.00000000      -0.00000000       0.00000000
In      -1.18186199       3.76073756       3.13624912        4       0.06628023      -0.04686720      -0.08117637
In       4.33363677      -2.64641690       5.06630912        5       0.06628023       0.09373440      -0.00000000
In      -1.18186199       1.25362968       5.06630912        6       0.06628023       0.09373440       0.00000000
In      -1.57588739       6.54646348       1.68876970        7      -0.06628023      -0.09373440      -0.00000000
In       3.93961137       0.13930902       3.61882971        8      -0.06628023       0.04686720       0.08117637
In      -1.37887469       3.90004658      -0.00000000        9       0.00000000      -0.00000000      -0.00000000
In       3.93961137       5.98937889       0.24129029       10      -0.06628023       0.04686720       0.08117637
In      -1.18186199      -2.08933230       6.51378853       11       0.06628023      -0.04686720      -0.08117637
In       3.93961137       2.64641690       1.68876970       12      -0.06628023      -0.09373440       0.00000000
In       1.57588739       4.73574921       1.93006000       13       0.06628023      -0.04686720       0.08117637
In       4.13662407       0.00000000      -0.00000000       14      -0.00000000      -0.00000000      -0.00000000
In       1.37887469       1.95002329       3.37753941       15       0.00000000      -0.00000000       0.00000000
O        0.78530335       3.89099615       3.72344726       16      -0.03480019      -0.04219254       0.00886951
O       -1.97244603       3.22912514       4.90119309       17      -0.03480019       0.02877749       0.03210505
O       -0.37931585       2.10261198       0.09729229       18      -0.02424789       0.02131589       0.04502893
O       -0.78530335      -0.67997187       1.86956153       19       0.03480019      -0.01341505       0.04097457
O        3.70193038       4.63619018       1.77226924       20       0.03873174       0.03941251      -0.00405436
O        1.81356838       2.73328820       1.52365368       21      -0.03873174       0.02321744       0.03210505
O        1.81356838       5.80294857       0.24861556       22      -0.03873174       0.01619507      -0.03615942
O       -2.10880020       5.50682162       3.47483170       23      -0.02817944       0.01575583       0.04502893
O        3.13706523       1.79743460       6.65778653       24       0.02424789      -0.02131589      -0.04502893
O        4.86654958      -1.60677504       3.28024712       25       0.02817944      -0.01575583      -0.04502893
O        5.89481461       3.08558688       1.60527017       26       0.02424789       0.04965414       0.00405436
O        3.40669857       2.20590501       3.62615497       27      -0.02817944       0.03111828      -0.03615942
O        0.64894918       3.98741311       6.40917097       28      -0.02817944      -0.04687411      -0.00886951
O        2.10880020      -0.08736653       0.34590785       29       0.02817944       0.04687411       0.00886951
O       -3.13706523       0.81445971       5.14980865       30      -0.02424789      -0.04965414      -0.00405436
O        4.73019541       0.67092145       1.85388573       31       0.03480019      -0.02877749      -0.03210505
O        0.94418100       1.16675839       5.23142514       32       0.03873174      -0.02321744      -0.03210506
O        3.13706523      -0.98297489       5.24710094       33       0.02424789      -0.02833825       0.04097457
O        1.97244603       0.00905043       3.03163156       34       0.03480019       0.04219254      -0.00886951
O        0.94418100      -1.90290198       6.50646326       35       0.03873174      -0.01619507       0.03615942
O       -0.64894919       1.69414157       3.12892385       36       0.02817944      -0.03111828       0.03615942
O       -0.94418100      -0.73614360       4.98280958       37      -0.03873174      -0.03941251       0.00405436
O       -0.37931585       4.88302148       1.50797788       38      -0.02424789       0.02833825      -0.04097457
O        3.54305273       4.58001845       4.88551729       39      -0.03480019       0.01341505      -0.04097457
40
Lattice="8.27324814776302 6.484262088879316e-10 9.119775953171998e-15 -2.7577493831990165 7.800093156746893 -1.1231284950551548e-09 -2.7577493822820096 -3.900046577725006 6.755078826376709" Properties=species:S:1:pos:R:3:spacegroup_kinds:I:1:forces:R:3 spacegroup="P 1" unit_cell=conventional occupancy="_JSON {\"0\": {\"In\": 1}, \"1\": {\"In\": 1}, \"2\": {\"In\": 1}, \"3\": {\"In\": 1}, \"4\": {\"In\": 1}, \"5\": {\"In\": 1}, \"6\": {\"In\": 1}, \"7\": {\"In\": 1}, \"8\": {\"In\": 1}, \"9\": {\"In\": 1}, \"10\": {\"In\": 1}, \"11\": {\"In\": 1}, \"12\": {\"In\": 1}, \"13\": {\"In\": 1}, \"14\": {\"In\": 1}, \"15\": {\"In\": 1}, \"16\": {\"O\": 1}, \"17\": {\"O\": 1}, \"18\": {\"O\": 1}, \"19\": {\"O\": 1}, \"20\": {\"O\": 1}, \"21\": {\"O\": 1}, \"22\": {\"O\": 1}, \"23\": {\"O\": 1}, \"24\": {\"O\": 1}, \"25\": {\"O\": 1}, \"26\": {\"O\": 1}, \"27\": {\"O\": 1}, \"28\": {\"O\": 1}, \"29\": {\"O\": 1}, \"30\": {\"O\": 1}, \"31\": {\"O\": 1}, \"32\": {\"O\": 1}, \"33\": {\"O\": 1}, \"34\": {\"O\": 1}, \"35\": {\"O\": 1}, \"36\": {\"O\": 1}, \"37\": {\"O\": 1}, \"38\": {\"O\": 1}, \"39\": {\"O\": 1}}" n_minim_iter=3 energy=-45136.95953504395 stress="-0.3370415274998049 4.95286604820481e-13 -2.232669853036043e-13 4.95286604820481e-13 -0.3370415274994467 -4.1686108956929805e-13 -2.232669853036043e-13 -4.1686108956929805e-13 -0.33704152749977745" free_energy=-45136.95953504395 pbc="T T T"
In      -3.93625841       2.78335502       5.31170593        0       0.01143990      -0.00808923       0.01401096
In       6.69400779       1.11669156       1.44337289        1      -0.01143990       0.00808923      -0.01401096
In       1.17850903      -0.83333172       4.82091230        2      -0.01143990       0.00808923      -0.01401096
In      -1.37887469      -1.95002329       3.37753941        3       0.00000000      -0.00000000      -0.00000000
In      -1.17850903       3.75836666       3.13214259        4       0.01143990      -0.00808923      -0.01401096
In       4.33698973      -2.64167510       5.06630912        5       0.01143990       0.01617847      -0.00000000
In      -1.17850903       1.25837148       5.06630912        6       0.01143990       0.01617847       0.00000000
In      -1.57924036       6.54172168       1.68876970        7      -0.01143990      -0.01617847       0.00000000
In       3.93625841       0.14167992       3.62293623        8      -0.01143990       0.00808923       0.01401096
In      -1.37887469       3.90004658      -0.00000000        9       0.00000000       0.00000000      -0.00000000
In       3.93625841       5.99174979       0.24539681       10      -0.01143990       0.00808923       0.01401096
In      -1.17850903      -2.09170321       6.50968201       11       0.01143990      -0.00808923      -0.01401096
In       3.93625841       2.64167510       1.68876970       12      -0.01143990      -0.01617847      -0.00000000
In       1.57924035       4.73337831       1.93416652       13       0.01143990      -0.00808923       0.01401096
In       4.13662407       0.00000000      -0.00000000       14       0.00000000      -0.00000000      -0.00000000
In       1.37887469       1.95002329       3.37753941       15      -0.00000000      -0.00000000       0.00000000
O        0.78316694       3.88876391       3.72809592       16       0.00880969       0.02232040       0.00238939
O       -1.97458244       3.23426711       4.90080194       17       0.00880969      -0.00909092      -0.02052473
O       -0.37728466       2.10480702       0.10200538       18       0.01540943      -0.01375765      -0.01244173
O       -0.78316694      -0.67706214       1.87381904       19      -0.00880969       0.01322948      -0.01813534
O        3.70749042       4.63600156       1.77181365       20      -0.01150757      -0.02041271      -0.00569360
O        1.80800834       2.73358843       1.52326253       21       0.01150757      -0.00527555      -0.02052473
O        1.80800834       5.80245970       0.24855112       22       0.01150757      -0.01513716       0.01483113
O       -2.11019264       5.50417492       3.47954480       23       0.01810731      -0.00994227      -0.01244173
O        3.13503404       1.79523956       6.65307344       24      -0.01540943       0.01375765       0.01244173
O        4.86794202      -1.60412834       3.27553402       25      -0.01810731       0.00994227       0.01244173
O        5.89278342       3.09076606       1.60572576       26      -0.01540943      -0.01765368       0.00569360
O        3.40530612       2.21131002       3.62609053       27       0.01810731      -0.00580372       0.01483113
O        0.64755674       3.98465480       6.40452232       28       0.01810731       0.01574599      -0.00238939
O        2.11019264      -0.08460822       0.35055650       29      -0.01810731      -0.01574599       0.00238939
O       -3.13503404       0.80928053       5.14935306       30       0.01540943       0.01765368      -0.00569360
O        4.73233182       0.66577947       1.85427688       31      -0.00880969       0.00909092       0.02052473
O        0.94974104       1.16645815       5.23181629       32      -0.01150757       0.00527555       0.02052473
O        3.13503404      -0.98595903       5.25135845       33      -0.01540943       0.00389603      -0.01813534
O        1.97458244       0.01128267       3.02698290       34      -0.00880969      -0.02232040      -0.00238939
O        0.94974104      -1.90241312       6.50652770       35      -0.01150757       0.01513716      -0.01483113
O       -0.64755674       1.68873656       3.12898829       36      -0.01810731       0.00580372      -0.01483113
O       -0.94974104      -0.73595498       4.98326517       37       0.01150757       0.02041271       0.00569360
O       -0.37728466       4.88600562       1.50372037       38       0.01540943      -0.00389603       0.01813534
O        3.54091632       4.57710872       4.88125978       39       0.00880969      -0.01322948       0.01813534
40
Lattice="8.27324814776302 6.484262088879319e-10 9.119775953172001e-15 -2.757749383199018 7.800093156746896 -1.1231284950551554e-09 -2.757749382282011 -3.9000465777250075 6.75507882637671" Properties=species:S:1:pos:R:3:spacegroup_kinds:I:1:forces:R:3 spacegroup="P 1" unit_cell=conventional occupancy="_JSON {\"0\": {\"In\": 1}, \"1\": {\"In\": 1}, \"2\": {\"In\": 1}, \"3\": {\"In\": 1}, \"4\": {\"In\": 1}, \"5\": {\"In\": 1}, \"6\": {\"In\": 1}, \"7\": {\"In\": 1}, \"8\": {\"In\": 1}, \"9\": {\"In\": 1}, \"10\": {\"In\": 1}, \"11\": {\"In\": 1}, \"12\": {\"In\": 1}, \"13\": {\"In\": 1}, \"14\": {\"In\": 1}, \"15\": {\"In\": 1}, \"16\": {\"O\": 1}, \"17\": {\"O\": 1}, \"18\": {\"O\": 1}, \"19\": {\"O\": 1}, \"20\": {\"O\": 1}, \"21\": {\"O\": 1}, \"22\": {\"O\": 1}, \"23\": {\"O\": 1}, \"24\": {\"O\": 1}, \"25\": {\"O\": 1}, \"26\": {\"O\": 1}, \"27\": {\"O\": 1}, \"28\": {\"O\": 1}, \"29\": {\"O\": 1}, \"30\": {\"O\": 1}, \"31\": {\"O\": 1}, \"32\": {\"O\": 1}, \"33\": {\"O\": 1}, \"34\": {\"O\": 1}, \"35\": {\"O\": 1}, \"36\": {\"O\": 1}, \"37\": {\"O\": 1}, \"38\": {\"O\": 1}, \"39\": {\"O\": 1}}" n_minim_iter=4 energy=-45136.96016235445 stress="-0.3368800610933065 -3.454327996900685e-13 1.7160100534418e-13 -3.454327996900685e-13 -0.3368800610923053 3.1695846792057223e-13 1.7160100534418e-13 3.1695846792057223e-13 -0.33688006109366064" free_energy=-45136.96016235445 pbc="T T T"
In      -3.93513184       2.78255841       5.31308570        0       0.00476458      -0.00336907       0.00583540
In       6.69288122       1.11748817       1.44199312        1      -0.00476458       0.00336907      -0.00583540
In       1.17738246      -0.83253512       4.81953254        2      -0.00476458       0.00336907      -0.00583540
In      -1.37887469      -1.95002329       3.37753941        3      -0.00000000       0.00000000      -0.00000000
In      -1.17738246       3.75757006       3.13076283        4       0.00476458      -0.00336907      -0.00583540
In       4.33811631      -2.64008188       5.06630912        5       0.00476458       0.00673813      -0.00000000
In      -1.17738246       1.25996470       5.06630912        6       0.00476458       0.00673813      -0.00000000
In      -1.58036693       6.54012847       1.68876970        7      -0.00476458      -0.00673813       0.00000000
In       3.93513184       0.14247653       3.62431599        8      -0.00476458       0.00336907       0.00583540
In      -1.37887469       3.90004658      -0.00000000        9       0.00000000       0.00000000      -0.00000000
In       3.93513184       5.99254639       0.24677658       10      -0.00476458       0.00336907       0.00583540
In      -1.17738246      -2.09249981       6.50830224       11       0.00476458      -0.00336907      -0.00583540
In       3.93513184       2.64008189       1.68876970       12      -0.00476458      -0.00673813      -0.00000000
In       1.58036692       4.73258170       1.93554628       13       0.00476458      -0.00336907       0.00583540
In       4.13662407       0.00000000      -0.00000000       14      -0.00000000      -0.00000000      -0.00000000
In       1.37887469       1.95002329       3.37753941       15       0.00000000      -0.00000000       0.00000000
O        0.78352790       3.89002799       3.72880727       16       0.01179264      -0.00788719      -0.00340414
O       -1.97422149       3.23425112       4.89935154       17       0.01179264       0.00099552       0.00853257
O       -0.37598763       2.10412912       0.10170143       18      -0.00256664       0.01114907      -0.00905388
O       -0.78352790      -0.67581405       1.87307999       19      -0.01179264      -0.00689166       0.00512844
O        3.70735502       4.63457798       1.77137855       20      -0.00299229       0.00166440       0.01418232
O        1.80814374       2.73325345       1.52181213       21       0.00299229      -0.01145005       0.00853257
O        1.80814374       5.80137111       0.24956642       22       0.00299229       0.01311445       0.00564975
O       -2.10912117       5.50317803       3.47924084       23      -0.01136699      -0.00129650      -0.00905388
O        3.13373701       1.79591746       6.65337739       24       0.00256664      -0.01114907       0.00905388
O        4.86687055      -1.60313145       3.27583798       25       0.01136699       0.00129650       0.00905388
O        5.89148639       3.09016388       1.60616085       26       0.00256664      -0.00226636      -0.01418232
O        3.40637759       2.21154524       3.62710584       27      -0.01136699      -0.00719264       0.00564975
O        0.64862821       3.98541647       6.40381096       28      -0.01136699       0.00848914       0.00340414
O        2.10912117      -0.08536989       0.35126786       29       0.01136699      -0.00848914      -0.00340414
O       -3.13373701       0.80988270       5.14891797       30      -0.00256664       0.00226636       0.01418232
O        4.73197087       0.66579546       1.85572728       31      -0.01179264      -0.00099552      -0.00853257
O        0.94960564       1.16679313       5.23326669       32      -0.00299229       0.01145005      -0.00853257
O        3.13373701      -0.98603475       5.25061940       33       0.00256664       0.01341543       0.00512844
O        1.97422148       0.01001859       3.02627155       34      -0.01179264       0.00788719       0.00340414
O        0.94960564      -1.90132453       6.50551240       35      -0.00299229      -0.01311445      -0.00564975
O       -0.64862821       1.68850135       3.12797298       36       0.01136699       0.00719264      -0.00564975
O       -0.94960565      -0.73453140       4.98370027       37       0.00299229      -0.00166440      -0.01418232
O       -0.37598763       4.88608133       1.50445942       38      -0.00256664      -0.01341543      -0.00512844
O        3.54127728       4.57586063       4.88199883       39       0.01179264       0.00689166      -0.00512844
40
Lattice="8.273248147763018 6.484262088879318e-10 9.119775953171995e-15 -2.7577493831990174 7.800093156746894 -1.1231284950551552e-09 -2.7577493822820105 -3.9000465777250066 6.755078826376709" Properties=species:S:1:pos:R:3:spacegroup_kinds:I:1:forces:R:3 spacegroup="P 1" unit_cell=conventional occupancy="_JSON {\"0\": {\"In\": 1}, \"1\": {\"In\": 1}, \"2\": {\"In\": 1}, \"3\": {\"In\": 1}, \"4\": {\"In\": 1}, \"5\": {\"In\": 1}, \"6\": {\"In\": 1}, \"7\": {\"In\": 1}, \"8\": {\"In\": 1}, \"9\": {\"In\": 1}, \"10\": {\"In\": 1}, \"11\": {\"In\": 1}, \"12\": {\"In\": 1}, \"13\": {\"In\": 1}, \"14\": {\"In\": 1}, \"15\": {\"In\": 1}, \"16\": {\"O\": 1}, \"17\": {\"O\": 1}, \"18\": {\"O\": 1}, \"19\": {\"O\": 1}, \"20\": {\"O\": 1}, \"21\": {\"O\": 1}, \"22\": {\"O\": 1}, \"23\": {\"O\": 1}, \"24\": {\"O\": 1}, \"25\": {\"O\": 1}, \"26\": {\"O\": 1}, \"27\": {\"O\": 1}, \"28\": {\"O\": 1}, \"29\": {\"O\": 1}, \"30\": {\"O\": 1}, \"31\": {\"O\": 1}, \"32\": {\"O\": 1}, \"33\": {\"O\": 1}, \"34\": {\"O\": 1}, \"35\": {\"O\": 1}, \"36\": {\"O\": 1}, \"37\": {\"O\": 1}, \"38\": {\"O\": 1}, \"39\": {\"O\": 1}}" n_minim_iter=5 energy=-45136.96031295456 stress="-0.3369751036154611 4.535426568200202e-13 1.6747000892818358e-13 4.535426568200202e-13 -0.33697510361439187 -8.009574179224984e-14 1.6747000892818358e-13 -8.009574179224984e-14 -0.3369751036134102" free_energy=-45136.96031295456 pbc="T T T"
In      -3.93472166       2.78226837       5.31358807        0      -0.00546300       0.00386292      -0.00669078
In       6.69247104       1.11777822       1.44149075        1       0.00546300      -0.00386292       0.00669078
In       1.17697227      -0.83224507       4.81903017        2       0.00546300      -0.00386292       0.00669078
In      -1.37887469      -1.95002329       3.37753941        3       0.00000000       0.00000000      -0.00000000
In      -1.17697227       3.75728001       3.13026046        4      -0.00546300       0.00386292       0.00669078
In       4.33852649      -2.63950179       5.06630912        5      -0.00546300      -0.00772584       0.00000000
In      -1.17697227       1.26054479       5.06630912        6      -0.00546300      -0.00772584      -0.00000000
In      -1.58077711       6.53954837       1.68876970        7       0.00546300       0.00772584       0.00000000
In       3.93472165       0.14276657       3.62481836        8       0.00546300      -0.00386292      -0.00669078
In      -1.37887469       3.90004658      -0.00000000        9       0.00000000      -0.00000000       0.00000000
In       3.93472165       5.99283644       0.24727895       10       0.00546300      -0.00386292      -0.00669078
In      -1.17697227      -2.09278986       6.50779987       11      -0.00546300       0.00386292       0.00669078
In       3.93472165       2.63950180       1.68876970       12       0.00546300       0.00772584      -0.00000000
In       1.58077711       4.73229166       1.93604866       13      -0.00546300       0.00386292      -0.00669078
In       4.13662407       0.00000000      -0.00000000       14      -0.00000000      -0.00000000      -0.00000000
In       1.37887469       1.95002329       3.37753941       15       0.00000000       0.00000000      -0.00000000
O        0.78425094       3.89000616       3.72853567       16       0.00814611      -0.00021713       0.00936233
O       -1.97349844       3.23402683       4.89950625       17       0.00814611       0.00821658      -0.00449313
O       -0.37597867       2.10440976       0.10098157       18       0.01025733       0.00672373      -0.00190742
O       -0.78425094      -0.67606017       1.87296310       19      -0.00814611       0.00799946       0.00486921
O        3.70690254       4.63440850       1.77198152       20       0.00503130      -0.00910071       0.00677663
O        1.80859622       2.73264652       1.52196683       21      -0.00503130      -0.01041909      -0.00449313
O        1.80859622       5.80180855       0.25001468       22      -0.00503130       0.00131838       0.01126976
O       -2.10938277       5.50307604       3.47852099       23      -0.00292008      -0.01191194      -0.00190742
O        3.13372805       1.79563682       6.65409725       24      -0.01025733      -0.00672373       0.00190742
O        4.86713215      -1.60302945       3.27655783       25       0.00292008       0.01191194       0.00190742
O        5.89147743       3.08968078       1.60555789       26      -0.01025733       0.00170999      -0.00677663
O        3.40611599       2.21097282       3.62755410       27      -0.00292008       0.00430410       0.01126976
O        0.64836661       3.98609089       6.40408256       28      -0.00292008       0.00760785      -0.00936233
O        2.10938277      -0.08604430       0.35099626       29       0.00292008      -0.00760785       0.00936233
O       -3.13372805       0.81036580       5.14952093       30       0.01025733      -0.00170999       0.00677663
O        4.73124782       0.66601975       1.85557258       31      -0.00814611      -0.00821658       0.00449313
O        0.94915316       1.16740006       5.23311199       32       0.00503130       0.01041909       0.00449313
O        3.13372805      -0.98527102       5.25050251       33      -0.01025733       0.00501374       0.00486921
O        1.97349844       0.01004042       3.02654315       34      -0.00814611       0.00021713      -0.00936233
O        0.94915316      -1.90176197       6.50506414       35       0.00503130      -0.00131838      -0.01126976
O       -0.64836661       1.68907376       3.12752472       36       0.00292008      -0.00430410      -0.01126976
O       -0.94915317      -0.73436191       4.98309730       37      -0.00503130       0.00910071      -0.00677663
O       -0.37597867       4.88531760       1.50457631       38       0.01025733      -0.00501374      -0.00486921
O        3.54200032       4.57610676       4.88211572       39       0.00814611      -0.00799946      -0.00486921
40