40
Lattice="8.4421363779363 6.616639507378095e-10 5.314444874329106e-15 -2.8140454599359255 7.959322507166641 -1.1460538067045e-09 -2.8140454590001913 -3.979661252921644 6.892975488883592" Properties=species:S:1:pos:R:3:spacegroup_kinds:I:1:forces:R:3 spacegroup="P 1" unit_cell=conventional occupancy="_JSON {\"0\": {\"In\": 1}, \"1\": {\"In\": 1}, \"2\": {\"In\": 1}, \"3\": {\"In\": 1}, \"4\": {\"In\": 1}, \"5\": {\"In\": 1}, \"6\": {\"In\": 1}, \"7\": {\"In\": 1}, \"8\": {\"In\": 1}, \"9\": {\"In\": 1}, \"10\": {\"In\": 1}, \"11\": {\"In\": 1}, \"12\": {\"In\": 1}, \"13\": {\"In\": 1}, \"14\": {\"In\": 1}, \"15\": {\"In\": 1}, \"16\": {\"O\": 1}, \"17\": {\"O\": 1}, \"18\": {\"O\": 1}, \"19\": {\"O\": 1}, \"20\": {\"O\": 1}, \"21\": {\"O\": 1}, \"22\": {\"O\": 1}, \"23\": {\"O\": 1}, \"24\": {\"O\": 1}, \"25\": {\"O\": 1}, \"26\": {\"O\": 1}, \"27\": {\"O\": 1}, \"28\": {\"O\": 1}, \"29\": {\"O\": 1}, \"30\": {\"O\": 1}, \"31\": {\"O\": 1}, \"32\": {\"O\": 1}, \"33\": {\"O\": 1}, \"34\": {\"O\": 1}, \"35\": {\"O\": 1}, \"36\": {\"O\": 1}, \"37\": {\"O\": 1}, \"38\": {\"O\": 1}, \"39\": {\"O\": 1}}" n_minim_iter=3 energy=-45146.98392375117 stress="-0.16560245641590002 1.977932435669074e-13 1.1547957802160743e-13 1.977932435669074e-13 -0.16560245641567925 -1.8159118018836067e-13 1.1547957802160743e-13 -1.8159118018836067e-13 -0.1656024564162296" free_energy=-45146.98392375117 pbc="T T T"
In      -4.02740043       2.84780216       5.40692521        0       0.00042415      -0.00029992       0.00051948
In       6.84144589       1.13185910       1.48605027        1      -0.00042415       0.00029992      -0.00051948
In       1.21335497      -0.85797152       4.93253802        2      -0.00042415       0.00029992      -0.00051948
In      -1.40702273      -1.98983063       3.44648774        3      -0.00000000       0.00000000      -0.00000000
In      -1.21335497       3.84271747       3.20929414        4       0.00042415      -0.00029992      -0.00051948
In       4.41473595      -2.71085836       5.16973161        5       0.00042415       0.00059984      -0.00000000
In      -1.21335497       1.26880289       5.16973161        6       0.00042415       0.00059984      -0.00000000
In      -1.60069049       6.69051962       1.72324387        7      -0.00042415      -0.00059984       0.00000000
In       4.02740043       0.13694379       3.68368134        8      -0.00042415       0.00029992       0.00051948
In      -1.40702273       3.97966125      -0.00000000        9       0.00000000       0.00000000       0.00000000
In       4.02740043       6.10643567       0.23719359       10      -0.00042415       0.00029992       0.00051948
In      -1.21335497      -2.12677441       6.65578189       11       0.00042415      -0.00029992      -0.00051948
In       4.02740043       2.71085837       1.72324387       12      -0.00042415      -0.00059984       0.00000000
In       1.60069049       4.83763278       1.96043747       13       0.00042415      -0.00029992       0.00051948
In       4.22106819       0.00000000      -0.00000000       14      -0.00000000      -0.00000000       0.00000000
In       1.40702273       1.98983063       3.44648774       15      -0.00000000       0.00000000       0.00000000
O        0.80555497       3.97244262       3.77937618       16      -0.00506376       0.00837560      -0.00014925
O       -2.00849049       3.27664511       5.00953891       17      -0.00506376      -0.00431705      -0.00717885
O       -0.40109745       2.14004659       0.08520981       18       0.00213851      -0.00940983       0.00164209
O       -0.80555497      -0.71023478       1.89593961       19       0.00506376       0.00405854      -0.00732811
O        3.75874746       4.73909194       1.81072981       20      -0.00238224      -0.00311048      -0.00897019
O        1.86934345       2.79123859       1.56305117       21       0.00238224       0.00621317      -0.00717885
O        1.86934345       5.92751461       0.24767863       22       0.00238224      -0.00932366      -0.00179134
O       -2.15135443       5.63430132       3.53169755       23       0.00958451       0.00112040       0.00164209
O        3.21514291       1.83961467       6.80776568       24      -0.00213851       0.00940983      -0.00164209
O        4.96539988      -1.65464007       3.36127793       25      -0.00958451      -0.00112040      -0.00164209
O        6.02918837       3.13364778       1.63575793       26      -0.00213851      -0.00328282       0.00897019
O        3.47673649       2.23121977       3.69416638       27       0.00958451       0.00086189      -0.00179134
O        0.66269103       4.07346268       6.56008704       28       0.00958451      -0.00198229       0.00014925
O        2.15135442      -0.09380142       0.33288844       29      -0.00958451       0.00198229      -0.00014925
O       -3.21514291       0.84601348       5.25721755       30       0.00213851       0.00328282      -0.00897019
O        4.82253595       0.70301615       1.88343657       31       0.00506376       0.00431705       0.00717885
O        0.94470200       1.18842267       5.32992431       32      -0.00238224      -0.00621317       0.00717885
O        3.21514291      -0.99360119       5.34242736       33      -0.00213851      -0.00612700      -0.00732811
O        2.00849049       0.00721864       3.11359930       34       0.00506376      -0.00837560       0.00014925
O        0.94470200      -1.94785336       6.64529685       35      -0.00238224       0.00932366       0.00179134
O       -0.66269104       1.74844149       3.19880911       36      -0.00958451      -0.00086189       0.00179134
O       -0.94470200      -0.75943069       5.08224568       37       0.00238224       0.00311048       0.00897019
O       -0.40109745       4.97326244       1.55054812       38       0.00213851       0.00612700       0.00732811
O        3.61960043       4.68989604       4.99703587       39      -0.00506376      -0.00405854       0.00732811
