40
Lattice="9.430664805758749 7.39147617831876e-10 -3.597433046113599e-16 -3.143554935949791 8.891316046752719 -1.2802455876388537e-09 -3.1435549349044805 -4.445658022637208 7.70010557041758" Properties=species:S:1:pos:R:3:spacegroup_kinds:I:1:forces:R:3 spacegroup="P 1" unit_cell=conventional occupancy="_JSON {\"0\": {\"In\": 1}, \"1\": {\"In\": 1}, \"2\": {\"In\": 1}, \"3\": {\"In\": 1}, \"4\": {\"In\": 1}, \"5\": {\"In\": 1}, \"6\": {\"In\": 1}, \"7\": {\"In\": 1}, \"8\": {\"In\": 1}, \"9\": {\"In\": 1}, \"10\": {\"In\": 1}, \"11\": {\"In\": 1}, \"12\": {\"In\": 1}, \"13\": {\"In\": 1}, \"14\": {\"In\": 1}, \"15\": {\"In\": 1}, \"16\": {\"O\": 1}, \"17\": {\"O\": 1}, \"18\": {\"O\": 1}, \"19\": {\"O\": 1}, \"20\": {\"O\": 1}, \"21\": {\"O\": 1}, \"22\": {\"O\": 1}, \"23\": {\"O\": 1}, \"24\": {\"O\": 1}, \"25\": {\"O\": 1}, \"26\": {\"O\": 1}, \"27\": {\"O\": 1}, \"28\": {\"O\": 1}, \"29\": {\"O\": 1}, \"30\": {\"O\": 1}, \"31\": {\"O\": 1}, \"32\": {\"O\": 1}, \"33\": {\"O\": 1}, \"34\": {\"O\": 1}, \"35\": {\"O\": 1}, \"36\": {\"O\": 1}, \"37\": {\"O\": 1}, \"38\": {\"O\": 1}, \"39\": {\"O\": 1}}" n_minim_iter=1 energy=-45150.18414452538 stress="0.10090190110719365 -3.39984392303099e-13 -4.702980338770832e-13 -3.39984392303099e-13 0.10090190110965655 -4.607632972315118e-13 -4.702980338770832e-13 -4.607632972315118e-13 0.10090190110719752" free_energy=-45150.18414452538 pbc="T T T"
In      -4.57020536       3.23162320       5.95282278        0       0.04632396      -0.03275599       0.05673503
In       7.71376029       1.21403483       1.74728279        1      -0.04632396       0.03275599      -0.05673503
In       1.42665042      -1.00879419       5.59733557        2      -0.04632396       0.03275599      -0.05673503
In      -1.57177747      -2.22282901       3.85005278        3       0.00000000       0.00000000       0.00000000
In      -1.42665042       4.34303771       3.67230918        4       0.04632396      -0.03275599      -0.05673503
In       4.86045945      -3.12900288       5.77507918        5       0.04632396       0.06551197      -0.00000000
In      -1.42665042       1.31665514       5.77507917        6       0.04632396       0.06551197      -0.00000000
In      -1.71690451       7.57466091       1.92502639        7      -0.04632396      -0.06551197       0.00000000
In       4.57020536       0.10262032       4.02779639        8      -0.04632396       0.03275599       0.05673503
In      -1.57177747       4.44565802      -0.00000000        9      -0.00000000      -0.00000000       0.00000000
In       4.57020536       6.77110735       0.17774360       10      -0.04632396       0.03275599       0.05673503
In      -1.42665042      -2.32544933       7.52236196       11       0.04632396      -0.03275599      -0.05673503
In       4.57020536       3.12900288       1.92502639       12      -0.04632396      -0.06551197       0.00000000
In       1.71690451       5.45445221       2.10276999       13       0.04632396      -0.03275599       0.05673503
In       4.71533240       0.00000000      -0.00000000       14       0.00000000       0.00000000      -0.00000000
In       1.57177747       2.22282901       3.85005278       15       0.00000000      -0.00000000      -0.00000000
O        0.84222743       4.44004616       4.11624529       16       0.00051841       0.00131853      -0.13762796
O       -2.30132751       3.56757893       5.64684294       17       0.00051841      -0.11984857       0.06767210
O       -0.55240936       2.33090704       0.08871591       18      -0.11157839      -0.04058416      -0.06961788
O       -0.84222743      -0.88369096       2.06298266       19      -0.00051841      -0.11853004      -0.06995586
O        4.13065483       5.38056914       1.97426675       20      -0.11316712       0.07833614      -0.00033797
O        2.15645503       3.20334842       1.79679015       21       0.11316712       0.03946076       0.06767210
O        2.15645503       6.62287875       0.17747660       22       0.11316712       0.03887537      -0.06801007
O       -2.38173669       6.41233456       3.93876869       23       0.00107032       0.11872517      -0.06961788
O        3.69596429       2.11475099       7.61138966       24       0.11157839       0.04058416       0.06961788
O        5.52529162      -1.96667653       3.76133687       25      -0.00107032      -0.11872517       0.06961788
O        6.83951922       3.46511276       1.87578603       26       0.11157839      -0.08058294       0.00033797
O        3.90537318       2.42773548       4.02752938       27       0.00107032      -0.11965344      -0.06801007
O        0.76181825       4.49690404       7.43391306       28       0.00107032       0.00092827       0.13762796
O        2.38173668      -0.05124601       0.26619251       29      -0.00107032      -0.00092827      -0.13762796
O       -3.69596429       0.98054526       5.82431954       30      -0.11157839       0.08058294      -0.00033798
O        5.44488244       0.87807910       2.05326263       31      -0.00051841       0.11984857      -0.06767210
O        0.98709990       1.24230961       5.90331541       32      -0.11316712      -0.03946076      -0.06767210
O        3.69596429      -1.13420572       5.91303545       33       0.11157839       0.03999877      -0.06995586
O        2.30132750       0.00561187       3.58386027       34      -0.00051841      -0.00131853       0.13762796
O        0.98709990      -2.17722072       7.52262897       35      -0.11316712      -0.03887537       0.06801007
O       -0.76181825       2.01792254       3.67257618       36      -0.00107032       0.11965344       0.06801007
O       -0.98709990      -0.93491112       5.72583881       37       0.11316712      -0.07833614       0.00033797
O       -0.55240936       5.57986375       1.78707012       38      -0.11157839      -0.03999877       0.06995586
O        3.98578236       5.32934899       5.63712290       39       0.00051841       0.11853004       0.06995586
40
Lattice="9.430664805758752 7.391476178318763e-10 -3.597433046113639e-16 -3.1435549359497923 8.891316046752722 -1.2802455876388547e-09 -3.143554934904482 -4.44565802263721 7.700105570417584" Properties=species:S:1:pos:R:3:spacegroup_kinds:I:1:forces:R:3 spacegroup="P 1" unit_cell=conventional occupancy="_JSON {\"0\": {\"In\": 1}, \"1\": {\"In\": 1}, \"2\": {\"In\": 1}, \"3\": {\"In\": 1}, \"4\": {\"In\": 1}, \"5\": {\"In\": 1}, \"6\": {\"In\": 1}, \"7\": {\"In\": 1}, \"8\": {\"In\": 1}, \"9\": {\"In\": 1}, \"10\": {\"In\": 1}, \"11\": {\"In\": 1}, \"12\": {\"In\": 1}, \"13\": {\"In\": 1}, \"14\": {\"In\": 1}, \"15\": {\"In\": 1}, \"16\": {\"O\": 1}, \"17\": {\"O\": 1}, \"18\": {\"O\": 1}, \"19\": {\"O\": 1}, \"20\": {\"O\": 1}, \"21\": {\"O\": 1}, \"22\": {\"O\": 1}, \"23\": {\"O\": 1}, \"24\": {\"O\": 1}, \"25\": {\"O\": 1}, \"26\": {\"O\": 1}, \"27\": {\"O\": 1}, \"28\": {\"O\": 1}, \"29\": {\"O\": 1}, \"30\": {\"O\": 1}, \"31\": {\"O\": 1}, \"32\": {\"O\": 1}, \"33\": {\"O\": 1}, \"34\": {\"O\": 1}, \"35\": {\"O\": 1}, \"36\": {\"O\": 1}, \"37\": {\"O\": 1}, \"38\": {\"O\": 1}, \"39\": {\"O\": 1}}" n_minim_iter=2 energy=-45150.20808288047 stress="0.0988025500214001 4.67306598970603e-13 2.4147320986981677e-12 4.67306598970603e-13 0.09880255002233258 1.911639447296157e-13 2.4147320986981677e-12 1.911639447296157e-13 0.09880255002404499" free_energy=-45150.20808288047 pbc="T T T"
In      -4.56689651       3.22928349       5.95687528        0       0.02871067      -0.02030151       0.03516324
In       7.71045144       1.21637454       1.74323028        1      -0.02871066       0.02030151      -0.03516324
In       1.42334157      -1.00645447       5.59328307        2      -0.02871067       0.02030151      -0.03516324
In      -1.57177747      -2.22282901       3.85005278        3       0.00000000       0.00000000       0.00000000
In      -1.42334157       4.34069799       3.66825668        4       0.02871067      -0.02030151      -0.03516324
In       4.86376830      -3.12432345       5.77507918        5       0.02871067       0.04060301      -0.00000000
In      -1.42334157       1.32133457       5.77507917        6       0.02871066       0.04060301      -0.00000000
In      -1.72021337       7.56998148       1.92502639        7      -0.02871067      -0.04060301      -0.00000000
In       4.56689650       0.10496003       4.03184889        8      -0.02871067       0.02030151       0.03516324
In      -1.57177747       4.44565802      -0.00000000        9       0.00000000       0.00000000      -0.00000000
In       4.56689650       6.77344707       0.18179610       10      -0.02871066       0.02030151       0.03516324
In      -1.42334157      -2.32778904       7.51830946       11       0.02871066      -0.02030151      -0.03516324
In       4.56689650       3.12432346       1.92502639       12      -0.02871066      -0.04060301       0.00000000
In       1.72021336       5.45211250       2.10682250       13       0.02871066      -0.02030151       0.03516324
In       4.71533240       0.00000000      -0.00000000       14       0.00000000       0.00000000       0.00000000
In       1.57177747       2.22282901       3.85005278       15      -0.00000000      -0.00000000      -0.00000000
O        0.84226446       4.44014034       4.10641472       16       0.01484827       0.00584121      -0.02726693
O       -2.30129048       3.55901831       5.65167666       17       0.01484827      -0.02653446       0.00857483
O       -0.56037924       2.32800817       0.08374320       18      -0.01456036      -0.00573942      -0.02744324
O       -0.84226446      -0.89215739       2.05798582       19      -0.01484827      -0.02069325      -0.01869211
O        4.12257147       5.38616458       1.97424261       20      -0.02996636       0.00484889       0.00875114
O        2.16453840       3.20616705       1.80162388       21       0.02996636      -0.00515426       0.00857483
O        2.16453840       6.62565556       0.17261873       22       0.02996636       0.01000315       0.00017631
O       -2.38166024       6.42081493       3.93379598       23       0.00055772       0.01564078      -0.02744324
O        3.70393417       2.11764985       7.61636236       24       0.01456036       0.00573942       0.02744324
O        5.52521517      -1.97515690       3.76630958       25      -0.00055772      -0.01564078       0.02744324
O        6.84748911       3.45935684       1.87581017       26       0.01456036      -0.02663625      -0.00875114
O        3.90544964       2.41918881       4.02267152       27       0.00055772      -0.03158693       0.00017631
O        0.76189470       4.49697034       7.44374363       28       0.00055772       0.01594615       0.02726693
O        2.38166023      -0.05131231       0.25636194       29      -0.00055772      -0.01594615      -0.02726693
O       -3.70393418       0.98630119       5.82429540       30      -0.01456036       0.02663625       0.00875114
O        5.44484541       0.88663971       2.04842890       31      -0.01484827       0.02653446      -0.00857483
O        0.97901653       1.23949098       5.89848169       32      -0.02996636       0.00515426      -0.00857483
O        3.70393417      -1.13134866       5.90803860       33       0.01456036       0.02089683      -0.01869211
O        2.30129048       0.00551769       3.59369084       34      -0.01484827      -0.00584121       0.02726693
O        0.97901653      -2.17999753       7.52748683       35      -0.02996636      -0.01000315      -0.00017631
O       -0.76189470       2.02646922       3.67743404       36      -0.00055772       0.03158693      -0.00017631
O       -0.97901654      -0.94050655       5.72586295       37       0.02996636      -0.00484889      -0.00875114
O       -0.56037924       5.57700669       1.79206696       38      -0.01456036      -0.02089683       0.01869211
O        3.98581939       5.33781542       5.64211975       39       0.01484827       0.02069325       0.01869211
40
Lattice="9.430664805758754 7.391476178318764e-10 -3.597433046113605e-16 -3.1435549359497927 8.891316046752724 -1.2802455876388551e-09 -3.1435549349044822 -4.445658022637211 7.700105570417586" Properties=species:S:1:pos:R:3:spacegroup_kinds:I:1:forces:R:3 spacegroup="P 1" unit_cell=conventional occupancy="_JSON {\"0\": {\"In\": 1}, \"1\": {\"In\": 1}, \"2\": {\"In\": 1}, \"3\": {\"In\": 1}, \"4\": {\"In\": 1}, \"5\": {\"In\": 1}, \"6\": {\"In\": 1}, \"7\": {\"In\": 1}, \"8\": {\"In\": 1}, \"9\": {\"In\": 1}, \"10\": {\"In\": 1}, \"11\": {\"In\": 1}, \"12\": {\"In\": 1}, \"13\": {\"In\": 1}, \"14\": {\"In\": 1}, \"15\": {\"In\": 1}, \"16\": {\"O\": 1}, \"17\": {\"O\": 1}, \"18\": {\"O\": 1}, \"19\": {\"O\": 1}, \"20\": {\"O\": 1}, \"21\": {\"O\": 1}, \"22\": {\"O\": 1}, \"23\": {\"O\": 1}, \"24\": {\"O\": 1}, \"25\": {\"O\": 1}, \"26\": {\"O\": 1}, \"27\": {\"O\": 1}, \"28\": {\"O\": 1}, \"29\": {\"O\": 1}, \"30\": {\"O\": 1}, \"31\": {\"O\": 1}, \"32\": {\"O\": 1}, \"33\": {\"O\": 1}, \"34\": {\"O\": 1}, \"35\": {\"O\": 1}, \"36\": {\"O\": 1}, \"37\": {\"O\": 1}, \"38\": {\"O\": 1}, \"39\": {\"O\": 1}}" n_minim_iter=3 energy=-45150.21026474681 stress="0.0979810739543555 3.372925823506077e-13 1.0412801114391405e-12 3.372925823506077e-13 0.09798107395309585 1.2853278605477493e-12 1.0412801114391405e-12 1.2853278605477493e-12 0.09798107395278863" free_energy=-45150.21026474681 pbc="T T T"
In      -4.56537184       3.22820539       5.95874261        0       0.02125676      -0.01503080       0.02603410
In       7.70892677       1.21745264       1.74136295        1      -0.02125676       0.01503080      -0.02603410
In       1.42181690      -1.00537637       5.59141574        2      -0.02125676       0.01503080      -0.02603410
In      -1.57177747      -2.22282901       3.85005278        3      -0.00000000       0.00000000      -0.00000000
In      -1.42181690       4.33961989       3.66638935        4       0.02125676      -0.01503080      -0.02603410
In       4.86529297      -3.12216725       5.77507918        5       0.02125676       0.03006159      -0.00000000
In      -1.42181690       1.32349078       5.77507917        6       0.02125676       0.03006159      -0.00000000
In      -1.72173804       7.56782527       1.92502639        7      -0.02125676      -0.03006159      -0.00000000
In       4.56537183       0.10603814       4.03371622        8      -0.02125676       0.01503080       0.02603410
In      -1.57177747       4.44565802      -0.00000000        9       0.00000000      -0.00000000       0.00000000
In       4.56537183       6.77452517       0.18366343       10      -0.02125676       0.01503080       0.02603410
In      -1.42181690      -2.32886714       7.51644213       11       0.02125676      -0.01503080      -0.02603410
In       4.56537183       3.12216725       1.92502639       12      -0.02125676      -0.03006159      -0.00000000
In       1.72173803       5.45103440       2.10868983       13       0.02125676      -0.01503080       0.02603410
In       4.71533240       0.00000000      -0.00000000       14       0.00000000      -0.00000000      -0.00000000
In       1.57177747       2.22282901       3.85005278       15       0.00000000      -0.00000000       0.00000000
O        0.84256198       4.44028073       4.10300532       16       0.01864877       0.00525856       0.01083154
O       -2.30099296       3.55599549       5.65325978       17       0.01864877       0.00675111      -0.00996982
O       -0.56299765       2.32704722       0.08175505       18       0.01753908       0.00753578      -0.01132890
O       -0.84256198      -0.89503983       2.05615953       19      -0.01864877       0.01200967       0.00086172
O        4.11962235       5.38789916       1.97440448       20       0.00014875      -0.01855042       0.01219063
O        2.16748752       3.20689415       1.80320699       21      -0.00014875      -0.01983260      -0.00996982
O        2.16748752       6.62666303       0.17119748       22      -0.00014875       0.00128218       0.02216045
O       -2.38162705       6.42360391       3.93180783       23      -0.00125844      -0.01904793      -0.01132890
O        3.70655259       2.11861080       7.61835052       24      -0.01753908      -0.00753578       0.01132890
O        5.52518198      -1.97794588       3.76829773       25       0.00125844       0.01904793       0.01132890
O        6.85010752       3.45715457       1.87564830       26      -0.01753908      -0.00604323      -0.01219063
O        3.90548282       2.41607253       4.02125027       27      -0.00125844      -0.00028715       0.02216045
O        0.76192789       4.49729764       7.44715303       28      -0.00125844       0.01933508      -0.01083154
O        2.38162704      -0.05163961       0.25295253       29       0.00125844      -0.01933508       0.01083154
O       -3.70655259       0.98850345       5.82445727       30       0.01753908       0.00604323       0.01219063
O        5.44454789       0.88966254       2.04684578       31      -0.01864877      -0.00675111       0.00996982
O        0.97606741       1.23876388       5.89689857       32       0.00014875       0.01983260       0.00996982
O        3.70655259      -1.13010735       5.90621232       33      -0.01753908       0.01357901       0.00086172
O        2.30099295       0.00537730       3.59710025       34      -0.01864877      -0.00525856      -0.01083154
O        0.97606741      -2.18100500       7.52890808       35       0.00014875      -0.00128218      -0.02216045
O       -0.76192789       2.02958550       3.67885529       36       0.00125844       0.00028715      -0.02216045
O       -0.97606742      -0.94224113       5.72570108       37      -0.00014875       0.01855042      -0.01219063
O       -0.56299765       5.57576537       1.79389325       38       0.01753908      -0.01357901      -0.00086172
O        3.98611691       5.34069786       5.64394603       39       0.01864877      -0.01200967      -0.00086172
40
Lattice="9.430664805758765 7.391476178318771e-10 -3.5974330461136176e-16 -3.1435549359497967 8.891316046752735 -1.2802455876388568e-09 -3.1435549349044862 -4.445658022637216 7.700105570417595" Properties=species:S:1:pos:R:3:spacegroup_kinds:I:1:forces:R:3 spacegroup="P 1" unit_cell=conventional occupancy="_JSON {\"0\": {\"In\": 1}, \"1\": {\"In\": 1}, \"2\": {\"In\": 1}, \"3\": {\"In\": 1}, \"4\": {\"In\": 1}, \"5\": {\"In\": 1}, \"6\": {\"In\": 1}, \"7\": {\"In\": 1}, \"8\": {\"In\": 1}, \"9\": {\"In\": 1}, \"10\": {\"In\": 1}, \"11\": {\"In\": 1}, \"12\": {\"In\": 1}, \"13\": {\"In\": 1}, \"14\": {\"In\": 1}, \"15\": {\"In\": 1}, \"16\": {\"O\": 1}, \"17\": {\"O\": 1}, \"18\": {\"O\": 1}, \"19\": {\"O\": 1}, \"20\": {\"O\": 1}, \"21\": {\"O\": 1}, \"22\": {\"O\": 1}, \"23\": {\"O\": 1}, \"24\": {\"O\": 1}, \"25\": {\"O\": 1}, \"26\": {\"O\": 1}, \"27\": {\"O\": 1}, \"28\": {\"O\": 1}, \"29\": {\"O\": 1}, \"30\": {\"O\": 1}, \"31\": {\"O\": 1}, \"32\": {\"O\": 1}, \"33\": {\"O\": 1}, \"34\": {\"O\": 1}, \"35\": {\"O\": 1}, \"36\": {\"O\": 1}, \"37\": {\"O\": 1}, \"38\": {\"O\": 1}, \"39\": {\"O\": 1}}" n_minim_iter=4 energy=-45150.21165505875 stress="0.09724659812741315 9.55398830115147e-13 -1.9817323420202626e-13 9.55398830115147e-13 0.09724659812690412 -3.099512679516656e-13 -1.9817323420202626e-13 -3.099512679516656e-13 0.09724659812517508" free_energy=-45150.21165505875 pbc="T T T"
In      -4.56258729       3.22623641       5.96215297        0       0.00740139      -0.00523357       0.00906481
In       7.70614222       1.21942162       1.73795259        1      -0.00740139       0.00523357      -0.00906481
In       1.41903235      -1.00340740       5.58800538        2      -0.00740139       0.00523357      -0.00906481
In      -1.57177747      -2.22282901       3.85005278        3       0.00000000      -0.00000000      -0.00000000
In      -1.41903235       4.33765092       3.66297898        4       0.00740139      -0.00523357      -0.00906481
In       4.86807752      -3.11822930       5.77507918        5       0.00740139       0.01046714      -0.00000000
In      -1.41903235       1.32742872       5.77507917        6       0.00740139       0.01046714      -0.00000000
In      -1.72452259       7.56388733       1.92502639        7      -0.00740139      -0.01046714       0.00000000
In       4.56258729       0.10800711       4.03712658        8      -0.00740139       0.00523357       0.00906481
In      -1.57177747       4.44565802      -0.00000000        9      -0.00000000      -0.00000000       0.00000000
In       4.56258728       6.77649414       0.18707379       10      -0.00740139       0.00523357       0.00906481
In      -1.41903235      -2.33083612       7.51303177       11       0.00740139      -0.00523357      -0.00906481
In       4.56258729       3.11822931       1.92502639       12      -0.00740139      -0.01046714       0.00000000
In       1.72452258       5.44906542       2.11210019       13       0.00740139      -0.00523357       0.00906481
In       4.71533240       0.00000000      -0.00000000       14       0.00000000      -0.00000000      -0.00000000
In       1.57177747       2.22282901       3.85005278       15       0.00000000      -0.00000000      -0.00000000
O        0.84422971       4.44078849       4.10130531       16       0.01668587      -0.00060368       0.02753861
O       -2.29932523       3.55426935       5.65367005       17       0.01668587       0.02415098      -0.01324650
O       -0.56359044       2.32691951       0.07939676       18       0.02776256       0.01631857       0.00031962
O       -0.84422971      -0.89625820       2.05486979       19      -0.01668587       0.02354729       0.01429211
O        4.11743902       5.38775597       1.97547302       20       0.01720780      -0.02336276       0.01397249
O        2.16967085       3.20589718       1.80361727       21      -0.01720780      -0.02378191      -0.01324650
O        2.16967085       6.62751682       0.17185575       22      -0.01720780       0.00041915       0.02721899
O       -2.38170423       6.42420536       3.92944955       23      -0.00613111      -0.03161432       0.00031962
O        3.70714537       2.11873852       7.62070880       24      -0.02776256      -0.01631857      -0.00031962
O        5.52525917      -1.97854733       3.77065602       25       0.00613111       0.03161432      -0.00031962
O        6.85070030       3.45504839       1.87457976       26      -0.02776256       0.00843608      -0.01397249
O        3.90540564       2.41372947       4.02190854       27      -0.00613111       0.01608396       0.02721899
O        0.76185070       4.49903925       7.44885304       28      -0.00613111       0.01553036      -0.02753861
O        2.38170423      -0.05338122       0.25125252       29       0.00613111      -0.01553036       0.02753861
O       -3.70714537       0.99060964       5.82552581       30       0.02776256      -0.00843608       0.01397249
O        5.44288016       0.89138867       2.04643551       31      -0.01668587      -0.02415098       0.01324650
O        0.97388409       1.23976085       5.89648830       32       0.01720780       0.02378191       0.01324650
O        3.70714537      -1.12812887       5.90492258       33      -0.02776256       0.00788249       0.01429211
O        2.29932522       0.00486953       3.59880026       34      -0.01668587       0.00060368      -0.02753861
O        0.97388409      -2.18185880       7.52824981       35       0.01720780      -0.00041915      -0.02721899
O       -0.76185071       2.03192856       3.67819703       36       0.00613111      -0.01608396      -0.02721899
O       -0.97388409      -0.94209795       5.72463254       37      -0.01720780       0.02336276      -0.01397249
O       -0.56359044       5.57378690       1.79518299       38       0.02776256      -0.00788249      -0.01429211
O        3.98778464       5.34191623       5.64523577       39       0.01668587      -0.02354729      -0.01429211
40
Lattice="9.430664805758772 7.391476178318781e-10 -3.597433046114002e-16 -3.1435549359497994 8.891316046752742 -1.2802455876388582e-09 -3.143554934904489 -4.44565802263722 7.700105570417603" Properties=species:S:1:pos:R:3:spacegroup_kinds:I:1:forces:R:3 spacegroup="P 1" unit_cell=conventional occupancy="_JSON {\"0\": {\"In\": 1}, \"1\": {\"In\": 1}, \"2\": {\"In\": 1}, \"3\": {\"In\": 1}, \"4\": {\"In\": 1}, \"5\": {\"In\": 1}, \"6\": {\"In\": 1}, \"7\": {\"In\": 1}, \"8\": {\"In\": 1}, \"9\": {\"In\": 1}, \"10\": {\"In\": 1}, \"11\": {\"In\": 1}, \"12\": {\"In\": 1}, \"13\": {\"In\": 1}, \"14\": {\"In\": 1}, \"15\": {\"In\": 1}, \"16\": {\"O\": 1}, \"17\": {\"O\": 1}, \"18\": {\"O\": 1}, \"19\": {\"O\": 1}, \"20\": {\"O\": 1}, \"21\": {\"O\": 1}, \"22\": {\"O\": 1}, \"23\": {\"O\": 1}, \"24\": {\"O\": 1}, \"25\": {\"O\": 1}, \"26\": {\"O\": 1}, \"27\": {\"O\": 1}, \"28\": {\"O\": 1}, \"29\": {\"O\": 1}, \"30\": {\"O\": 1}, \"31\": {\"O\": 1}, \"32\": {\"O\": 1}, \"33\": {\"O\": 1}, \"34\": {\"O\": 1}, \"35\": {\"O\": 1}, \"36\": {\"O\": 1}, \"37\": {\"O\": 1}, \"38\": {\"O\": 1}, \"39\": {\"O\": 1}}" n_minim_iter=5 energy=-45150.21314759946 stress="0.09716850383860351 -9.150700850886444e-13 -6.447765656201787e-14 -9.150700850886444e-13 0.09716850383783043 1.703784415190642e-13 -6.447765656201787e-14 1.703784415190642e-13 0.09716850383564384" free_energy=-45150.21314759946 pbc="T T T"
In      -4.56009558       3.22447451       5.96520468        0      -0.00497649       0.00351891      -0.00609493
In       7.70365051       1.22118352       1.73490088        1       0.00497649      -0.00351891       0.00609493
In       1.41654064      -1.00164549       5.58495366        2       0.00497649      -0.00351891       0.00609493
In      -1.57177747      -2.22282901       3.85005278        3       0.00000000      -0.00000000       0.00000000
In      -1.41654064       4.33588901       3.65992727        4      -0.00497649       0.00351891       0.00609493
In       4.87056923      -3.11470549       5.77507918        5      -0.00497649      -0.00703782      -0.00000000
In      -1.41654064       1.33095254       5.77507917        6      -0.00497649      -0.00703782      -0.00000000
In      -1.72701430       7.56036351       1.92502639        7       0.00497649       0.00703782       0.00000000
In       4.56009557       0.10976902       4.04017829        8       0.00497649      -0.00351891      -0.00609493
In      -1.57177747       4.44565802      -0.00000000        9      -0.00000000      -0.00000000      -0.00000000
In       4.56009557       6.77825605       0.19012551       10       0.00497649      -0.00351891      -0.00609493
In      -1.41654064      -2.33259802       7.50998006       11      -0.00497649       0.00351891       0.00609493
In       4.56009557       3.11470549       1.92502639       12       0.00497649       0.00703782      -0.00000000
In       1.72701429       5.44730352       2.11515190       13      -0.00497649       0.00351891      -0.00609493
In       4.71533240       0.00000000      -0.00000000       14      -0.00000000       0.00000000       0.00000000
In       1.57177747       2.22282901       3.85005278       15       0.00000000       0.00000000      -0.00000000
O        0.84675700       4.44132444       4.10331746       16       0.00748651      -0.00659739       0.00160892
O       -2.29679794       3.55574396       5.65219983       17       0.00748651       0.00469206       0.00490905
O       -0.56085244       2.32824512       0.07818461       18       0.00069914       0.00949146      -0.00340375
O       -0.84675700      -0.89424765       2.05541172       19      -0.00748651      -0.00190533       0.00651797
O        4.11798686       5.38504558       1.97722712       20       0.00192822      -0.00005982       0.00992172
O        2.16912300       3.20302289       1.80214704       21      -0.00192822      -0.00862237       0.00490905
O        2.16912300       6.62768072       0.17508007       22      -0.00192822       0.00856255       0.00501267
O       -2.38204137       6.42118208       3.92823739       23      -0.00871559      -0.00382297      -0.00340375
O        3.70440737       2.11741290       7.62192096       24      -0.00069914      -0.00949146       0.00340375
O        5.52559630      -1.97552405       3.77186817       25       0.00871559       0.00382297       0.00340375
O        6.84796231       3.45466143       1.87282566       26      -0.00069914       0.00179800      -0.00992172
O        3.90506850       2.41419135       4.02513285       27      -0.00871559      -0.00103624       0.00501267
O        0.76151357       4.50160065       7.44684089       28      -0.00871559       0.00485922      -0.00160892
O        2.38204136      -0.05594262       0.25326468       29       0.00871559      -0.00485922       0.00160892
O       -3.70440737       0.99099660       5.82727990       30       0.00069914      -0.00179800       0.00992172
O        5.44035287       0.88991407       2.04790574       31      -0.00748651      -0.00469206      -0.00490905
O        0.97443193       1.24263514       5.89795852       32       0.00192822       0.00862237      -0.00490905
O        3.70440737      -1.12641630       5.90546451       33      -0.00069914       0.00769346       0.00651797
O        2.29679794       0.00433359       3.59678810       34      -0.00748651       0.00659739      -0.00160892
O        0.97443193      -2.18202269       7.52502550       35       0.00192822      -0.00856255      -0.00501267
O       -0.76151357       2.03146668       3.67497271       36       0.00871559       0.00103624      -0.00501267
O       -0.97443193      -0.93938755       5.72287845       37      -0.00192822       0.00005982      -0.00992172
O       -0.56085244       5.57207433       1.79464105       38       0.00069914      -0.00769346      -0.00651797
O        3.99031193       5.33990568       5.64469384       39       0.00748651       0.00190533      -0.00651797
40