40
Lattice="9.356984727048612 7.333712007242138e-10 1.6796937148988126e-15 -3.1189949097076326 8.821849802362252 -1.2702424811257252e-09 -3.118994908670491 -4.410924900447749 7.639946038063264" Properties=species:S:1:pos:R:3:spacegroup_kinds:I:1:forces:R:3 spacegroup="P 1" unit_cell=conventional occupancy="_JSON {\"0\": {\"In\": 1}, \"1\": {\"In\": 1}, \"2\": {\"In\": 1}, \"3\": {\"In\": 1}, \"4\": {\"In\": 1}, \"5\": {\"In\": 1}, \"6\": {\"In\": 1}, \"7\": {\"In\": 1}, \"8\": {\"In\": 1}, \"9\": {\"In\": 1}, \"10\": {\"In\": 1}, \"11\": {\"In\": 1}, \"12\": {\"In\": 1}, \"13\": {\"In\": 1}, \"14\": {\"In\": 1}, \"15\": {\"In\": 1}, \"16\": {\"O\": 1}, \"17\": {\"O\": 1}, \"18\": {\"O\": 1}, \"19\": {\"O\": 1}, \"20\": {\"O\": 1}, \"21\": {\"O\": 1}, \"22\": {\"O\": 1}, \"23\": {\"O\": 1}, \"24\": {\"O\": 1}, \"25\": {\"O\": 1}, \"26\": {\"O\": 1}, \"27\": {\"O\": 1}, \"28\": {\"O\": 1}, \"29\": {\"O\": 1}, \"30\": {\"O\": 1}, \"31\": {\"O\": 1}, \"32\": {\"O\": 1}, \"33\": {\"O\": 1}, \"34\": {\"O\": 1}, \"35\": {\"O\": 1}, \"36\": {\"O\": 1}, \"37\": {\"O\": 1}, \"38\": {\"O\": 1}, \"39\": {\"O\": 1}}" n_minim_iter=3 energy=-45151.420278113415 stress="0.06335178357755533 -1.1252984366903283e-12 -7.465233086193207e-13 -1.1252984366903283e-12 0.063351783580833 1.813106951103085e-13 -7.465233086193207e-13 1.813106951103085e-13 0.06335178357955501" free_energy=-45151.420278113415 pbc="T T T"
In      -4.53449917       3.20637511       5.90631445        0       0.00183180      -0.00129528       0.00224348
In       7.65349408       1.20454979       1.73363158        1      -0.00183180       0.00129528      -0.00224348
In       1.41550426      -1.00091266       5.55360460        2      -0.00183180       0.00129528      -0.00224348
In      -1.55949746      -2.20546245       3.81997302        3      -0.00000000       0.00000000       0.00000000
In      -1.41550426       4.30910634       3.64361809        4       0.00183180      -0.00129528      -0.00224348
In       4.82248556      -3.10455655       5.72995953        5       0.00183180       0.00259055      -0.00000000
In      -1.41550426       1.30636835       5.72995953        6       0.00183180       0.00259055       0.00000000
In      -1.70349065       7.51548145       1.90998651        7      -0.00183180      -0.00259055       0.00000000
In       4.53449917       0.10181857       3.99632794        8      -0.00183180       0.00129527       0.00224348
In      -1.55949746       4.41092490      -0.00000000        9      -0.00000000      -0.00000000       0.00000000
In       4.53449917       6.71820592       0.17635492       10      -0.00183180       0.00129528       0.00224348
In      -1.41550426      -2.30728101       7.46359111       11       0.00183180      -0.00129528      -0.00224348
In       4.53449917       3.10455655       1.90998651       12      -0.00183180      -0.00259055      -0.00000000
In       1.70349065       5.41183757       2.08634143       13       0.00183180      -0.00129528       0.00224348
In       4.67849236       0.00000000      -0.00000000       14       0.00000000       0.00000000      -0.00000000
In       1.55949745       2.20546245       3.81997302       15       0.00000000       0.00000000       0.00000000
O        0.83564726       4.40535688       4.08408581       16       0.00835579       0.00201082      -0.00005328
O       -2.28334765       3.53970608       5.60272518       17       0.00835579      -0.00105155      -0.00171478
O       -0.54809348       2.31269609       0.08802278       18       0.00368967       0.00224790      -0.00742959
O       -0.83564726      -0.87678685       2.04686495       19      -0.00835579       0.00095927      -0.00176806
O        4.09838277       5.33853173       1.95884216       20      -0.00377668      -0.00524874       0.00566153
O        2.13960704       3.17832124       1.78275216       21       0.00377668      -0.00752740      -0.00171478
O        2.13960704       6.57113540       0.17609000       22       0.00377668       0.00227866       0.00737631
O       -2.36312861       6.36223615       3.90799580       23      -0.00088945      -0.00422796      -0.00742959
O        3.66708839       2.09822882       7.55192325       24      -0.00368967      -0.00224790       0.00742959
O        5.48212351      -1.95131124       3.73195023       25       0.00088945       0.00422796       0.00742959
O        6.78608330       3.43804047       1.86113085       26      -0.00368967      -0.00531027      -0.00566153
O        3.87486121       2.40876803       3.99606302       27      -0.00088945      -0.00432024       0.00737631
O        0.75586630       4.46177054       7.37583324       28      -0.00088945       0.00854819       0.00005328
O        2.36312860      -0.05084563       0.26411279       29       0.00088945      -0.00854819      -0.00005328
O       -3.66708839       0.97288444       5.77881518       30       0.00368967       0.00531027       0.00566153
O        5.40234256       0.87121883       2.03722086       31      -0.00835579       0.00105155       0.00171478
O        0.97938787       1.23260367       5.85719387       32      -0.00377668       0.00752740       0.00171478
O        3.66708839      -1.12534437       5.86683797       33      -0.00368967       0.00755816      -0.00176806
O        2.28334765       0.00556802       3.55586022       34      -0.00835579      -0.00201082       0.00005328
O        0.97938787      -2.16021049       7.46385603       35      -0.00377668      -0.00227866      -0.00737631
O       -0.75586630       2.00215688       3.64388301       36       0.00088945       0.00432024      -0.00737631
O       -0.97938787      -0.92760682       5.68110387       37       0.00377668       0.00524874      -0.00566153
O       -0.54809348       5.53626928       1.77310806       38       0.00368967      -0.00755816       0.00176806
O        3.95464217       5.28771175       5.59308108       39       0.00835579      -0.00095927       0.00176806
