40
Lattice="9.206039223095209 7.215446687582322e-10 -1.8429686284312167e-15 -3.0686797417120117 8.679537016452759 -1.2497531213108559e-09 -3.068679740691596 -4.339768507504842 7.516699550168648" Properties=species:S:1:pos:R:3:spacegroup_kinds:I:1:forces:R:3 spacegroup="P 1" unit_cell=conventional occupancy="_JSON {\"0\": {\"In\": 1}, \"1\": {\"In\": 1}, \"2\": {\"In\": 1}, \"3\": {\"In\": 1}, \"4\": {\"In\": 1}, \"5\": {\"In\": 1}, \"6\": {\"In\": 1}, \"7\": {\"In\": 1}, \"8\": {\"In\": 1}, \"9\": {\"In\": 1}, \"10\": {\"In\": 1}, \"11\": {\"In\": 1}, \"12\": {\"In\": 1}, \"13\": {\"In\": 1}, \"14\": {\"In\": 1}, \"15\": {\"In\": 1}, \"16\": {\"O\": 1}, \"17\": {\"O\": 1}, \"18\": {\"O\": 1}, \"19\": {\"O\": 1}, \"20\": {\"O\": 1}, \"21\": {\"O\": 1}, \"22\": {\"O\": 1}, \"23\": {\"O\": 1}, \"24\": {\"O\": 1}, \"25\": {\"O\": 1}, \"26\": {\"O\": 1}, \"27\": {\"O\": 1}, \"28\": {\"O\": 1}, \"29\": {\"O\": 1}, \"30\": {\"O\": 1}, \"31\": {\"O\": 1}, \"32\": {\"O\": 1}, \"33\": {\"O\": 1}, \"34\": {\"O\": 1}, \"35\": {\"O\": 1}, \"36\": {\"O\": 1}, \"37\": {\"O\": 1}, \"38\": {\"O\": 1}, \"39\": {\"O\": 1}}" n_minim_iter=11 energy=-45152.309320226275 stress="-1.05358371366685e-05 -1.2835886602050724e-12 1.6230691022501938e-12 -1.2835886602050724e-12 -1.0535836771021595e-05 -1.729863100576174e-12 1.6230691022501938e-12 -1.729863100576174e-12 -1.0535837496622469e-05" free_energy=-45152.309320226275 pbc="T T T"
In      -4.45360226       3.14917236       5.82052280        0      -0.00491437       0.00347498      -0.00601885
In       7.52228199       1.19059616       1.69617674        1       0.00491437      -0.00347498       0.00601885
In       1.38492251      -0.97928810       5.45452652        2       0.00491437      -0.00347498       0.00601885
In      -1.53433987      -2.16988425       3.75834977        3      -0.00000000      -0.00000000      -0.00000000
In      -1.38492251       4.23411448       3.57535163        4      -0.00491437       0.00347498       0.00601885
In       4.75243697      -3.04351832       5.63752466        5      -0.00491437      -0.00694997      -0.00000000
In      -1.38492251       1.29625018       5.63752466        6      -0.00491437      -0.00694997       0.00000000
In      -1.68375723       7.38328684       1.87917488        7       0.00491437       0.00694997       0.00000000
In       4.45360225       0.10565403       3.94134792        8       0.00491437      -0.00347498      -0.00601885
In      -1.53433987       4.33976851      -0.00000000        9       0.00000000       0.00000000      -0.00000000
In       4.45360225       6.61530679       0.18299814       10       0.00491437      -0.00347498      -0.00601885
In      -1.38492251      -2.27553828       7.33370140       11      -0.00491437       0.00347498       0.00601885
In       4.45360225       3.04351833       1.87917488       12       0.00491437       0.00694997       0.00000000
In       1.68375723       5.31905661       2.06217303       13      -0.00491437       0.00347498      -0.00601885
In       4.60301961       0.00000000      -0.00000000       14      -0.00000000       0.00000000       0.00000000
In       1.53433987       2.16988426       3.75834977       15      -0.00000000       0.00000000       0.00000000
O        0.82575444       4.33176668       4.05084774       16       0.00163298      -0.00676967      -0.00348575
O       -2.24292530       3.51213797       5.49820546       17       0.00163298       0.00036609       0.00760558
O       -0.51259028       2.28860634       0.10072487       18      -0.00549303       0.00540493      -0.00112196
O       -0.82575444      -0.83563237       2.03235366       19      -0.00163298      -0.00640358       0.00411983
O        4.05891720       5.23355441       1.93162879       20      -0.00019918       0.00575582       0.00524179
O        2.07844228       3.11382186       1.73985569       21       0.00019918      -0.00166162       0.00760558
O        2.07844228       6.45950107       0.19177310       22       0.00019918       0.00741743      -0.00236379
O       -2.32858217       6.23005873       3.85907464       23      -0.00692683       0.00337723      -0.00112196
O        3.58127002       2.05116217       7.41597468       24       0.00549303      -0.00540493       0.00112196
O        5.39726191      -1.89029022       3.65762490       25       0.00692683      -0.00337723       0.00112196
O        6.64994976       3.40141772       1.82672098       26       0.00549303       0.00173082      -0.00524179
O        3.80877731       2.39691157       3.95012287       27      -0.00692683      -0.00266026      -0.00236379
O        0.74009757       4.39233523       7.22420158       28      -0.00692683      -0.00071697       0.00348575
O        2.32858217      -0.05256672       0.29249797       29       0.00692683       0.00071697      -0.00348575
O       -3.58127002       0.93835079       5.68997857       30      -0.00549303      -0.00173082       0.00524179
O        5.31160504       0.82763054       2.01849408       31      -0.00163298      -0.00036609      -0.00760558
O        0.99023746       1.22594666       5.77684385       32      -0.00019918       0.00166162      -0.00760558
O        3.58127002      -1.11281138       5.79070343       33       0.00549303       0.00367412       0.00411983
O        2.24292530       0.00800183       3.46585180       34      -0.00163298       0.00676967       0.00348575
O        0.99023746      -2.11973255       7.32492645       35      -0.00019918      -0.00741743       0.00236379
O       -0.74009757       1.94285695       3.56657667       36       0.00692683       0.00266026       0.00236379
O       -0.99023746      -0.89378590       5.58507075       37       0.00019918      -0.00575582      -0.00524179
O       -0.51259028       5.45257989       1.72599611       38      -0.00549303      -0.00367412      -0.00411983
O        3.89443418       5.17540088       5.48434589       39       0.00163298       0.00640358      -0.00411983
