40
Lattice="8.546129771943988 6.698157704608631e-10 1.583626540064024e-14 -2.848709924612842 8.057368419299175 -1.1601924196083148e-09 -2.84870992366559 -4.028684208979745 6.977885739537004" Properties=species:S:1:pos:R:3:spacegroup_kinds:I:1:forces:R:3 spacegroup="P 1" unit_cell=conventional occupancy="_JSON {\"0\": {\"In\": 1}, \"1\": {\"In\": 1}, \"2\": {\"In\": 1}, \"3\": {\"In\": 1}, \"4\": {\"In\": 1}, \"5\": {\"In\": 1}, \"6\": {\"In\": 1}, \"7\": {\"In\": 1}, \"8\": {\"In\": 1}, \"9\": {\"In\": 1}, \"10\": {\"In\": 1}, \"11\": {\"In\": 1}, \"12\": {\"In\": 1}, \"13\": {\"In\": 1}, \"14\": {\"In\": 1}, \"15\": {\"In\": 1}, \"16\": {\"O\": 1}, \"17\": {\"O\": 1}, \"18\": {\"O\": 1}, \"19\": {\"O\": 1}, \"20\": {\"O\": 1}, \"21\": {\"O\": 1}, \"22\": {\"O\": 1}, \"23\": {\"O\": 1}, \"24\": {\"O\": 1}, \"25\": {\"O\": 1}, \"26\": {\"O\": 1}, \"27\": {\"O\": 1}, \"28\": {\"O\": 1}, \"29\": {\"O\": 1}, \"30\": {\"O\": 1}, \"31\": {\"O\": 1}, \"32\": {\"O\": 1}, \"33\": {\"O\": 1}, \"34\": {\"O\": 1}, \"35\": {\"O\": 1}, \"36\": {\"O\": 1}, \"37\": {\"O\": 1}, \"38\": {\"O\": 1}, \"39\": {\"O\": 1}}" n_minim_iter=6 energy=-45151.18564179138 stress="-0.07418469024684837 -6.971838932430789e-13 -3.3242749201539044e-13 -6.971838932430789e-13 -0.07418469025197735 1.0145218190543302e-12 -3.3242749201539044e-13 1.0145218190543302e-12 -0.07418469024836422" free_energy=-45151.18564179138 pbc="T T T"
In      -4.05771328       2.86923657       5.49716508        0      -0.00383429       0.00271125      -0.00469603
In       6.90642320       1.15944764       1.48072065        1       0.00383429      -0.00271125       0.00469603
In       1.20900335      -0.85489446       4.96966352        2       0.00383429      -0.00271125       0.00469603
In      -1.42435496      -2.01434210       3.48894287        3      -0.00000000       0.00000000      -0.00000000
In      -1.20900335       3.87640763       3.22519208        4      -0.00383429       0.00271125       0.00469603
In       4.48841650      -2.71695998       5.23341430        5      -0.00383429      -0.00542250       0.00000000
In      -1.20900335       1.31172423       5.23341430        6      -0.00383429      -0.00542250       0.00000000
In      -1.63970658       6.74564420       1.74447143        7       0.00383429       0.00542250       0.00000000
In       4.05771327       0.15227659       3.75269365        8       0.00383429      -0.00271125      -0.00469603
In      -1.42435496       4.02868421      -0.00000000        9      -0.00000000       0.00000000      -0.00000000
In       4.05771327       6.19530290       0.26375078       10       0.00383429      -0.00271125      -0.00469603
In      -1.20900335      -2.16661869       6.71413495       11      -0.00383429       0.00271125       0.00469603
In       4.05771327       2.71695999       1.74447143       12       0.00383429       0.00542250       0.00000000
In       1.63970657       4.88357868       2.00822221       13      -0.00383429       0.00271125      -0.00469603
In       4.27306488       0.00000000      -0.00000000       14       0.00000000      -0.00000000      -0.00000000
In       1.42435496       2.01434211       3.48894287       15       0.00000000       0.00000000      -0.00000000
O        0.84295965       4.02992314       3.85289175       16      -0.00089916      -0.00546429      -0.00265048
O       -2.00575027       3.33608268       5.05036692       17      -0.00089916       0.00043676       0.00605746
O       -0.37083637       2.18002397       0.07483360       18      -0.00503972       0.00336458       0.00098633
O       -0.84295965      -0.69136261       1.92537293       19       0.00089916      -0.00502753       0.00340698
O        3.81387233       4.76325202       1.85053933       20       0.00071150       0.00559699       0.00242065
O        1.88354751       2.79335404       1.56142405       21      -0.00071150       0.00070215       0.00605746
O        1.88354751       5.99858219       0.28911528       22      -0.00071150       0.00489484      -0.00363681
O       -2.17895843       5.66597954       3.56377647       23      -0.00485206       0.00362997       0.00098633
O        3.21954629       1.84866024       6.90305214       24       0.00503972      -0.00336458      -0.00098633
O        5.02766835      -1.63729533       3.41410927       25       0.00485206      -0.00362997      -0.00098633
O        6.06825621       3.16916189       1.63840353       26       0.00503972       0.00253648      -0.00242065
O        3.51846142       2.26767329       3.77805815       27      -0.00485206      -0.00096080      -0.00363681
O        0.66975149       4.15239980       6.61393685       28      -0.00485206      -0.00266917       0.00265048
O        2.17895843      -0.12371559       0.36394888       29       0.00485206       0.00266917      -0.00265048
O       -3.21954629       0.85952232       5.33948220       30      -0.00503972      -0.00253648       0.00242065
O        4.85446019       0.69260154       1.92751882       31       0.00089916      -0.00043676      -0.00605746
O        0.96516241       1.23533018       5.41646169       32       0.00071150      -0.00070215      -0.00605746
O        3.21954629      -0.98913792       5.41431580       33       0.00503972       0.00082810       0.00340698
O        2.00575027      -0.00123892       3.12499398       34       0.00089916       0.00546429       0.00265048
O        0.96516241      -1.96989798       6.68877045       35       0.00071150      -0.00489484       0.00363681
O       -0.66975150       1.76101092       3.19982758       36       0.00485206       0.00096080       0.00363681
O       -0.96516241      -0.73456781       5.12734640       37      -0.00071150      -0.00559699      -0.00242065
O       -0.37083637       5.01782213       1.56356993       38      -0.00503972      -0.00082810      -0.00340698
O        3.69166958       4.72004682       5.05251280       39      -0.00089916       0.00502753      -0.00340698
