40
Lattice="9.782876468653345 7.667542009502244e-10 1.0501286621814727e-14 -3.260958823607351 9.2233843870712 -1.3280651326966249e-09 -3.260958822523006 -4.611692192768841 7.987685188957792" Properties=species:S:1:pos:R:3:spacegroup_kinds:I:1:forces:R:3 spacegroup="P 1" unit_cell=conventional occupancy="_JSON {\"0\": {\"In\": 1}, \"1\": {\"In\": 1}, \"2\": {\"In\": 1}, \"3\": {\"In\": 1}, \"4\": {\"In\": 1}, \"5\": {\"In\": 1}, \"6\": {\"In\": 1}, \"7\": {\"In\": 1}, \"8\": {\"In\": 1}, \"9\": {\"In\": 1}, \"10\": {\"In\": 1}, \"11\": {\"In\": 1}, \"12\": {\"In\": 1}, \"13\": {\"In\": 1}, \"14\": {\"In\": 1}, \"15\": {\"In\": 1}, \"16\": {\"O\": 1}, \"17\": {\"O\": 1}, \"18\": {\"O\": 1}, \"19\": {\"O\": 1}, \"20\": {\"O\": 1}, \"21\": {\"O\": 1}, \"22\": {\"O\": 1}, \"23\": {\"O\": 1}, \"24\": {\"O\": 1}, \"25\": {\"O\": 1}, \"26\": {\"O\": 1}, \"27\": {\"O\": 1}, \"28\": {\"O\": 1}, \"29\": {\"O\": 1}, \"30\": {\"O\": 1}, \"31\": {\"O\": 1}, \"32\": {\"O\": 1}, \"33\": {\"O\": 1}, \"34\": {\"O\": 1}, \"35\": {\"O\": 1}, \"36\": {\"O\": 1}, \"37\": {\"O\": 1}, \"38\": {\"O\": 1}, \"39\": {\"O\": 1}}" n_minim_iter=1 energy=-45137.78443643618 stress="0.21911665768757 4.271560374723811e-13 1.306678543149407e-13 4.271560374723811e-13 0.2191166576869588 5.05622929329003e-13 1.306678543149407e-13 5.05622929329003e-13 0.21911665768627347" free_energy=-45137.78443643618 pbc="T T T"
In      -4.65445659       3.29119782       6.28100594        0       0.14457400      -0.10222926       0.17706627
In       7.91541541       1.32049438       1.70667924        1      -0.14457400       0.10222926      -0.17706627
In       1.39349777      -0.98535172       5.70052183        2      -0.14457400       0.10222926      -0.17706627
In      -1.63047941      -2.30584609       3.99384259        3      -0.00000000      -0.00000000      -0.00000000
In      -1.39349777       4.44412087       3.70360054        4       0.14457400      -0.10222926      -0.17706627
In       5.12841988      -3.12362649       5.99076389        5       0.14457400       0.20445852       0.00000000
In      -1.39349777       1.48806571       5.99076389        6       0.14457400       0.20445852      -0.00000000
In      -1.86746106       7.73531868       1.99692129        7      -0.14457400      -0.20445852       0.00000000
In       4.65445659       0.16757133       4.28408465        8      -0.14457400       0.10222926       0.17706627
In      -1.63047941       4.61169220      -0.00000000        9       0.00000000       0.00000000      -0.00000000
In       4.65445659       7.08510962       0.29024205       10      -0.14457400       0.10222926       0.17706627
In      -1.39349777      -2.47341742       7.69744313       11       0.14457400      -0.10222926      -0.17706627
In       4.65445659       3.12362649       1.99692129       12      -0.14457400      -0.20445852       0.00000000
In       1.86746105       5.59704392       2.28716335       13       0.14457400      -0.10222926       0.17706627
In       4.89143823       0.00000000      -0.00000000       14      -0.00000000       0.00000000       0.00000000
In       1.63047941       2.30584610       3.99384259       15       0.00000000      -0.00000000      -0.00000000
O        0.94578960       4.60851317       4.22807279       16       0.04258186       0.07100586       0.04308682
O       -2.31516922       3.66320797       5.87640191       17       0.04258186       0.00181135      -0.08303629
O       -0.58197352       2.43765353       0.01143926       18       0.08284668      -0.02666018      -0.03372216
O       -0.94578960      -0.95166326       2.11678951       19      -0.04258186       0.07281721      -0.03994947
O        4.22542866       5.56995992       2.10535025       20      -0.01248620      -0.09228671      -0.00622731
O        2.29648898       3.26753925       1.88255931       21       0.01248620      -0.04075035      -0.08303629
O        2.29648898       6.91411286       0.22279093       22       0.01248620      -0.05153637       0.07680898
O       -2.49223297       6.65367701       4.00528185       23       0.05275102      -0.06922187      -0.03372216
O        3.84293234       2.17403866       7.97624592       24      -0.08284668       0.02666018       0.03372216
O        5.75319179      -2.04198482       3.98240333       25      -0.05275102       0.06922187       0.03372216
O        7.10389117       3.53457956       1.88849234       26      -0.08284668      -0.04253434       0.00622731
O        4.02968468       2.44768343       4.21663353       27       0.05275102       0.00540669       0.07680898
O        0.76872586       4.73371614       7.75345498       28       0.05275102       0.06381519      -0.04308682
O        2.49223296      -0.12202394       0.23423020       29      -0.05275102      -0.06381519       0.04308682
O       -3.84293235       1.07711264       6.09919284       30       0.08284668       0.04253434      -0.00622731
O        5.57612804       0.94848423       2.11128328       31      -0.04258186      -0.00181135       0.08303629
O        0.96446984       1.34415295       6.10512587       32      -0.01248620       0.04075035       0.08303629
O        3.84293234      -1.09692602       6.11063211       33      -0.08284668       0.01587416      -0.03994947
O        2.31516922       0.00317903       3.75961239       34      -0.04258186      -0.07100586      -0.04308682
O        0.96446984      -2.30242066       7.76489425       35      -0.01248620       0.05153637      -0.07680898
O       -0.76872586       2.16400877       3.77105165       36      -0.05275102      -0.00540669      -0.07680898
O       -0.96446984      -0.95826772       5.88233493       37       0.01248620       0.09228671       0.00622731
O       -0.58197353       5.70861822       1.87705307       38       0.08284668      -0.01587416       0.03994947
O        4.20674842       5.56335545       5.87089567       39       0.04258186      -0.07281721       0.03994947
40
Lattice="9.782876468653361 7.667542009502259e-10 1.0501286621814787e-14 -3.260958823607358 9.223384387071215 -1.328065132696627e-09 -3.2609588225230133 -4.611692192768849 7.987685188957806" Properties=species:S:1:pos:R:3:spacegroup_kinds:I:1:forces:R:3 spacegroup="P 1" unit_cell=conventional occupancy="_JSON {\"0\": {\"In\": 1}, \"1\": {\"In\": 1}, \"2\": {\"In\": 1}, \"3\": {\"In\": 1}, \"4\": {\"In\": 1}, \"5\": {\"In\": 1}, \"6\": {\"In\": 1}, \"7\": {\"In\": 1}, \"8\": {\"In\": 1}, \"9\": {\"In\": 1}, \"10\": {\"In\": 1}, \"11\": {\"In\": 1}, \"12\": {\"In\": 1}, \"13\": {\"In\": 1}, \"14\": {\"In\": 1}, \"15\": {\"In\": 1}, \"16\": {\"O\": 1}, \"17\": {\"O\": 1}, \"18\": {\"O\": 1}, \"19\": {\"O\": 1}, \"20\": {\"O\": 1}, \"21\": {\"O\": 1}, \"22\": {\"O\": 1}, \"23\": {\"O\": 1}, \"24\": {\"O\": 1}, \"25\": {\"O\": 1}, \"26\": {\"O\": 1}, \"27\": {\"O\": 1}, \"28\": {\"O\": 1}, \"29\": {\"O\": 1}, \"30\": {\"O\": 1}, \"31\": {\"O\": 1}, \"32\": {\"O\": 1}, \"33\": {\"O\": 1}, \"34\": {\"O\": 1}, \"35\": {\"O\": 1}, \"36\": {\"O\": 1}, \"37\": {\"O\": 1}, \"38\": {\"O\": 1}, \"39\": {\"O\": 1}}" n_minim_iter=2 energy=-45137.85468870483 stress="0.21219443482743366 2.4472534786126076e-13 6.491421543076375e-13 2.4472534786126076e-13 0.2121944348291373 9.234882602440959e-14 6.491421543076375e-13 9.234882602440959e-14 0.21219443482647127" free_energy=-45137.85468870483 pbc="T T T"
In      -4.63319041       3.27616036       6.30705159        0       0.01608107      -0.01137104       0.01969521
In       7.89414923       1.33553184       1.68063359        1      -0.01608107       0.01137104      -0.01969521
In       1.37223158      -0.97031426       5.67447619        2      -0.01608107       0.01137104      -0.01969521
In      -1.63047941      -2.30584609       3.99384259        3       0.00000000       0.00000000      -0.00000000
In      -1.37223159       4.42908341       3.67755489        4       0.01608107      -0.01137104      -0.01969521
In       5.14968606      -3.09355156       5.99076389        5       0.01608107       0.02274207       0.00000000
In      -1.37223159       1.51814063       5.99076389        6       0.01608107       0.02274207      -0.00000000
In      -1.88872724       7.70524376       1.99692129        7      -0.01608107      -0.02274207      -0.00000000
In       4.63319041       0.18260879       4.31013029        8      -0.01608107       0.01137104       0.01969521
In      -1.63047941       4.61169220      -0.00000000        9       0.00000000       0.00000000       0.00000000
In       4.63319041       7.10014708       0.31628770       10      -0.01608107       0.01137104       0.01969521
In      -1.37223159      -2.48845488       7.67139749       11       0.01608107      -0.01137104      -0.01969521
In       4.63319041       3.09355157       1.99692129       12      -0.01608107      -0.02274207       0.00000000
In       1.88872724       5.58200645       2.31320899       13       0.01608107      -0.01137104       0.01969521
In       4.89143823       0.00000000      -0.00000000       14      -0.00000000       0.00000000      -0.00000000
In       1.63047941       2.30584610       3.99384259       15      -0.00000000       0.00000000       0.00000000
O        0.95205320       4.61895781       4.23441067       16       0.06659582      -0.07060073      -0.04913031
O       -2.30890562       3.66347441       5.86418764       17       0.06659582      -0.00724774       0.08570718
O       -0.56978715       2.43373194       0.00647888       18      -0.05119763       0.07604481      -0.05855974
O       -0.95205320      -0.94095217       2.11091313       19      -0.06659582      -0.07784847       0.03657687
O        4.22359200       5.55638496       2.10443424       20      -0.02903184       0.04403899       0.09513661
O        2.29832564       3.26154506       1.87034505       21       0.02903184      -0.06037123       0.08570718
O        2.29832564       6.90653209       0.23408919       22       0.02903184       0.10441021       0.00942942
O       -2.48447353       6.64349479       4.00032148       23      -0.08876161       0.02292132      -0.05855974
O        3.83074597       2.17796026       7.98120630       24       0.05119763      -0.07604481       0.05855974
O        5.74543235      -2.03180259       3.98736371       25       0.08876161      -0.02292132       0.05855974
O        7.09170480       3.52832295       1.88940835       26       0.05119763      -0.01269182      -0.09513661
O        4.03744411       2.44847873       4.22793178       27      -0.08876161      -0.06217488       0.00942942
O        0.77648529       4.74310307       7.74711711       28      -0.08876161       0.03925356       0.04913031
O        2.48447353      -0.13141087       0.24056808       29       0.08876161      -0.03925356      -0.04913031
O       -3.83074598       1.08336925       6.09827684       30      -0.05119763       0.01269182       0.09513661
O        5.56986444       0.94821779       2.12349754       31      -0.06659582       0.00724774      -0.08570718
O        0.96263318       1.35014714       6.11734013       32      -0.02903184       0.06037123      -0.08570718
O        3.83074597      -1.09459100       6.10475572       33       0.05119763       0.08873663       0.03657687
O        2.30890562      -0.00726561       3.75327451       34      -0.06659582       0.07060073       0.04913031
O        0.96263318      -2.29483989       7.75359599       35      -0.02903184      -0.10441021      -0.00942942
O       -0.77648530       2.16321347       3.75975340       36       0.08876161       0.06217488      -0.00942942
O       -0.96263318      -0.94469276       5.88325094       37       0.02903184      -0.04403899      -0.09513661
O       -0.56978715       5.70628320       1.88292946       38      -0.05119763      -0.08873663      -0.03657687
O        4.21301202       5.55264437       5.87677206       39       0.06659582       0.07784847      -0.03657687
40
Lattice="9.782876468653377 7.667542009502276e-10 1.0501286621814809e-14 -3.2609588236073637 9.223384387071231 -1.3280651326966294e-09 -3.260958822523019 -4.611692192768857 7.987685188957822" Properties=species:S:1:pos:R:3:spacegroup_kinds:I:1:forces:R:3 spacegroup="P 1" unit_cell=conventional occupancy="_JSON {\"0\": {\"In\": 1}, \"1\": {\"In\": 1}, \"2\": {\"In\": 1}, \"3\": {\"In\": 1}, \"4\": {\"In\": 1}, \"5\": {\"In\": 1}, \"6\": {\"In\": 1}, \"7\": {\"In\": 1}, \"8\": {\"In\": 1}, \"9\": {\"In\": 1}, \"10\": {\"In\": 1}, \"11\": {\"In\": 1}, \"12\": {\"In\": 1}, \"13\": {\"In\": 1}, \"14\": {\"In\": 1}, \"15\": {\"In\": 1}, \"16\": {\"O\": 1}, \"17\": {\"O\": 1}, \"18\": {\"O\": 1}, \"19\": {\"O\": 1}, \"20\": {\"O\": 1}, \"21\": {\"O\": 1}, \"22\": {\"O\": 1}, \"23\": {\"O\": 1}, \"24\": {\"O\": 1}, \"25\": {\"O\": 1}, \"26\": {\"O\": 1}, \"27\": {\"O\": 1}, \"28\": {\"O\": 1}, \"29\": {\"O\": 1}, \"30\": {\"O\": 1}, \"31\": {\"O\": 1}, \"32\": {\"O\": 1}, \"33\": {\"O\": 1}, \"34\": {\"O\": 1}, \"35\": {\"O\": 1}, \"36\": {\"O\": 1}, \"37\": {\"O\": 1}, \"38\": {\"O\": 1}, \"39\": {\"O\": 1}}" n_minim_iter=3 energy=-45137.8750446495 stress="0.21066907919677852 -3.4632155680250083e-13 -1.0645785116246919e-12 -3.4632155680250083e-13 0.21066907919727254 2.6603580373509856e-13 -1.0645785116246919e-12 2.6603580373509856e-13 0.2106690791968446" free_energy=-45137.8750446495 pbc="T T T"
In      -4.62868246       3.27297276       6.31257267        0       0.01511269      -0.01068629       0.01850919
In       7.88964128       1.33871944       1.67511251        1      -0.01511269       0.01068629      -0.01850919
In       1.36772364      -0.96712666       5.66895510        2      -0.01511269       0.01068629      -0.01850919
In      -1.63047941      -2.30584609       3.99384259        3      -0.00000000      -0.00000000       0.00000000
In      -1.36772364       4.42589581       3.67203381        4       0.01511269      -0.01068629      -0.01850919
In       5.15419401      -3.08717637       5.99076389        5       0.01511269       0.02137257       0.00000000
In      -1.36772364       1.52451583       5.99076389        6       0.01511269       0.02137257       0.00000000
In      -1.89323519       7.69886856       1.99692129        7      -0.01511269      -0.02137257      -0.00000000
In       4.62868246       0.18579639       4.31565138        8      -0.01511269       0.01068629       0.01850919
In      -1.63047941       4.61169220      -0.00000000        9       0.00000000      -0.00000000      -0.00000000
In       4.62868246       7.10333468       0.32180878       10      -0.01511269       0.01068629       0.01850919
In      -1.36772364      -2.49164248       7.66587640       11       0.01511269      -0.01068629      -0.01850919
In       4.62868246       3.08717637       1.99692129       12      -0.01511269      -0.02137257      -0.00000000
In       1.89323518       5.57881886       2.31873008       13       0.01511269      -0.01068629       0.01850919
In       4.89143823       0.00000000      -0.00000000       14       0.00000000       0.00000000       0.00000000
In       1.63047941       2.30584610       3.99384259       15      -0.00000000       0.00000000       0.00000000
O        0.96204450       4.61017789       4.22820212       16       0.01439620       0.02710032      -0.00212327
O       -2.29891432       3.66248761       5.87489556       17       0.01439620      -0.01538897      -0.02240793
O       -0.57566487       2.44396624      -0.00224871       18       0.01584030      -0.01641010      -0.02063928
O       -0.96204451      -0.95071890       2.11541249       19      -0.01439620       0.01171135      -0.02453120
O        4.21933120       5.56111280       2.11766120       20      -0.01930759      -0.02362744      -0.00389192
O        2.30258644       3.25245410       1.88105296       21       0.01930759      -0.00844322      -0.02240793
O        2.30258644       6.92035090       0.23660823       22       0.01930759      -0.01518423       0.01851600
O       -2.49608176       6.64562493       3.99159388       23       0.02075169      -0.00946435      -0.02063928
O        3.83662369       2.16772596       7.98993390       24      -0.01584030       0.01641010       0.02063928
O        5.75704058      -2.03393273       3.99609130       25      -0.02075169       0.00946435       0.02063928
O        7.09758252       3.52588178       1.87618139       26      -0.01584030      -0.02607919       0.00389192
O        4.02583589       2.43985534       4.23045083       27       0.02075169      -0.01314196       0.01851600
O        0.76487707       4.74959632       7.75332566       28       0.02075169       0.02260631       0.00212327
O        2.49608175      -0.13790412       0.23435952       29      -0.02075169      -0.02260631      -0.00212327
O       -3.83662370       1.08581042       6.11150379       30       0.01584030       0.02607919      -0.00389192
O        5.55987314       0.94920459       2.11278963       31      -0.01439620       0.01538897       0.02240793
O        0.95837237       1.35923810       6.10663222       32      -0.01930759       0.00844322       0.02240793
O        3.83662369      -1.08191554       6.10925508       33      -0.01584030       0.00966909      -0.02453120
O        2.29891432       0.00151431       3.75948307       34      -0.01439620      -0.02710032       0.00212327
O        0.95837238      -2.30865870       7.75107695       35      -0.01930759       0.01518423      -0.01851600
O       -0.76487707       2.17183686       3.75723435       36      -0.02075169       0.01314196      -0.01851600
O       -0.95837238      -0.94942060       5.87002398       37       0.01930759       0.02362744       0.00389192
O       -0.57566488       5.69360773       1.87843010       38       0.01584030      -0.00966909       0.02453120
O        4.22300333       5.56241110       5.87227269       39       0.01439620      -0.01171135       0.02453120
40
Lattice="9.782876468653383 7.667542009502277e-10 1.0501286621814784e-14 -3.2609588236073646 9.223384387071237 -1.3280651326966296e-09 -3.26095882252302 -4.611692192768859 7.9876851889578235" Properties=species:S:1:pos:R:3:spacegroup_kinds:I:1:forces:R:3 spacegroup="P 1" unit_cell=conventional occupancy="_JSON {\"0\": {\"In\": 1}, \"1\": {\"In\": 1}, \"2\": {\"In\": 1}, \"3\": {\"In\": 1}, \"4\": {\"In\": 1}, \"5\": {\"In\": 1}, \"6\": {\"In\": 1}, \"7\": {\"In\": 1}, \"8\": {\"In\": 1}, \"9\": {\"In\": 1}, \"10\": {\"In\": 1}, \"11\": {\"In\": 1}, \"12\": {\"In\": 1}, \"13\": {\"In\": 1}, \"14\": {\"In\": 1}, \"15\": {\"In\": 1}, \"16\": {\"O\": 1}, \"17\": {\"O\": 1}, \"18\": {\"O\": 1}, \"19\": {\"O\": 1}, \"20\": {\"O\": 1}, \"21\": {\"O\": 1}, \"22\": {\"O\": 1}, \"23\": {\"O\": 1}, \"24\": {\"O\": 1}, \"25\": {\"O\": 1}, \"26\": {\"O\": 1}, \"27\": {\"O\": 1}, \"28\": {\"O\": 1}, \"29\": {\"O\": 1}, \"30\": {\"O\": 1}, \"31\": {\"O\": 1}, \"32\": {\"O\": 1}, \"33\": {\"O\": 1}, \"34\": {\"O\": 1}, \"35\": {\"O\": 1}, \"36\": {\"O\": 1}, \"37\": {\"O\": 1}, \"38\": {\"O\": 1}, \"39\": {\"O\": 1}}" n_minim_iter=4 energy=-45137.87660093807 stress="0.20934758272376308 4.584529198042829e-13 -2.5975491563711154e-13 4.584529198042829e-13 0.2093475827225222 -2.8546944099470846e-13 -2.5975491563711154e-13 -2.8546944099470846e-13 0.2093475827248674" free_energy=-45137.87660093807 pbc="T T T"
In      -4.62524424       3.27054157       6.31678362        0      -0.00545720       0.00385882      -0.00668367
In       7.88620306       1.34115063       1.67090156        1       0.00545720      -0.00385882       0.00668367
In       1.36428541      -0.96469547       5.66474416        2       0.00545720      -0.00385882       0.00668367
In      -1.63047941      -2.30584609       3.99384259        3       0.00000000      -0.00000000      -0.00000000
In      -1.36428542       4.42346462       3.66782286        4      -0.00545720       0.00385882       0.00668367
In       5.15763223      -3.08231398       5.99076389        5      -0.00545720      -0.00771764      -0.00000000
In      -1.36428542       1.52937821       5.99076389        6      -0.00545720      -0.00771764      -0.00000000
In      -1.89667341       7.69400618       1.99692129        7       0.00545720       0.00771764      -0.00000000
In       4.62524424       0.18822758       4.31986232        8       0.00545720      -0.00385882      -0.00668367
In      -1.63047941       4.61169220      -0.00000000        9      -0.00000000      -0.00000000       0.00000000
In       4.62524423       7.10576587       0.32601973       10       0.00545720      -0.00385882      -0.00668367
In      -1.36428542      -2.49407367       7.66166545       11      -0.00545720       0.00385882       0.00668367
In       4.62524424       3.08231399       1.99692129       12       0.00545720       0.00771764      -0.00000000
In       1.89667341       5.57638766       2.32294103       13      -0.00545720       0.00385882      -0.00668367
In       4.89143823       0.00000000      -0.00000000       14       0.00000000      -0.00000000      -0.00000000
In       1.63047941       2.30584610       3.99384259       15       0.00000000      -0.00000000       0.00000000
O        0.96408687       4.61102711       4.22835875       16       0.00869306       0.01219323      -0.00492585
O       -2.29687195       3.66219864       5.87408178       17       0.00869306      -0.01036253      -0.00809672
O       -0.57445586       2.44426654      -0.00408313       18       0.00462369      -0.00748505      -0.01308066
O       -0.96408687      -0.95015863       2.11475535       19      -0.00869306       0.00183070      -0.01302257
O        4.21837797       5.55949344       2.11883848       20      -0.01266757      -0.00938283       0.00005809
O        2.30353967       3.25062486       1.88023919       21       0.01266757      -0.00474172      -0.00809672
O        2.30353967       6.92056077       0.23859929       22       0.01266757      -0.00464110       0.00815481
O       -2.49596189       6.64438496       3.98975946       23       0.00859820      -0.00186424      -0.01308066
O        3.83541468       2.16742565       7.99176831       24      -0.00462369       0.00748505       0.01308066
O        5.75692071      -2.03269276       3.99792572       25      -0.00859820       0.00186424       0.01308066
O        7.09637351       3.52444328       1.87500411       26      -0.00462369      -0.01507071      -0.00005809
O        4.02595576       2.43888667       4.23244188       27       0.00859820      -0.01039607       0.00815481
O        0.76499694       4.75180496       7.75316902       28       0.00859820       0.01226031       0.00492585
O        2.49596188      -0.14011276       0.23451616       29      -0.00859820      -0.01226031      -0.00492585
O       -3.83541469       1.08724892       6.11268107       30       0.00462369       0.01507071       0.00005809
O        5.55783077       0.94949356       2.11360340       31      -0.00869306       0.01036253       0.00809672
O        0.95741915       1.36106734       6.10744599       32      -0.01266757       0.00474172       0.00809672
O        3.83541468      -1.08017673       6.10859795       33      -0.00462369       0.00758566      -0.01302257
O        2.29687195       0.00066508       3.75932643       34      -0.00869306      -0.01219323       0.00492585
O        0.95741915      -2.30886857       7.74908590       35      -0.01266757       0.00464110      -0.00815481
O       -0.76499694       2.17280552       3.75524330       36      -0.00859820       0.01039607      -0.00815481
O       -0.95741915      -0.94780124       5.86884670       37       0.01266757       0.00938283      -0.00005809
O       -0.57445586       5.69186893       1.87908724       38       0.00462369      -0.00758566       0.01302257
O        4.22504569       5.56185083       5.87292983       39       0.00869306      -0.00183070       0.01302257
40
Lattice="9.782876468653376 7.667542009502272e-10 1.0501286621814806e-14 -3.2609588236073623 9.22338438707123 -1.3280651326966286e-09 -3.2609588225230177 -4.611692192768856 7.987685188957818" Properties=species:S:1:pos:R:3:spacegroup_kinds:I:1:forces:R:3 spacegroup="P 1" unit_cell=conventional occupancy="_JSON {\"0\": {\"In\": 1}, \"1\": {\"In\": 1}, \"2\": {\"In\": 1}, \"3\": {\"In\": 1}, \"4\": {\"In\": 1}, \"5\": {\"In\": 1}, \"6\": {\"In\": 1}, \"7\": {\"In\": 1}, \"8\": {\"In\": 1}, \"9\": {\"In\": 1}, \"10\": {\"In\": 1}, \"11\": {\"In\": 1}, \"12\": {\"In\": 1}, \"13\": {\"In\": 1}, \"14\": {\"In\": 1}, \"15\": {\"In\": 1}, \"16\": {\"O\": 1}, \"17\": {\"O\": 1}, \"18\": {\"O\": 1}, \"19\": {\"O\": 1}, \"20\": {\"O\": 1}, \"21\": {\"O\": 1}, \"22\": {\"O\": 1}, \"23\": {\"O\": 1}, \"24\": {\"O\": 1}, \"25\": {\"O\": 1}, \"26\": {\"O\": 1}, \"27\": {\"O\": 1}, \"28\": {\"O\": 1}, \"29\": {\"O\": 1}, \"30\": {\"O\": 1}, \"31\": {\"O\": 1}, \"32\": {\"O\": 1}, \"33\": {\"O\": 1}, \"34\": {\"O\": 1}, \"35\": {\"O\": 1}, \"36\": {\"O\": 1}, \"37\": {\"O\": 1}, \"38\": {\"O\": 1}, \"39\": {\"O\": 1}}" n_minim_iter=5 energy=-45137.876874898626 stress="0.2095932448409734 1.0981707189375818e-13 1.4072808500138406e-13 1.0981707189375818e-13 0.20959324483793368 1.045177241938236e-13 1.4072808500138406e-13 1.045177241938236e-13 0.2095932448392991" free_energy=-45137.876874898626 pbc="T T T"
In      -4.62601309       3.27108523       6.31584197        0      -0.00273971       0.00193727      -0.00335545
In       7.88697191       1.34060697       1.67184321        1       0.00273971      -0.00193727       0.00335545
In       1.36505427      -0.96523913       5.66568581        2       0.00273971      -0.00193727       0.00335545
In      -1.63047941      -2.30584609       3.99384259        3      -0.00000000       0.00000000       0.00000000
In      -1.36505427       4.42400828       3.66876451        4      -0.00273971       0.00193727       0.00335545
In       5.15686338      -3.08340130       5.99076389        5      -0.00273971      -0.00387454      -0.00000000
In      -1.36505427       1.52829089       5.99076389        6      -0.00273971      -0.00387454      -0.00000000
In      -1.89590456       7.69509350       1.99692129        7       0.00273971       0.00387454       0.00000000
In       4.62601309       0.18768392       4.31892067        8       0.00273971      -0.00193727      -0.00335545
In      -1.63047941       4.61169220      -0.00000000        9       0.00000000       0.00000000      -0.00000000
In       4.62601309       7.10522221       0.32507808       10       0.00273971      -0.00193727      -0.00335545
In      -1.36505427      -2.49353001       7.66260710       11      -0.00273971       0.00193727       0.00335545
In       4.62601309       3.08340131       1.99692129       12       0.00273971       0.00387454       0.00000000
In       1.89590455       5.57693133       2.32199938       13      -0.00273971       0.00193727      -0.00335545
In       4.89143823       0.00000000      -0.00000000       14      -0.00000000       0.00000000       0.00000000
In       1.63047941       2.30584610       3.99384259       15      -0.00000000      -0.00000000      -0.00000000
O        0.96410924       4.61234926       4.22831591       16       0.00959174      -0.00250752       0.00058142
O       -2.29684958       3.66150046       5.87295819       17       0.00959174       0.00175729       0.00188086
O       -0.57386012       2.44316293      -0.00450449       18       0.00248992       0.00677903      -0.00681706
O       -0.96410925      -0.94953466       2.11358892       19      -0.00959174      -0.00075023       0.00246229
O        4.21771226       5.55862619       2.11809341       20      -0.00154046      -0.00318560       0.00927934
O        2.30420538       3.25083649       1.87911560       21       0.00154046      -0.00962895       0.00188086
O        2.30420538       6.91948189       0.23897781       22       0.00154046       0.00644335       0.00739848
O       -2.49472281       6.64419116       3.98933810       23      -0.00556136      -0.00460720      -0.00681706
O        3.83481894       2.16852927       7.99218968       24      -0.00248992      -0.00677903       0.00681706
O        5.75568163      -2.03249896       3.99834708       25       0.00556136       0.00460720       0.00681706
O        7.09577776       3.52352656       1.87574918       26      -0.00248992      -0.00251423      -0.00927934
O        4.02719484       2.43861866       4.23282040       27      -0.00556136      -0.00360014       0.00739848
O        0.76623601       4.75226677       7.75321187       28      -0.00556136       0.00820734      -0.00058142
O        2.49472281      -0.14057457       0.23447332       29       0.00556136      -0.00820734       0.00058142
O       -3.83481894       1.08816564       6.11193600       30       0.00248992       0.00251423       0.00927934
O        5.55780840       0.95019173       2.11472699       31      -0.00959174      -0.00175729      -0.00188086
O        0.95675344       1.36085571       6.10856959       32      -0.00154046       0.00962895      -0.00188086
O        3.83481894      -1.08036362       6.10743151       33      -0.00248992       0.00929326       0.00246229
O        2.29684957      -0.00065707       3.75936927       34      -0.00959174       0.00250752      -0.00058142
O        0.95675344      -2.30778969       7.74870738       35      -0.00154046      -0.00644335      -0.00739848
O       -0.76623602       2.17307353       3.75486478       36       0.00556136       0.00360014      -0.00739848
O       -0.95675344      -0.94693399       5.86959178       37       0.00154046       0.00318560      -0.00927934
O       -0.57386012       5.69205582       1.88025367       38       0.00248992      -0.00929326      -0.00246229
O        4.22506807       5.56122686       5.87409627       39       0.00959174       0.00075023      -0.00246229
