40
Lattice="8.720588546325736 6.834901724364528e-10 8.747485385330315e-15 -2.906862849419646 8.221849729165054 -1.1838690524788133e-09 -2.9068628484530525 -4.110924863899014 7.120330732344382" Properties=species:S:1:pos:R:3:spacegroup_kinds:I:1:forces:R:3 spacegroup="P 1" unit_cell=conventional occupancy="_JSON {\"0\": {\"In\": 1}, \"1\": {\"In\": 1}, \"2\": {\"In\": 1}, \"3\": {\"In\": 1}, \"4\": {\"In\": 1}, \"5\": {\"In\": 1}, \"6\": {\"In\": 1}, \"7\": {\"In\": 1}, \"8\": {\"In\": 1}, \"9\": {\"In\": 1}, \"10\": {\"In\": 1}, \"11\": {\"In\": 1}, \"12\": {\"In\": 1}, \"13\": {\"In\": 1}, \"14\": {\"In\": 1}, \"15\": {\"In\": 1}, \"16\": {\"O\": 1}, \"17\": {\"O\": 1}, \"18\": {\"O\": 1}, \"19\": {\"O\": 1}, \"20\": {\"O\": 1}, \"21\": {\"O\": 1}, \"22\": {\"O\": 1}, \"23\": {\"O\": 1}, \"24\": {\"O\": 1}, \"25\": {\"O\": 1}, \"26\": {\"O\": 1}, \"27\": {\"O\": 1}, \"28\": {\"O\": 1}, \"29\": {\"O\": 1}, \"30\": {\"O\": 1}, \"31\": {\"O\": 1}, \"32\": {\"O\": 1}, \"33\": {\"O\": 1}, \"34\": {\"O\": 1}, \"35\": {\"O\": 1}, \"36\": {\"O\": 1}, \"37\": {\"O\": 1}, \"38\": {\"O\": 1}, \"39\": {\"O\": 1}}" n_minim_iter=3 energy=-45152.0567075889 stress="0.008250117628100096 1.0116161789427816e-14 1.1094888155630731e-12 1.0116161789427816e-14 0.008250117630992848 1.6122013612666405e-12 1.1094888155630731e-12 1.6122013612666405e-12 0.008250117627165876" free_energy=-45152.0567075889 pbc="T T T"
In      -4.14092265       2.92807448       5.60892232        0      -0.00439055       0.00310459      -0.00537730
In       7.04778549       1.18285039       1.51140840        1       0.00439055      -0.00310459       0.00537730
In       1.23405979      -0.87261205       5.07157377        2       0.00439055      -0.00310459       0.00537730
In      -1.45343143      -2.05546243       3.56016536        3      -0.00000000      -0.00000000      -0.00000000
In      -1.23405980       3.95580570       3.29149108        4      -0.00439055       0.00310459       0.00537730
In       4.57966590      -2.77295531       5.34024805        5      -0.00439055      -0.00620917      -0.00000000
In      -1.23405980       1.33796955       5.34024805        6      -0.00439055      -0.00620917      -0.00000000
In      -1.67280306       6.88388018       1.78008268        7       0.00439055       0.00620917      -0.00000000
In       4.14092264       0.15511917       3.82883964        8       0.00439055      -0.00310459      -0.00537730
In      -1.45343143       4.11092487      -0.00000000        9       0.00000000       0.00000000       0.00000000
In       4.14092264       6.32150647       0.26867428       10       0.00439055      -0.00310459      -0.00537730
In      -1.23405980      -2.21058160       6.85165645       11      -0.00439055       0.00310459       0.00537730
In       4.14092264       2.77295532       1.78008268       12       0.00439055       0.00620917       0.00000000
In       1.67280305       4.98353692       2.04875696       13      -0.00439055       0.00310459      -0.00537730
In       4.36029427       0.00000000      -0.00000000       14      -0.00000000      -0.00000000       0.00000000
In       1.45343142       2.05546243       3.56016536       15       0.00000000      -0.00000000      -0.00000000
O        0.89481176       4.12302590       3.89781261       16       0.00464271      -0.00626764       0.00274764
O       -2.01205109       3.36955423       5.16094462       17       0.00464271       0.00551335       0.00405412
O       -0.38929139       2.22208985       0.02808051       18       0.00083641       0.00820480      -0.00060762
O       -0.89481176      -0.72926960       1.93842651       19      -0.00464271      -0.00075429       0.00680176
O        3.84752989       4.85640676       1.91034600       20       0.00365046       0.00040348       0.00740938
O        1.96619581       2.82925765       1.60077926       21      -0.00365046      -0.00621497       0.00405412
O        1.96619581       6.13807398       0.30956674       22      -0.00365046       0.00661845       0.00335526
O       -2.22477019       5.79271813       3.58824587       23      -0.00745676      -0.00352351      -0.00060762
O        3.29615424       1.88883502       7.09225022       24      -0.00083641      -0.00820480       0.00060762
O        5.13163304      -1.68179326       3.53208486       25       0.00745676       0.00352351       0.00060762
O        6.20301709       3.19082579       1.64981936       26      -0.00083641       0.00357618      -0.00740938
O        3.58895550       2.26661545       3.86973210       27      -0.00745676       0.00123554       0.00335526
O        0.68209265       4.27344102       6.78268348       28      -0.00745676       0.00228797      -0.00274764
O        2.22477019      -0.16251615       0.33764725       29       0.00745676      -0.00228797       0.00274764
O       -3.29615424       0.92009908       5.47051136       30       0.00083641      -0.00357618       0.00740938
O        4.91891393       0.74137064       1.95938610       31      -0.00464271      -0.00551335      -0.00405412
O        0.94066704       1.28166722       5.51955147       32       0.00365046       0.00621497      -0.00405412
O        3.29615424      -0.96873594       5.49859187       33      -0.00083641       0.00462862       0.00680175
O        2.01205109      -0.01210103       3.22251811       34      -0.00464271       0.00626764      -0.00274764
O        0.94066704      -2.02714911       6.81076399       35       0.00365046      -0.00661845      -0.00335526
O       -0.68209266       1.84430941       3.25059862       36       0.00745676      -0.00123554      -0.00335526
O       -0.94066704      -0.74548189       5.20998473       37      -0.00365046      -0.00040348      -0.00740938
O       -0.38929139       5.07966081       1.62173885       38       0.00083641      -0.00462862      -0.00680176
O        3.80167461       4.84019447       5.18190422       39       0.00464271       0.00075429      -0.00680176
