40
Lattice="9.049974510525814 7.093088987943238e-10 -4.3584135480512926e-15 -3.0166581708440123 8.53239779437451 -1.2285651480644076e-09 -3.0166581698408983 -4.266198896477938 7.389273245941684" Properties=species:S:1:pos:R:3:spacegroup_kinds:I:1:forces:R:3 spacegroup="P 1" unit_cell=conventional occupancy="_JSON {\"0\": {\"In\": 1}, \"1\": {\"In\": 1}, \"2\": {\"In\": 1}, \"3\": {\"In\": 1}, \"4\": {\"In\": 1}, \"5\": {\"In\": 1}, \"6\": {\"In\": 1}, \"7\": {\"In\": 1}, \"8\": {\"In\": 1}, \"9\": {\"In\": 1}, \"10\": {\"In\": 1}, \"11\": {\"In\": 1}, \"12\": {\"In\": 1}, \"13\": {\"In\": 1}, \"14\": {\"In\": 1}, \"15\": {\"In\": 1}, \"16\": {\"O\": 1}, \"17\": {\"O\": 1}, \"18\": {\"O\": 1}, \"19\": {\"O\": 1}, \"20\": {\"O\": 1}, \"21\": {\"O\": 1}, \"22\": {\"O\": 1}, \"23\": {\"O\": 1}, \"24\": {\"O\": 1}, \"25\": {\"O\": 1}, \"26\": {\"O\": 1}, \"27\": {\"O\": 1}, \"28\": {\"O\": 1}, \"29\": {\"O\": 1}, \"30\": {\"O\": 1}, \"31\": {\"O\": 1}, \"32\": {\"O\": 1}, \"33\": {\"O\": 1}, \"34\": {\"O\": 1}, \"35\": {\"O\": 1}, \"36\": {\"O\": 1}, \"37\": {\"O\": 1}, \"38\": {\"O\": 1}, \"39\": {\"O\": 1}}" n_minim_iter=1 energy=-45151.73649308605 stress="-0.03760951260340231 1.1178658424896875e-12 1.2482495089245487e-12 1.1178658424896875e-12 -0.03760951260530888 9.231931771018345e-13 1.2482495089245487e-12 9.231931771018345e-13 -0.03760951260466241" free_energy=-45151.73649308605 pbc="T T T"
In      -4.36597558       3.08721094       5.73670366        0       0.18246787      -0.12902426       0.22347658
In       7.38263375       1.17898796       1.65256958        1      -0.18246787       0.12902426      -0.22347658
In       1.34931741      -0.95411149       5.34720620        2      -0.18246787       0.12902426      -0.22347658
In      -1.50832909      -2.13309945       3.69463662        3      -0.00000000      -0.00000000       0.00000000
In      -1.34931741       4.15376067       3.49988789        4       0.18246787      -0.12902426      -0.22347658
In       4.68399893      -2.97477270       5.54195493        5       0.18246787       0.25804853      -0.00000000
In      -1.34931741       1.29142619       5.54195493        6       0.18246787       0.25804853      -0.00000000
In      -1.66734076       7.24097161       1.84731831        7      -0.18246787      -0.25804853       0.00000000
In       4.36597558       0.11243824       3.88938535        8      -0.18246787       0.12902426       0.22347658
In      -1.50832909       4.26619890      -0.00000000        9       0.00000000       0.00000000       0.00000000
In       4.36597558       6.51173658       0.19474873       10      -0.18246787       0.12902426       0.22347658
In      -1.34931741      -2.24553768       7.19452451       11       0.18246787      -0.12902426      -0.22347658
In       4.36597558       2.97477271       1.84731831       12      -0.18246787      -0.25804853       0.00000000
In       1.66734076       5.22031039       2.04206704       13       0.18246787      -0.12902426       0.22347658
In       4.52498725       0.00000000      -0.00000000       14      -0.00000000       0.00000000      -0.00000000
In       1.50832908       2.13309945       3.69463662       15       0.00000000       0.00000000      -0.00000000
O        0.82144443       4.25712859       3.99837540       16       0.07320798      -0.00624706       0.27903265
O       -2.19521374       3.46722983       5.39794066       17       0.07320798       0.24477289      -0.13410621
O       -0.48801203       2.26005592       0.09955396       18       0.24928697       0.12026624       0.08154563
O       -0.82144443      -0.80803938       2.00704282       19      -0.07320798       0.23852583       0.14492644
O        4.00067354       5.13171579       1.90748885       20       0.20637144      -0.19144544       0.06338080
O        2.03264280       3.04702354       1.70330404       21      -0.20637144      -0.15061211      -0.13410621
O        2.03264280       6.35089115       0.20418481       22      -0.20637144      -0.04083333       0.19748702
O       -2.29347183       6.10604852       3.79419058       23      -0.03029244      -0.27511876       0.08154563
O        3.50467019       2.00614298       7.28971928       24      -0.24928697      -0.12026624      -0.08154563
O        5.31013000      -1.83984962       3.59508266       25       0.03029244       0.27511876      -0.08154563
O        6.52132836       3.34934367       1.78714776       26      -0.24928697       0.13075371      -0.06338080
O        3.73984451       2.36594062       3.89882144       27      -0.03029244       0.20817997       0.19748702
O        0.72318634       4.32660755       7.08553446       28      -0.03029244       0.06693879      -0.27903265
O        2.29347183      -0.06040865       0.30373878       29       0.03029244      -0.06693879       0.27903265
O       -3.50467020       0.91685523       5.60212548       30       0.24928697      -0.13075371       0.06338080
O        5.21187191       0.79896907       1.99133258       31      -0.07320798      -0.24477289       0.13410621
O        0.98401537       1.21917537       5.68596920       32       0.20637144       0.15061211       0.13410621
O        3.50467019      -1.08928775       5.70167944       33      -0.24928697      -0.01048747       0.14492644
O        2.19521374       0.00907031       3.39089784       34      -0.07320798       0.00624706      -0.27903265
O        0.98401537      -2.08469225       7.18508843       35       0.20637144       0.04083333      -0.19748702
O       -0.72318634       1.90025828       3.49045180       36       0.03029244      -0.20817997      -0.19748702
O       -0.98401537      -0.86551689       5.48178439       37      -0.20637144       0.19144544      -0.06338080
O       -0.48801203       5.35548665       1.68759380       38       0.24928697       0.01048747      -0.14492644
O        3.83810260       5.07423828       5.38223042       39       0.07320798      -0.23852583      -0.14492644
40
Lattice="9.049974510525814 7.093088987943236e-10 -4.358413548051297e-15 -3.0166581708440114 8.532397794374509 -1.2285651480644072e-09 -3.0166581698408974 -4.266198896477937 7.3892732459416814" Properties=species:S:1:pos:R:3:spacegroup_kinds:I:1:forces:R:3 spacegroup="P 1" unit_cell=conventional occupancy="_JSON {\"0\": {\"In\": 1}, \"1\": {\"In\": 1}, \"2\": {\"In\": 1}, \"3\": {\"In\": 1}, \"4\": {\"In\": 1}, \"5\": {\"In\": 1}, \"6\": {\"In\": 1}, \"7\": {\"In\": 1}, \"8\": {\"In\": 1}, \"9\": {\"In\": 1}, \"10\": {\"In\": 1}, \"11\": {\"In\": 1}, \"12\": {\"In\": 1}, \"13\": {\"In\": 1}, \"14\": {\"In\": 1}, \"15\": {\"In\": 1}, \"16\": {\"O\": 1}, \"17\": {\"O\": 1}, \"18\": {\"O\": 1}, \"19\": {\"O\": 1}, \"20\": {\"O\": 1}, \"21\": {\"O\": 1}, \"22\": {\"O\": 1}, \"23\": {\"O\": 1}, \"24\": {\"O\": 1}, \"25\": {\"O\": 1}, \"26\": {\"O\": 1}, \"27\": {\"O\": 1}, \"28\": {\"O\": 1}, \"29\": {\"O\": 1}, \"30\": {\"O\": 1}, \"31\": {\"O\": 1}, \"32\": {\"O\": 1}, \"33\": {\"O\": 1}, \"34\": {\"O\": 1}, \"35\": {\"O\": 1}, \"36\": {\"O\": 1}, \"37\": {\"O\": 1}, \"38\": {\"O\": 1}, \"39\": {\"O\": 1}}" n_minim_iter=2 energy=-45151.84440662787 stress="-0.022643827665849933 -1.5926013936570911e-12 -1.4588614797594488e-13 -1.5926013936570911e-12 -0.02264382766576472 1.5496838826930849e-13 -1.4588614797594488e-13 1.5496838826930849e-13 -0.022643827665540753" free_energy=-45151.84440662787 pbc="T T T"
In      -4.35369267       3.07852561       5.75174710        0       0.04001587      -0.02829550       0.04900924
In       7.37035083       1.18767329       1.63752614        1      -0.04001587       0.02829550      -0.04900924
In       1.33703449      -0.94542616       5.33216276        2      -0.04001587       0.02829550      -0.04900924
In      -1.50832909      -2.13309945       3.69463662        3       0.00000000      -0.00000000       0.00000000
In      -1.33703450       4.14507533       3.48484445        4       0.04001587      -0.02829550      -0.04900924
In       4.69628184      -2.95740204       5.54195493        5       0.04001587       0.05659099      -0.00000000
In      -1.33703450       1.30879686       5.54195493        6       0.04001587       0.05659099      -0.00000000
In      -1.67962368       7.22360094       1.84731831        7      -0.04001587      -0.05659099       0.00000000
In       4.35369266       0.12112357       3.90442879        8      -0.04001587       0.02829550       0.04900924
In      -1.50832909       4.26619890      -0.00000000        9       0.00000000       0.00000000      -0.00000000
In       4.35369266       6.52042191       0.20979217       10      -0.04001587       0.02829550       0.04900924
In      -1.33703450      -2.25422301       7.17948107       11       0.04001587      -0.02829550      -0.04900924
In       4.35369266       2.95740204       1.84731831       12      -0.04001587      -0.05659099       0.00000000
In       1.67962367       5.21162506       2.05711048       13       0.04001587      -0.02829550       0.04900924
In       4.52498725       0.00000000      -0.00000000       14       0.00000000      -0.00000000      -0.00000000
In       1.50832908       2.13309945       3.69463662       15       0.00000000       0.00000000      -0.00000000
O        0.82637246       4.25670807       4.01715862       16       0.03293039      -0.02025541      -0.04505365
O       -2.19028571       3.48370684       5.38891323       17       0.03293039      -0.02888990       0.04006852
O       -0.47123115       2.26815170       0.10504325       18      -0.03535785       0.01939717      -0.04356715
O       -0.82637247      -0.79198289       2.01679861       19      -0.03293039      -0.04914531      -0.00498513
O        4.01456554       5.11882854       1.91175536       20      -0.03821446       0.02399181       0.03858202
O        2.01875080       3.03688501       1.69427661       21       0.03821446      -0.02141710       0.04006852
O        2.01875080       6.34814243       0.21747875       22       0.03821446       0.04540891      -0.00148651
O       -2.29551098       6.08752877       3.79967987       23      -0.03007378       0.02686997      -0.04356715
O        3.48788931       1.99804720       7.28422999       24       0.03535785      -0.01939717       0.04356715
O        5.31216915      -1.82132986       3.58959337       25       0.03007378      -0.02686997       0.04356715
O        6.50454748       3.35814542       1.78288125       26       0.03535785      -0.02803167      -0.03858202
O        3.73780536       2.37995436       3.91211537       27      -0.03007378      -0.05116524      -0.00148651
O        0.72114719       4.33111357       7.06675124       28      -0.03007378       0.02429527       0.04505365
O        2.29551098      -0.06491467       0.32252200       29       0.03007378      -0.02429527      -0.04505365
O       -3.48788932       0.90805348       5.60639199       30      -0.03535785       0.02803167       0.03858202
O        5.20694388       0.78249206       2.00036001       31      -0.03293039       0.02888990      -0.04006852
O        0.99790737       1.22931390       5.69499663       32      -0.03821446       0.02141710      -0.04006852
O        3.48788931      -1.08999372       5.71143524       33       0.03535785       0.04742884      -0.00498513
O        2.19028571       0.00949084       3.37211462       34      -0.03293039       0.02025541       0.04505365
O        0.99790737      -2.08194353       7.17179449       35      -0.03821446      -0.04540891       0.00148651
O       -0.72114719       1.88624454       3.47715787       36       0.03007378       0.05116524       0.00148651
O       -0.99790737      -0.85262964       5.47751788       37       0.03821446      -0.02399181      -0.03858202
O       -0.47123115       5.35619262       1.67783800       38      -0.03535785      -0.04742884       0.00498513
O        3.84303063       5.05818179       5.37247463       39       0.03293039       0.04914531       0.00498513
40
Lattice="9.04997451052581 7.093088987943238e-10 -4.358413548051299e-15 -3.0166581708440123 8.532397794374505 -1.2285651480644076e-09 -3.0166581698408983 -4.266198896477936 7.389273245941684" Properties=species:S:1:pos:R:3:spacegroup_kinds:I:1:forces:R:3 spacegroup="P 1" unit_cell=conventional occupancy="_JSON {\"0\": {\"In\": 1}, \"1\": {\"In\": 1}, \"2\": {\"In\": 1}, \"3\": {\"In\": 1}, \"4\": {\"In\": 1}, \"5\": {\"In\": 1}, \"6\": {\"In\": 1}, \"7\": {\"In\": 1}, \"8\": {\"In\": 1}, \"9\": {\"In\": 1}, \"10\": {\"In\": 1}, \"11\": {\"In\": 1}, \"12\": {\"In\": 1}, \"13\": {\"In\": 1}, \"14\": {\"In\": 1}, \"15\": {\"In\": 1}, \"16\": {\"O\": 1}, \"17\": {\"O\": 1}, \"18\": {\"O\": 1}, \"19\": {\"O\": 1}, \"20\": {\"O\": 1}, \"21\": {\"O\": 1}, \"22\": {\"O\": 1}, \"23\": {\"O\": 1}, \"24\": {\"O\": 1}, \"25\": {\"O\": 1}, \"26\": {\"O\": 1}, \"27\": {\"O\": 1}, \"28\": {\"O\": 1}, \"29\": {\"O\": 1}, \"30\": {\"O\": 1}, \"31\": {\"O\": 1}, \"32\": {\"O\": 1}, \"33\": {\"O\": 1}, \"34\": {\"O\": 1}, \"35\": {\"O\": 1}, \"36\": {\"O\": 1}, \"37\": {\"O\": 1}, \"38\": {\"O\": 1}, \"39\": {\"O\": 1}}" n_minim_iter=3 energy=-45151.85065131713 stress="-0.021123115686952097 1.0268743527078213e-12 1.0618245458645057e-12 1.0268743527078213e-12 -0.021123115689605843 -8.915801629256235e-13 1.0618245458645057e-12 -8.915801629256235e-13 -0.021123115687935918" free_energy=-45151.85065131713 pbc="T T T"
In      -4.34989135       3.07583767       5.75640275        0      -0.00260777       0.00184397      -0.00319385
In       7.36654951       1.19036123       1.63287049        1       0.00260777      -0.00184397       0.00319385
In       1.33323317      -0.94273822       5.32750711        2       0.00260777      -0.00184397       0.00319385
In      -1.50832909      -2.13309945       3.69463662        3       0.00000000       0.00000000      -0.00000000
In      -1.33323318       4.14238739       3.48018880        4      -0.00260777       0.00184397       0.00319385
In       4.70008316      -2.95202616       5.54195493        5      -0.00260777      -0.00368794       0.00000000
In      -1.33323318       1.31417274       5.54195493        6      -0.00260777      -0.00368794      -0.00000000
In      -1.68342500       7.21822506       1.84731831        7       0.00260777       0.00368794      -0.00000000
In       4.34989134       0.12381151       3.90908444        8       0.00260777      -0.00184397      -0.00319385
In      -1.50832909       4.26619890      -0.00000000        9       0.00000000       0.00000000       0.00000000
In       4.34989134       6.52310985       0.21444782       10       0.00260777      -0.00184397      -0.00319385
In      -1.33323318      -2.25691095       7.17482542       11      -0.00260777       0.00184397       0.00319385
In       4.34989134       2.95202616       1.84731831       12       0.00260777       0.00368794      -0.00000000
In       1.68342499       5.20893712       2.06176613       13      -0.00260777       0.00184397      -0.00319385
In       4.52498725       0.00000000      -0.00000000       14       0.00000000       0.00000000      -0.00000000
In       1.50832908       2.13309945       3.69463662       15       0.00000000       0.00000000       0.00000000
O        0.82911136       4.25521960       4.01532994       16       0.03462347       0.01911323      -0.02109155
O       -2.18754681       3.48286739       5.39111662       17       0.03462347      -0.02782244      -0.00600677
O       -0.47251296       2.27015532       0.10232229       18       0.00333004      -0.00569464      -0.04433324
O       -0.82911136      -0.79431081       2.01717332       19      -0.03462347      -0.00870920      -0.02709832
O        4.01286113       5.11958551       1.91485103       20      -0.03777240      -0.01688660       0.01723492
O        2.02045521       3.03458257       1.69648000       21       0.03777240      -0.02336918      -0.00600677
O        2.02045521       6.35120185       0.21837103       22       0.03777240       0.00648257       0.02324168
O       -2.29782729       6.08806940       3.79695891       23       0.00647897      -0.00124138      -0.04433324
O        3.48917113       1.99604358       7.28695095       24      -0.00333004       0.00569464       0.04433324
O        5.31448545      -1.82187050       3.59231433       25      -0.00647897       0.00124138       0.04433324
O        6.50582930       3.35679081       1.77978559       26      -0.00333004      -0.04124103      -0.01723492
O        3.73548906       2.37732763       3.91300765       27       0.00647897      -0.03777302       0.02324168
O        0.71883088       4.33319967       7.06857992       28       0.00647897       0.03901440       0.02109155
O        2.29782728      -0.06700077       0.32069332       29      -0.00647897      -0.03901440      -0.02109155
O       -3.48917113       0.90940809       5.60948765       30       0.00333004       0.04124103       0.01723492
O        5.20420498       0.78333152       1.99815662       31      -0.03462347       0.02782244       0.00600677
O        0.99620296       1.23161634       5.69279324       32      -0.03777240       0.02336918       0.00600677
O        3.48917113      -1.08663549       5.71180994       33      -0.00333004       0.03554639      -0.02709832
O        2.18754681       0.01097930       3.37394330       34      -0.03462347      -0.01911323       0.02109155
O        0.99620296      -2.08500294       7.17090221       35      -0.03777240      -0.00648257      -0.02324168
O       -0.71883089       1.88887128       3.47626559       36      -0.00647897       0.03777302      -0.02324168
O       -0.99620296      -0.85338661       5.47442221       37       0.03777240       0.01688660      -0.01723492
O       -0.47251296       5.35283439       1.67746330       38       0.00333004      -0.03554639       0.02709832
O        3.84576953       5.06050971       5.37209992       39       0.03462347       0.00870920       0.02709832
40
Lattice="9.049974510525809 7.093088987943234e-10 -4.358413548051315e-15 -3.0166581708440123 8.5323977943745 -1.2285651480644078e-09 -3.0166581698408983 -4.266198896477933 7.389273245941684" Properties=species:S:1:pos:R:3:spacegroup_kinds:I:1:forces:R:3 spacegroup="P 1" unit_cell=conventional occupancy="_JSON {\"0\": {\"In\": 1}, \"1\": {\"In\": 1}, \"2\": {\"In\": 1}, \"3\": {\"In\": 1}, \"4\": {\"In\": 1}, \"5\": {\"In\": 1}, \"6\": {\"In\": 1}, \"7\": {\"In\": 1}, \"8\": {\"In\": 1}, \"9\": {\"In\": 1}, \"10\": {\"In\": 1}, \"11\": {\"In\": 1}, \"12\": {\"In\": 1}, \"13\": {\"In\": 1}, \"14\": {\"In\": 1}, \"15\": {\"In\": 1}, \"16\": {\"O\": 1}, \"17\": {\"O\": 1}, \"18\": {\"O\": 1}, \"19\": {\"O\": 1}, \"20\": {\"O\": 1}, \"21\": {\"O\": 1}, \"22\": {\"O\": 1}, \"23\": {\"O\": 1}, \"24\": {\"O\": 1}, \"25\": {\"O\": 1}, \"26\": {\"O\": 1}, \"27\": {\"O\": 1}, \"28\": {\"O\": 1}, \"29\": {\"O\": 1}, \"30\": {\"O\": 1}, \"31\": {\"O\": 1}, \"32\": {\"O\": 1}, \"33\": {\"O\": 1}, \"34\": {\"O\": 1}, \"35\": {\"O\": 1}, \"36\": {\"O\": 1}, \"37\": {\"O\": 1}, \"38\": {\"O\": 1}, \"39\": {\"O\": 1}}" n_minim_iter=4 energy=-45151.851927042146 stress="-0.02112425651879688 1.570073538419495e-12 1.5778396642808192e-12 1.570073538419495e-12 -0.021124256522139 -1.2594668355075021e-12 1.5778396642808192e-12 -1.2594668355075021e-12 -0.021124256521711304" free_energy=-45151.851927042146 pbc="T T T"
In      -4.34907597       3.07526111       5.75740138        0      -0.00938470       0.00663598      -0.01149386
In       7.36573414       1.19093779       1.63187186        1       0.00938470      -0.00663598       0.01149386
In       1.33241780      -0.94216166       5.32650849        2       0.00938470      -0.00663598       0.01149386
In      -1.50832909      -2.13309945       3.69463662        3      -0.00000000      -0.00000000      -0.00000000
In      -1.33241780       4.14181084       3.47919017        4      -0.00938470       0.00663598       0.01149386
In       4.70089854      -2.95087304       5.54195493        5      -0.00938470      -0.01327197       0.00000000
In      -1.33241780       1.31532585       5.54195493        6      -0.00938470      -0.01327197       0.00000000
In      -1.68424037       7.21707194       1.84731831        7       0.00938470       0.01327197      -0.00000000
In       4.34907597       0.12438807       3.91008307        8       0.00938470      -0.00663598      -0.01149386
In      -1.50832909       4.26619890      -0.00000000        9       0.00000000       0.00000000       0.00000000
In       4.34907597       6.52368641       0.21544644       10       0.00938470      -0.00663598      -0.01149386
In      -1.33241780      -2.25748751       7.17382680       11      -0.00938470       0.00663598       0.01149386
In       4.34907597       2.95087305       1.84731831       12       0.00938470       0.01327197       0.00000000
In       1.68424037       5.20836056       2.06276475       13      -0.00938470       0.00663598      -0.01149386
In       4.52498725       0.00000000      -0.00000000       14      -0.00000000      -0.00000000      -0.00000000
In       1.50832908       2.13309945       3.69463662       15      -0.00000000       0.00000000       0.00000000
O        0.83046829       4.25510382       4.01384055       16       0.03370960       0.02723656      -0.00151547
O       -2.18618988       3.48163542       5.39196159       17       0.03370960      -0.01493071      -0.02282982
O       -0.47333131       2.27046152       0.10050308       18       0.02283860      -0.00724375      -0.03614402
O       -0.83046830      -0.79565855       2.01652889       19      -0.03370960       0.01230585      -0.02434528
O        4.01124731       5.11988293       1.91602581       20      -0.02531334      -0.03317361       0.01179874
O        2.02206902       3.03371389       1.69732496       21       0.02531334      -0.02680481      -0.02282982
O        2.02206902       6.35236794       0.21870084       22       0.02531334      -0.00636880       0.03462856
O       -2.29838875       6.08873888       3.79513970       23       0.01444234      -0.01911785      -0.03614402
O        3.48998948       1.99573738       7.28877016       24      -0.02283860       0.00724375       0.03614402
O        5.31504692      -1.82253998       3.59413354       25      -0.01444234       0.01911785       0.03614402
O        6.50664765       3.35536843       1.77861081       26      -0.02283860      -0.03492352      -0.01179874
O        3.73492759       2.37541741       3.91333746       27       0.01444234      -0.02174272       0.03462856
O        0.71826942       4.33444041       7.07006931       28       0.01444234       0.04086057       0.00151547
O        2.29838875      -0.06824151       0.31920393       29      -0.01444234      -0.04086057      -0.00151547
O       -3.48998948       0.91083047       5.61066243       30       0.02283860       0.03492352       0.01179874
O        5.20284804       0.78456348       1.99731165       31      -0.03370960       0.01493071       0.02282982
O        0.99458914       1.23248501       5.69194828       32      -0.02531334       0.02680481       0.02282982
O        3.48998948      -1.08490691       5.71116552       33      -0.02283860       0.02767977      -0.02434528
O        2.18618987       0.01109508       3.37543269       34      -0.03370960      -0.02723656       0.00151547
O        0.99458914      -2.08616904       7.17057240       35      -0.02531334       0.00636880      -0.03462856
O       -0.71826942       1.89078150       3.47593578       36      -0.01444234       0.02174272      -0.03462856
O       -0.99458914      -0.85368403       5.47324743       37       0.02531334       0.03317361      -0.01179874
O       -0.47333131       5.35110581       1.67810772       38       0.02283860      -0.02767977       0.02434528
O        3.84712646       5.06185745       5.37274435       39       0.03370960      -0.01230585       0.02434528
40
Lattice="9.04997451052581 7.093088987943233e-10 -4.358413548051308e-15 -3.0166581708440128 8.532397794374496 -1.2285651480644078e-09 -3.0166581698408987 -4.266198896477931 7.389273245941685" Properties=species:S:1:pos:R:3:spacegroup_kinds:I:1:forces:R:3 spacegroup="P 1" unit_cell=conventional occupancy="_JSON {\"0\": {\"In\": 1}, \"1\": {\"In\": 1}, \"2\": {\"In\": 1}, \"3\": {\"In\": 1}, \"4\": {\"In\": 1}, \"5\": {\"In\": 1}, \"6\": {\"In\": 1}, \"7\": {\"In\": 1}, \"8\": {\"In\": 1}, \"9\": {\"In\": 1}, \"10\": {\"In\": 1}, \"11\": {\"In\": 1}, \"12\": {\"In\": 1}, \"13\": {\"In\": 1}, \"14\": {\"In\": 1}, \"15\": {\"In\": 1}, \"16\": {\"O\": 1}, \"17\": {\"O\": 1}, \"18\": {\"O\": 1}, \"19\": {\"O\": 1}, \"20\": {\"O\": 1}, \"21\": {\"O\": 1}, \"22\": {\"O\": 1}, \"23\": {\"O\": 1}, \"24\": {\"O\": 1}, \"25\": {\"O\": 1}, \"26\": {\"O\": 1}, \"27\": {\"O\": 1}, \"28\": {\"O\": 1}, \"29\": {\"O\": 1}, \"30\": {\"O\": 1}, \"31\": {\"O\": 1}, \"32\": {\"O\": 1}, \"33\": {\"O\": 1}, \"34\": {\"O\": 1}, \"35\": {\"O\": 1}, \"36\": {\"O\": 1}, \"37\": {\"O\": 1}, \"38\": {\"O\": 1}, \"39\": {\"O\": 1}}" n_minim_iter=5 energy=-45151.853809465894 stress="-0.02082543656717614 1.6966606311113115e-12 -5.752694543106087e-13 1.6966606311113115e-12 -0.020825436567897457 1.1509741759163789e-12 -5.752694543106087e-13 1.1509741759163789e-12 -0.020825436567286477" free_energy=-45151.853809465894 pbc="T T T"
In      -4.34753476       3.07417131       5.75928897        0      -0.01649468       0.01166350      -0.02020178
In       7.36419293       1.19202759       1.62998427        1       0.01649468      -0.01166350       0.02020178
In       1.33087659      -0.94107186       5.32462090        2       0.01649468      -0.01166350       0.02020178
In      -1.50832909      -2.13309945       3.69463662        3      -0.00000000       0.00000000      -0.00000000
In      -1.33087659       4.14072104       3.47730258        4      -0.01649468       0.01166350       0.02020178
In       4.70243975      -2.94869344       5.54195493        5      -0.01649468      -0.02332700      -0.00000000
In      -1.33087659       1.31750545       5.54195493        6      -0.01649468      -0.02332700      -0.00000000
In      -1.68578158       7.21489234       1.84731831        7       0.01649468       0.02332700      -0.00000000
In       4.34753476       0.12547787       3.91197066        8       0.01649468      -0.01166350      -0.02020178
In      -1.50832909       4.26619890      -0.00000000        9      -0.00000000       0.00000000       0.00000000
In       4.34753476       6.52477621       0.21733403       10       0.01649468      -0.01166350      -0.02020178
In      -1.33087659      -2.25857731       7.17193921       11      -0.01649468       0.01166350       0.02020178
In       4.34753476       2.94869345       1.84731831       12       0.01649468       0.02332700       0.00000000
In       1.68578158       5.20727076       2.06465234       13      -0.01649468       0.01166350      -0.02020178
In       4.52498725       0.00000000      -0.00000000       14      -0.00000000       0.00000000      -0.00000000
In       1.50832908       2.13309945       3.69463662       15      -0.00000000       0.00000000      -0.00000000
O        0.83492616       4.25601292       4.01088909       16       0.02267908       0.02477385       0.02895856
O       -2.18173201       3.47862484       5.39265001       17       0.02267908       0.01269192      -0.03593406
O       -0.47382666       2.27095338       0.09512509       18       0.04288276      -0.00159424      -0.01118970
O       -0.83492616      -0.79776004       2.01426586       19      -0.02267908       0.03746577      -0.00697550
O        4.00692295       5.11887943       1.91914077       20       0.00440637      -0.04392615       0.00421420
O        2.02639339       3.03051450       1.69801339       21      -0.00440637      -0.02561268      -0.03593406
O        2.02639339       6.35456383       0.22112738       22      -0.00440637      -0.01831347       0.04014826
O       -2.29901760       6.08904195       3.78976171       23       0.01579732      -0.03989884      -0.01118970
O        3.49048483       1.99524552       7.29414815       24      -0.04288276       0.00159424       0.01118970
O        5.31567577      -1.82284304       3.59951153       25      -0.01579732       0.03989884       0.01118970
O        6.50714300       3.35095688       1.77549585       26      -0.04288276      -0.01048769      -0.00421420
O        3.73429874       2.37060840       3.91576400       27       0.01579732       0.01025885       0.04014826
O        0.71764057       4.33894636       7.07302077       28       0.01579732       0.02963999      -0.02895856
O        2.29901760      -0.07274746       0.31625247       29      -0.01579732      -0.02963999       0.02895856
O       -3.49048483       0.91524202       5.61377739       30       0.04288276       0.01048769       0.00421420
O        5.19839018       0.78757406       1.99662323       31      -0.02267908      -0.01269192       0.03593406
O        0.99026478       1.23568440       5.69125985       32       0.00440637       0.02561268       0.03593406
O        3.49048483      -1.08000350       5.70890248       33      -0.04288276       0.00889345      -0.00697550
O        2.18173201       0.01018598       3.37838415       34      -0.02267908      -0.02477385      -0.02895856
O        0.99026478      -2.08836493       7.16814586       35       0.00440637       0.01831347      -0.04014826
O       -0.71764057       1.89559051       3.47350924       36      -0.01579732      -0.01025885      -0.04014826
O       -0.99026478      -0.85268053       5.47013247       37      -0.00440637       0.04392615      -0.00421420
O       -0.47382666       5.34620240       1.68037076       38       0.04288276      -0.00889345       0.00697550
O        3.85158433       5.06395894       5.37500738       39       0.02267908      -0.03746577       0.00697550
40