40
Lattice="8.54612977194399 6.698171560814022e-10 9.898899991252997e-15 -2.8487099246128413 8.057368419299177 -1.1601864152970459e-09 -2.848709923665586 -4.028684208979747 6.97788573953701" Properties=species:S:1:pos:R:3:spacegroup_kinds:I:1:forces:R:3 spacegroup="P 1" unit_cell=conventional occupancy="_JSON {\"0\": {\"In\": 1}, \"1\": {\"In\": 1}, \"2\": {\"In\": 1}, \"3\": {\"In\": 1}, \"4\": {\"In\": 1}, \"5\": {\"In\": 1}, \"6\": {\"In\": 1}, \"7\": {\"In\": 1}, \"8\": {\"In\": 1}, \"9\": {\"In\": 1}, \"10\": {\"In\": 1}, \"11\": {\"In\": 1}, \"12\": {\"In\": 1}, \"13\": {\"In\": 1}, \"14\": {\"In\": 1}, \"15\": {\"In\": 1}, \"16\": {\"O\": 1}, \"17\": {\"O\": 1}, \"18\": {\"O\": 1}, \"19\": {\"O\": 1}, \"20\": {\"O\": 1}, \"21\": {\"O\": 1}, \"22\": {\"O\": 1}, \"23\": {\"O\": 1}, \"24\": {\"O\": 1}, \"25\": {\"O\": 1}, \"26\": {\"O\": 1}, \"27\": {\"O\": 1}, \"28\": {\"O\": 1}, \"29\": {\"O\": 1}, \"30\": {\"O\": 1}, \"31\": {\"O\": 1}, \"32\": {\"O\": 1}, \"33\": {\"O\": 1}, \"34\": {\"O\": 1}, \"35\": {\"O\": 1}, \"36\": {\"O\": 1}, \"37\": {\"O\": 1}, \"38\": {\"O\": 1}, \"39\": {\"O\": 1}}" n_minim_iter=6 energy=-45151.945531024554 stress="-0.028127289985456515 2.8740282575463274e-12 8.274644902267912e-13 2.8740282575463274e-12 -0.028127289985234664 -7.793756764362977e-13 8.274644902267912e-13 -7.793756764362977e-13 -0.028127289981863476" free_energy=-45151.945531024554 pbc="T T T"
In      -4.05807293       2.86949089       5.49672460        0       0.00176423      -0.00124750       0.00216073
In       6.90678285       1.15919332       1.48116114        1      -0.00176423       0.00124750      -0.00216073
In       1.20936300      -0.85514878       4.97010401        2      -0.00176423       0.00124750      -0.00216073
In      -1.42435496      -2.01434210       3.48894287        3       0.00000000       0.00000000       0.00000000
In      -1.20936301       3.87666194       3.22563257        4       0.00176423      -0.00124750      -0.00216073
In       4.48805684      -2.71746861       5.23341430        5       0.00176423       0.00249500       0.00000000
In      -1.20936301       1.31121559       5.23341430        6       0.00176423       0.00249500       0.00000000
In      -1.63934692       6.74615283       1.74447143        7      -0.00176423      -0.00249500      -0.00000000
In       4.05807293       0.15202227       3.75225316        8      -0.00176423       0.00124750       0.00216073
In      -1.42435496       4.02868421      -0.00000000        9       0.00000000      -0.00000000      -0.00000000
In       4.05807293       6.19504859       0.26331029       10      -0.00176423       0.00124750       0.00216073
In      -1.20936301      -2.16636437       6.71457544       11       0.00176423      -0.00124750      -0.00216073
In       4.05807293       2.71746862       1.74447143       12      -0.00176423      -0.00249500       0.00000000
In       1.63934692       4.88383299       2.00778173       13       0.00176423      -0.00124750       0.00216073
In       4.27306488       0.00000000      -0.00000000       14      -0.00000000      -0.00000000      -0.00000000
In       1.42435496       2.01434211       3.48894287       15      -0.00000000       0.00000000      -0.00000000
O        0.86827687       4.03803080       3.83070853       16       0.00207524       0.00483341       0.00193832
O       -1.98043306       3.31281761       5.05443709       17       0.00207524      -0.00073807      -0.00515502
O       -0.37668783       2.17879849       0.04073008       18       0.00455287      -0.00249002      -0.00212055
O       -0.86827687      -0.70652001       1.90725988       19      -0.00207524       0.00409534      -0.00321670
O        3.78349874       4.75871975       1.86652979       20      -0.00138761      -0.00531964      -0.00109614
O        1.91392110       2.77723976       1.56549422       21       0.00138761      -0.00171053      -0.00515502
O        1.91392110       6.01016420       0.30103557       22       0.00138761      -0.00360911       0.00405887
O       -2.17975352       5.67190485       3.52967295       23       0.00386524      -0.00346248      -0.00212055
O        3.22539775       1.84988573       6.93715565       24      -0.00455287       0.00249002       0.00212055
O        5.02846344      -1.64322064       3.44821278       25      -0.00386524       0.00346248       0.00212055
O        6.07410768       3.13901464       1.62241307       26      -0.00455287      -0.00308146       0.00109614
O        3.51766633       2.23517613       3.78997844       27       0.00386524      -0.00010521       0.00405887
O        0.66895640       4.17897166       6.63612008       28       0.00386524       0.00356769      -0.00193832
O        2.17975352      -0.15028744       0.34176566       29      -0.00386524      -0.00356769       0.00193832
O       -3.22539776       0.88966958       5.35547266       30       0.00455287       0.00308146      -0.00109615
O        4.82914298       0.71586661       1.92344865       31      -0.00207524       0.00073807       0.00515502
O        0.93478882       1.25144445       5.41239152       32      -0.00138761       0.00171053       0.00515502
O        3.22539776      -0.96021615       5.39620275       33      -0.00455287       0.00059144      -0.00321670
O        1.98043305      -0.00934659       3.14717721       34      -0.00207524      -0.00483341      -0.00193832
O        0.93478882      -1.98147999       6.67685016       35      -0.00138761       0.00360911      -0.00405887
O       -0.66895640       1.79350809       3.18790729       36      -0.00386524       0.00010521      -0.00405887
O       -0.93478882      -0.73003554       5.11135594       37       0.00138761       0.00531964       0.00109614
O       -0.37668783       4.98890036       1.58168299       38       0.00455287      -0.00059144       0.00321670
O        3.71698679       4.73520422       5.07062586       39       0.00207524      -0.00409534       0.00321670
