40
Lattice="9.71446250681302 7.613902067981937e-10 8.124778757288297e-15 -3.2381541696555183 9.158883085279477 -1.3187730379556805e-09 -3.238154168578758 -4.579441541878345 7.931825423022801" Properties=species:S:1:pos:R:3:spacegroup_kinds:I:1:forces:R:3 spacegroup="P 1" unit_cell=conventional occupancy="_JSON {\"0\": {\"In\": 1}, \"1\": {\"In\": 1}, \"2\": {\"In\": 1}, \"3\": {\"In\": 1}, \"4\": {\"In\": 1}, \"5\": {\"In\": 1}, \"6\": {\"In\": 1}, \"7\": {\"In\": 1}, \"8\": {\"In\": 1}, \"9\": {\"In\": 1}, \"10\": {\"In\": 1}, \"11\": {\"In\": 1}, \"12\": {\"In\": 1}, \"13\": {\"In\": 1}, \"14\": {\"In\": 1}, \"15\": {\"In\": 1}, \"16\": {\"O\": 1}, \"17\": {\"O\": 1}, \"18\": {\"O\": 1}, \"19\": {\"O\": 1}, \"20\": {\"O\": 1}, \"21\": {\"O\": 1}, \"22\": {\"O\": 1}, \"23\": {\"O\": 1}, \"24\": {\"O\": 1}, \"25\": {\"O\": 1}, \"26\": {\"O\": 1}, \"27\": {\"O\": 1}, \"28\": {\"O\": 1}, \"29\": {\"O\": 1}, \"30\": {\"O\": 1}, \"31\": {\"O\": 1}, \"32\": {\"O\": 1}, \"33\": {\"O\": 1}, \"34\": {\"O\": 1}, \"35\": {\"O\": 1}, \"36\": {\"O\": 1}, \"37\": {\"O\": 1}, \"38\": {\"O\": 1}, \"39\": {\"O\": 1}}" n_minim_iter=1 energy=-45140.85509496746 stress="0.2085016839869227 2.501683243882257e-13 2.2103288834406427e-12 2.501683243882257e-13 0.20850168398695543 -6.799999553331178e-13 2.2103288834406427e-12 -6.799999553331178e-13 0.2085016839856826" free_energy=-45140.85509496746 pbc="T T T"
In      -4.64842441       3.28693242       6.20460418        0       0.10585589      -0.07485142       0.12964646
In       7.88657858       1.29250912       1.72722124        1      -0.10585589       0.07485142      -0.12964646
In       1.41027024      -0.99721165       5.69313395        2      -0.10585589       0.07485142      -0.12964646
In      -1.61907709      -2.28972077       3.96591271        3       0.00000000       0.00000000       0.00000000
In      -1.41027024       4.43179281       3.71017760        4       0.10585589      -0.07485142      -0.12964646
In       5.06603810      -3.13928368       5.94886906        5       0.10585589       0.14970284      -0.00000000
In      -1.41027024       1.44015786       5.94886906        6       0.10585589       0.14970284      -0.00000000
In      -1.82788393       7.71872523       1.98295635        7      -0.10585589      -0.14970284      -0.00000000
In       4.64842441       0.14764874       4.22164782        8      -0.10585589       0.07485142       0.12964646
In      -1.61907709       4.57944154      -0.00000000        9      -0.00000000       0.00000000       0.00000000
In       4.64842441       7.01681105       0.25573511       10      -0.10585589       0.07485142       0.12964646
In      -1.41027024      -2.43736950       7.67609031       11       0.10585589      -0.07485142      -0.12964646
In       4.64842441       3.13928369       1.98295635       12      -0.10585589      -0.14970284       0.00000000
In       1.82788393       5.57665319       2.23869146       13       0.10585589      -0.07485142       0.12964646
In       4.85723125       0.00000000      -0.00000000       14      -0.00000000      -0.00000000       0.00000000
In       1.61907708       2.28972077       3.96591271       15       0.00000000      -0.00000000       0.00000000
O        0.91194493       4.57124776       4.20036347       16       0.03041170       0.01786884       0.00807896
O       -2.32620924       3.64171837       5.83873971       17       0.03041170      -0.00193784      -0.01951435
O       -0.58783742       2.41250387       0.03597626       18       0.02515713       0.00177771      -0.02594986
O       -0.91194493      -0.94591696       2.10727776       19      -0.03041170       0.01593100      -0.01143539
O        4.20884808       5.54612941       2.07130150       20      -0.01196424      -0.03091316       0.01451447
O        2.26746025       3.26898576       1.87282700       21       0.01196424      -0.02802648      -0.01951435
O        2.26746025       6.85658520       0.19847450       22       0.01196424      -0.00288668       0.03402882
O       -2.47047627       6.61921280       4.00188897       23       0.00670967      -0.02431094      -0.02594986
O        3.82599159       2.16693768       7.89584916       24      -0.02515713      -0.00177771       0.02594986
O        5.70863043      -2.03977125       3.92993645       25      -0.00670967       0.02431094       0.02594986
O        7.06414576       3.52712906       1.89461120       26      -0.02515713      -0.02158438      -0.01451447
O        4.00583207       2.44585189       4.16438721       27       0.00670967      -0.01031777       0.03402882
O        0.76767790       4.67325995       7.69737465       28       0.00670967       0.03462870      -0.00807896
O        2.47047626      -0.09381840       0.23445076       29      -0.00670967      -0.03462870       0.00807896
O       -3.82599159       1.05231248       6.03721421       30       0.02515713       0.02158438       0.01451447
O        5.56436341       0.93772318       2.09308571       31      -0.03041170       0.00193783       0.01951435
O        0.97069391       1.31045579       6.05899842       32      -0.01196424       0.02802648       0.01951435
O        3.82599159      -1.11462519       6.07319047       33      -0.02515713       0.02336209      -0.01143539
O        2.32620924       0.00819379       3.73146194       34      -0.03041170      -0.01786884      -0.00807896
O        0.97069391      -2.27714365       7.73335092       35      -0.01196424       0.00288668      -0.03402882
O       -0.76767791       2.13358966       3.76743821       36      -0.00670967       0.01031777      -0.03402882
O       -0.97069392      -0.96668786       5.86052392       37       0.01196424       0.03091316      -0.01451447
O       -0.58783742       5.69406674       1.85863494       38       0.02515713      -0.02336209       0.01143539
O        4.15009909       5.52535851       5.82454765       39       0.03041170      -0.01593100       0.01143539
40
Lattice="9.71446250681304 7.613902067981956e-10 8.124778757288337e-15 -3.238154169655526 9.158883085279493 -1.3187730379556838e-09 -3.2381541685787654 -4.579441541878353 7.931825423022822" Properties=species:S:1:pos:R:3:spacegroup_kinds:I:1:forces:R:3 spacegroup="P 1" unit_cell=conventional occupancy="_JSON {\"0\": {\"In\": 1}, \"1\": {\"In\": 1}, \"2\": {\"In\": 1}, \"3\": {\"In\": 1}, \"4\": {\"In\": 1}, \"5\": {\"In\": 1}, \"6\": {\"In\": 1}, \"7\": {\"In\": 1}, \"8\": {\"In\": 1}, \"9\": {\"In\": 1}, \"10\": {\"In\": 1}, \"11\": {\"In\": 1}, \"12\": {\"In\": 1}, \"13\": {\"In\": 1}, \"14\": {\"In\": 1}, \"15\": {\"In\": 1}, \"16\": {\"O\": 1}, \"17\": {\"O\": 1}, \"18\": {\"O\": 1}, \"19\": {\"O\": 1}, \"20\": {\"O\": 1}, \"21\": {\"O\": 1}, \"22\": {\"O\": 1}, \"23\": {\"O\": 1}, \"24\": {\"O\": 1}, \"25\": {\"O\": 1}, \"26\": {\"O\": 1}, \"27\": {\"O\": 1}, \"28\": {\"O\": 1}, \"29\": {\"O\": 1}, \"30\": {\"O\": 1}, \"31\": {\"O\": 1}, \"32\": {\"O\": 1}, \"33\": {\"O\": 1}, \"34\": {\"O\": 1}, \"35\": {\"O\": 1}, \"36\": {\"O\": 1}, \"37\": {\"O\": 1}, \"38\": {\"O\": 1}, \"39\": {\"O\": 1}}" n_minim_iter=2 energy=-45140.90362386877 stress="0.200669432062862 -1.0425589618525073e-13 -1.5578841202937357e-12 -1.0425589618525073e-13 0.20066943206301677 -1.082342791718784e-12 -1.5578841202937357e-12 -1.082342791718784e-12 0.20066943206272286" free_energy=-45140.90362386877 pbc="T T T"
In      -4.62438023       3.26993062       6.23405217        0      -0.00846961       0.00598892      -0.01037312
In       7.86253439       1.30951093       1.69777325        1       0.00846961      -0.00598892       0.01037312
In       1.38622606      -0.98020984       5.66368596        2       0.00846961      -0.00598892       0.01037312
In      -1.61907709      -2.28972077       3.96591271        3      -0.00000000       0.00000000       0.00000000
In      -1.38622606       4.41479100       3.68072961        4      -0.00846961       0.00598892       0.01037312
In       5.09008228      -3.10528007       5.94886906        5      -0.00846961      -0.01197784       0.00000000
In      -1.38622606       1.47416147       5.94886906        6      -0.00846961      -0.01197784       0.00000000
In      -1.85192811       7.68472162       1.98295635        7       0.00846961       0.01197784      -0.00000000
In       4.62438022       0.16465054       4.25109581        8       0.00846961      -0.00598892      -0.01037312
In      -1.61907709       4.57944154      -0.00000000        9       0.00000000      -0.00000000       0.00000000
In       4.62438022       7.03381286       0.28518310       10       0.00846961      -0.00598892      -0.01037312
In      -1.38622606      -2.45437131       7.64664232       11      -0.00846961       0.00598892       0.01037312
In       4.62438022       3.10528008       1.98295635       12       0.00846961       0.01197784      -0.00000000
In       1.85192811       5.55965139       2.26813945       13      -0.00846961       0.00598892      -0.01037312
In       4.85723125       0.00000000      -0.00000000       14       0.00000000      -0.00000000      -0.00000000
In       1.61907708       2.28972077       3.96591271       15      -0.00000000      -0.00000000      -0.00000000
O        0.91885266       4.57530650       4.20219853       16       0.06057004      -0.03518298      -0.06331725
O       -2.31930151       3.64127821       5.83430721       17       0.06057004      -0.03724286       0.06212798
O       -0.58212322       2.41290766       0.03008199       18      -0.04809372       0.03959403      -0.07095741
O       -0.91885266      -0.94229838       2.10468032       19      -0.06057004      -0.07242584      -0.00118927
O        4.20613052       5.53910777       2.07459833       20      -0.05530292       0.03145856       0.06976814
O        2.27017782       3.26261980       1.86839450       21       0.05530292      -0.04469170       0.06212798
O        2.27017782       6.85592952       0.20620383       22       0.05530292       0.07615026       0.00764015
O       -2.46895223       6.61369079       3.99599470       23      -0.05336085       0.03214519      -0.07095741
O        3.82027738       2.16653389       7.90174343       24       0.04809372      -0.03959403       0.07095741
O        5.70710639      -2.03424925       3.93583072       25       0.05336085      -0.03214519       0.07095741
O        7.05843155       3.52222637       1.89131438       26       0.04809372      -0.04165390      -0.06976814
O        4.00735611       2.44350830       4.17211654       27      -0.05336085      -0.07752351       0.00764015
O        0.76920194       4.68112554       7.69553959       28      -0.05336085       0.04537832       0.06331725
O        2.46895222      -0.10168399       0.23628582       29       0.05336085      -0.04537832      -0.06331725
O       -3.82027738       1.05721518       6.04051104       30      -0.04809372       0.04165390       0.06976814
O        5.55745567       0.93816334       2.09751821       31      -0.06057004       0.03724286      -0.06212798
O        0.96797635       1.31682175       6.06343092       32      -0.05530292       0.04469170      -0.06212798
O        3.82027738      -1.10931871       6.07059303       33       0.04809372       0.08124793      -0.00118927
O        2.31930151       0.00413505       3.72962688       34      -0.06057004       0.03518298       0.06331725
O        0.96797635      -2.27648797       7.72562159       35      -0.05530292      -0.07615026      -0.00764015
O       -0.76920194       2.13593324       3.75970888       36       0.05336085       0.07752351      -0.00764015
O       -0.96797635      -0.95966623       5.85722709       37       0.05530292      -0.03145856      -0.06976814
O       -0.58212322       5.68876026       1.86123238       38      -0.04809372      -0.08124793       0.00118927
O        4.15700683       5.52173993       5.82714510       39       0.06057004       0.07242584       0.00118927
40
Lattice="9.714462506813057 7.613902067981967e-10 8.124778757288383e-15 -3.238154169655531 9.158883085279506 -1.3187730379556863e-09 -3.2381541685787707 -4.579441541878359 7.931825423022838" Properties=species:S:1:pos:R:3:spacegroup_kinds:I:1:forces:R:3 spacegroup="P 1" unit_cell=conventional occupancy="_JSON {\"0\": {\"In\": 1}, \"1\": {\"In\": 1}, \"2\": {\"In\": 1}, \"3\": {\"In\": 1}, \"4\": {\"In\": 1}, \"5\": {\"In\": 1}, \"6\": {\"In\": 1}, \"7\": {\"In\": 1}, \"8\": {\"In\": 1}, \"9\": {\"In\": 1}, \"10\": {\"In\": 1}, \"11\": {\"In\": 1}, \"12\": {\"In\": 1}, \"13\": {\"In\": 1}, \"14\": {\"In\": 1}, \"15\": {\"In\": 1}, \"16\": {\"O\": 1}, \"17\": {\"O\": 1}, \"18\": {\"O\": 1}, \"19\": {\"O\": 1}, \"20\": {\"O\": 1}, \"21\": {\"O\": 1}, \"22\": {\"O\": 1}, \"23\": {\"O\": 1}, \"24\": {\"O\": 1}, \"25\": {\"O\": 1}, \"26\": {\"O\": 1}, \"27\": {\"O\": 1}, \"28\": {\"O\": 1}, \"29\": {\"O\": 1}, \"30\": {\"O\": 1}, \"31\": {\"O\": 1}, \"32\": {\"O\": 1}, \"33\": {\"O\": 1}, \"34\": {\"O\": 1}, \"35\": {\"O\": 1}, \"36\": {\"O\": 1}, \"37\": {\"O\": 1}, \"38\": {\"O\": 1}, \"39\": {\"O\": 1}}" n_minim_iter=3 energy=-45140.913460848555 stress="0.2010867028511775 -1.6816415393226755e-12 3.55456176169576e-13 -1.6816415393226755e-12 0.20108670285184013 2.1736945015663132e-13 3.55456176169576e-13 2.1736945015663132e-13 0.20108670285263655" free_energy=-45140.913460848555 pbc="T T T"
In      -4.62532272       3.27059706       6.23289785        0       0.00885761      -0.00626327       0.01084831
In       7.86347689       1.30884448       1.69892757        1      -0.00885761       0.00626327      -0.01084831
In       1.38716855      -0.98087629       5.66484028        2      -0.00885761       0.00626327      -0.01084831
In      -1.61907709      -2.28972077       3.96591271        3      -0.00000000      -0.00000000       0.00000000
In      -1.38716855       4.41545745       3.68188392        4       0.00885761      -0.00626327      -0.01084831
In       5.08913978      -3.10661296       5.94886906        5       0.00885761       0.01252655       0.00000000
In      -1.38716855       1.47282858       5.94886906        6       0.00885761       0.01252655      -0.00000000
In      -1.85098562       7.68605451       1.98295635        7      -0.00885761      -0.01252655       0.00000000
In       4.62532272       0.16398410       4.24994149        8      -0.00885761       0.00626327       0.01084831
In      -1.61907709       4.57944154      -0.00000000        9      -0.00000000      -0.00000000       0.00000000
In       4.62532272       7.03314641       0.28402878       10      -0.00885761       0.00626327       0.01084831
In      -1.38716855      -2.45370487       7.64779663       11       0.00885761      -0.00626327      -0.01084831
In       4.62532272       3.10661297       1.98295635       12      -0.00885761      -0.01252655       0.00000000
In       1.85098562       5.56031783       2.26698514       13       0.00885761      -0.00626327       0.01084831
In       4.85723125       0.00000000      -0.00000000       14      -0.00000000       0.00000000       0.00000000
In       1.61907708       2.28972077       3.96591271       15       0.00000000       0.00000000      -0.00000000
O        0.92292788       4.57281909       4.19780354       16       0.03477018       0.00244239      -0.01524023
O       -2.31522629       3.63871574       5.83865886       17       0.03477018      -0.01441962       0.00550494
O       -0.58552588       2.41563285       0.02527515       18       0.00029782       0.00995602      -0.03671491
O       -0.92292788      -0.94734826       2.10463699       19      -0.03477018      -0.01197723      -0.00973529
O        4.20235619       5.54138242       2.07936184       20      -0.02518501      -0.00922013       0.02697962
O        2.27395214       3.25963180       1.87274615       21       0.02518501      -0.02797510       0.00550494
O        2.27395214       6.86119216       0.20661568       22       0.02518501       0.01875497       0.02147467
O       -2.47265579       6.61599046       3.99118786       23      -0.00928735      -0.00359946      -0.03671491
O        3.82368005       2.16380869       7.90655027       24      -0.00029782      -0.00995602       0.03671491
O        5.71080995      -2.03654891       3.94063756       25       0.00928735       0.00359946       0.03671491
O        7.06183421       3.51942612       1.88655087       26      -0.00029782      -0.02681803      -0.02697962
O        4.00365255       2.43819562       4.17252839       27      -0.00928735      -0.02999631       0.02147467
O        0.76549838       4.68413855       7.69993458       28      -0.00928735       0.03359577       0.01524023
O        2.47265578      -0.10469701       0.23189083       29       0.00928735      -0.03359577      -0.01524023
O       -3.82368005       1.06001543       6.04527455       30       0.00029782       0.02681803       0.02697962
O        5.55338045       0.94072581       2.09316655       31      -0.03477018       0.01441962      -0.00550494
O        0.96420202       1.31980974       6.05907926       32      -0.02518501       0.02797510      -0.00550494
O        3.82368005      -1.10379326       6.07054970       33      -0.00029782       0.03677405      -0.00973529
O        2.31522629       0.00662246       3.73402187       34      -0.03477018      -0.00244239       0.01524023
O        0.96420202      -2.28175061       7.72520973       35      -0.02518501      -0.01875497      -0.02147467
O       -0.76549838       2.14124592       3.75929702       36       0.00928735       0.02999631      -0.02147467
O       -0.96420203      -0.96194087       5.85246358       37       0.02518501       0.00922013      -0.02697962
O       -0.58552588       5.68323481       1.86127572       38       0.00029782      -0.03677405       0.00973529
O        4.16108205       5.52678981       5.82718843       39       0.03477018       0.01197723       0.00973529
40
Lattice="9.71446250681307 7.613902067981979e-10 8.124778757288372e-15 -3.2381541696555365 9.158883085279522 -1.3187730379556883e-09 -3.238154168578776 -4.579441541878367 7.931825423022851" Properties=species:S:1:pos:R:3:spacegroup_kinds:I:1:forces:R:3 spacegroup="P 1" unit_cell=conventional occupancy="_JSON {\"0\": {\"In\": 1}, \"1\": {\"In\": 1}, \"2\": {\"In\": 1}, \"3\": {\"In\": 1}, \"4\": {\"In\": 1}, \"5\": {\"In\": 1}, \"6\": {\"In\": 1}, \"7\": {\"In\": 1}, \"8\": {\"In\": 1}, \"9\": {\"In\": 1}, \"10\": {\"In\": 1}, \"11\": {\"In\": 1}, \"12\": {\"In\": 1}, \"13\": {\"In\": 1}, \"14\": {\"In\": 1}, \"15\": {\"In\": 1}, \"16\": {\"O\": 1}, \"17\": {\"O\": 1}, \"18\": {\"O\": 1}, \"19\": {\"O\": 1}, \"20\": {\"O\": 1}, \"21\": {\"O\": 1}, \"22\": {\"O\": 1}, \"23\": {\"O\": 1}, \"24\": {\"O\": 1}, \"25\": {\"O\": 1}, \"26\": {\"O\": 1}, \"27\": {\"O\": 1}, \"28\": {\"O\": 1}, \"29\": {\"O\": 1}, \"30\": {\"O\": 1}, \"31\": {\"O\": 1}, \"32\": {\"O\": 1}, \"33\": {\"O\": 1}, \"34\": {\"O\": 1}, \"35\": {\"O\": 1}, \"36\": {\"O\": 1}, \"37\": {\"O\": 1}, \"38\": {\"O\": 1}, \"39\": {\"O\": 1}}" n_minim_iter=4 energy=-45140.916891993955 stress="0.1995216576820339 6.819244147936783e-13 1.383268296841521e-12 6.819244147936783e-13 0.19952165768031682 1.2631413767596355e-12 1.383268296841521e-12 1.2631413767596355e-12 0.19952165768151556" free_energy=-45140.916891993955 pbc="T T T"
In      -4.62117541       3.26766447       6.23797724        0      -0.00333655       0.00235930      -0.00408642
In       7.85932958       1.31177707       1.69384817        1       0.00333655      -0.00235930       0.00408642
In       1.38302124      -0.97794370       5.65976088        2       0.00333655      -0.00235930       0.00408642
In      -1.61907709      -2.28972077       3.96591271        3       0.00000000       0.00000000       0.00000000
In      -1.38302125       4.41252486       3.67680453        4      -0.00333655       0.00235930       0.00408642
In       5.09328709      -3.10074778       5.94886906        5      -0.00333655      -0.00471859      -0.00000000
In      -1.38302124       1.47869376       5.94886906        6      -0.00333655      -0.00471859       0.00000000
In      -1.85513293       7.68018933       1.98295635        7       0.00333655       0.00471859      -0.00000000
In       4.62117541       0.16691669       4.25502089        8       0.00333655      -0.00235930      -0.00408642
In      -1.61907709       4.57944154      -0.00000000        9       0.00000000      -0.00000000      -0.00000000
In       4.62117541       7.03607900       0.28910818       10       0.00333655      -0.00235930      -0.00408642
In      -1.38302124      -2.45663745       7.64271724       11      -0.00333655       0.00235930       0.00408642
In       4.62117541       3.10074779       1.98295635       12       0.00333655       0.00471859       0.00000000
In       1.85513292       5.55738524       2.27206453       13      -0.00333655       0.00235930      -0.00408642
In       4.85723125       0.00000000      -0.00000000       14      -0.00000000       0.00000000       0.00000000
In       1.61907708       2.28972077       3.96591271       15      -0.00000000      -0.00000000      -0.00000000
O        0.92773093       4.57195829       4.19485899       16       0.01871237       0.02030082       0.01184703
O       -2.31042324       3.63659608       5.84087661       17       0.01871237       0.00010941      -0.02350454
O       -0.58673487       2.41776434       0.02012969       18       0.02548041      -0.00467632      -0.01521541
O       -0.92773093      -0.95032872       2.10391018       19      -0.01871237       0.02041024      -0.01165752
O        4.19875674       5.54139214       2.08378049       20      -0.00613430      -0.02919486       0.00355790
O        2.27755159       3.25581000       1.87496390       21       0.00613430      -0.01767866      -0.02350454
O        2.27755159       6.86502369       0.20881659       22       0.00613430      -0.01151620       0.02706244
O       -2.47506837       6.61641981       3.98604240       23       0.01290234      -0.02246439      -0.01521541
O        3.82488903       2.16167721       7.91169573       24      -0.02548041       0.00467632       0.01521541
O        5.71322253      -2.03697826       3.94578302       25      -0.01290234       0.02246439       0.01521541
O        7.06304320       3.51603576       1.88213222       26      -0.02548041      -0.01551509      -0.00355790
O        4.00123997       2.43352485       4.17472930       27       0.01290234      -0.00194474       0.02706244
O        0.76308580       4.68837998       7.70287914       28       0.01290234       0.02440913      -0.01184703
O        2.47506836      -0.10893843       0.22894628       29      -0.01290234      -0.02440913       0.01184703
O       -3.82488904       1.06340578       6.04969320       30       0.02548041       0.01551509       0.00355790
O        5.54857741       0.94284547       2.09094881       31      -0.01871237      -0.00010941       0.02350454
O        0.96060257       1.32363155       6.05686152       32      -0.00613430       0.01767866       0.02350454
O        3.82488903      -1.09827142       6.06982289       33      -0.02548041       0.01083878      -0.01165752
O        2.31042324       0.00748325       3.73696643       34      -0.01871237      -0.02030082      -0.01184703
O        0.96060257      -2.28558214       7.72300883       35      -0.00613430       0.01151620      -0.02706244
O       -0.76308580       2.14591670       3.75709612       36      -0.01290234       0.00194474      -0.02706244
O       -0.96060257      -0.96195060       5.84804493       37       0.00613430       0.02919486      -0.00355790
O       -0.58673487       5.67771297       1.86200253       38       0.02548041      -0.01083878       0.01165752
O        4.16588510       5.52977026       5.82791524       39       0.01871237      -0.02041024       0.01165752
40
Lattice="9.71446250681307 7.613902067981979e-10 8.124778757288373e-15 -3.2381541696555365 9.158883085279523 -1.3187730379556883e-09 -3.238154168578776 -4.579441541878368 7.931825423022851" Properties=species:S:1:pos:R:3:spacegroup_kinds:I:1:forces:R:3 spacegroup="P 1" unit_cell=conventional occupancy="_JSON {\"0\": {\"In\": 1}, \"1\": {\"In\": 1}, \"2\": {\"In\": 1}, \"3\": {\"In\": 1}, \"4\": {\"In\": 1}, \"5\": {\"In\": 1}, \"6\": {\"In\": 1}, \"7\": {\"In\": 1}, \"8\": {\"In\": 1}, \"9\": {\"In\": 1}, \"10\": {\"In\": 1}, \"11\": {\"In\": 1}, \"12\": {\"In\": 1}, \"13\": {\"In\": 1}, \"14\": {\"In\": 1}, \"15\": {\"In\": 1}, \"16\": {\"O\": 1}, \"17\": {\"O\": 1}, \"18\": {\"O\": 1}, \"19\": {\"O\": 1}, \"20\": {\"O\": 1}, \"21\": {\"O\": 1}, \"22\": {\"O\": 1}, \"23\": {\"O\": 1}, \"24\": {\"O\": 1}, \"25\": {\"O\": 1}, \"26\": {\"O\": 1}, \"27\": {\"O\": 1}, \"28\": {\"O\": 1}, \"29\": {\"O\": 1}, \"30\": {\"O\": 1}, \"31\": {\"O\": 1}, \"32\": {\"O\": 1}, \"33\": {\"O\": 1}, \"34\": {\"O\": 1}, \"35\": {\"O\": 1}, \"36\": {\"O\": 1}, \"37\": {\"O\": 1}, \"38\": {\"O\": 1}, \"39\": {\"O\": 1}}" n_minim_iter=5 energy=-45140.91769171144 stress="0.1982821526092539 -8.110665309378074e-13 1.3975649802024785e-12 -8.110665309378074e-13 0.1982821526081976 -9.433148722146906e-13 1.3975649802024785e-12 -9.433148722146906e-13 0.19828215261012605" free_energy=-45140.91769171144 pbc="T T T"
In      -4.61858880       3.26583546       6.24114518        0      -0.01552212       0.01097580      -0.01901064
In       7.85674297       1.31360608       1.69068023        1       0.01552212      -0.01097580       0.01901064
In       1.38043463      -0.97611469       5.65659294        2       0.01552212      -0.01097580       0.01901064
In      -1.61907709      -2.28972077       3.96591271        3      -0.00000000       0.00000000      -0.00000000
In      -1.38043463       4.41069585       3.67363659        4      -0.01552212       0.01097580       0.01901064
In       5.09587370      -3.09708976       5.94886906        5      -0.01552212      -0.02195159       0.00000000
In      -1.38043463       1.48235178       5.94886906        6      -0.01552212      -0.02195159      -0.00000000
In      -1.85771954       7.67653131       1.98295635        7       0.01552212       0.02195159       0.00000000
In       4.61858880       0.16874570       4.25818883        8       0.01552212      -0.01097580      -0.01901064
In      -1.61907709       4.57944154      -0.00000000        9       0.00000000      -0.00000000      -0.00000000
In       4.61858880       7.03790801       0.29227612       10       0.01552212      -0.01097580      -0.01901064
In      -1.38043463      -2.45846647       7.63954930       11      -0.01552212       0.01097580       0.01901064
In       4.61858880       3.09708977       1.98295635       12       0.01552212       0.02195159       0.00000000
In       1.85771953       5.55555623       2.27523247       13      -0.01552212       0.01097580      -0.01901064
In       4.85723125       0.00000000      -0.00000000       14      -0.00000000      -0.00000000       0.00000000
In       1.61907708       2.28972077       3.96591271       15       0.00000000      -0.00000000      -0.00000000
O        0.93054190       4.57323361       4.19495848       16       0.01746265       0.00765030       0.01247130
O       -2.30761227       3.63604459       5.83972241       17       0.01746265       0.00697531      -0.01286100
O       -0.58511545       2.41805540       0.01751613       18       0.01961004       0.00545688      -0.01023100
O       -0.93054190      -0.94960489       2.10285547       19      -0.01746265       0.01462561      -0.00038971
O        4.19729980       5.53915939       2.08533933       20       0.00075550      -0.02053248       0.00984129
O        2.27900854       3.25334362       1.87380970       21      -0.00075550      -0.01878905      -0.01286100
O        2.27900854       6.86525731       0.21152963       22      -0.00075550      -0.00174343       0.02270230
O       -2.47480298       6.61479598       3.98342884       23       0.00139189      -0.02030748      -0.01023100
O        3.82326962       2.16138615       7.91430928       24      -0.01961004      -0.00545688       0.01023100
O        5.71295714      -2.03535444       3.94839657       25      -0.00139189       0.02030748       0.01023100
O        7.06142378       3.51391789       1.88057337       26      -0.01961004      -0.00613187      -0.00984129
O        4.00150536       2.43207336       4.17744235       27       0.00139189       0.00129344       0.02270230
O        0.76335119       4.69145529       7.70277965       28       0.00139189       0.01901405      -0.01247130
O        2.47480298      -0.11201374       0.22904577       29      -0.00139189      -0.01901405       0.01247130
O       -3.82326962       1.06552365       6.05125204       30       0.01961004       0.00613187       0.00984129
O        5.54576644       0.94339696       2.09210301       31      -0.01746265      -0.00697531       0.01286100
O        0.95914563       1.32609792       6.05801572       32       0.00075550       0.01878905       0.01286100
O        3.82326962      -1.09586249       6.06876818       33      -0.01961004       0.01158875      -0.00038971
O        2.30761227       0.00620794       3.73686693       34      -0.01746265      -0.00765030      -0.01247130
O        0.95914563      -2.28581576       7.72029578       35       0.00075550       0.00174343      -0.02270230
O       -0.76335119       2.14736819       3.75438307       36      -0.00139189      -0.00129344      -0.02270230
O       -0.95914563      -0.95971784       5.84648608       37      -0.00075550       0.02053248      -0.00984129
O       -0.58511545       5.67530404       1.86305723       38       0.01961004      -0.01158875       0.00038971
O        4.16869607       5.52904644       5.82896995       39       0.01746265      -0.01462561       0.00038971
40