1
Lattice="3.270247553333534 -0.11330241037532596 -1.9750143761311287e-10 0.11330241037532574 3.2702475533335345 -6.535938441011013e-10 -1.6917749816988565 -1.578472571022056 2.313801687722973" Properties=species:S:1:pos:R:3:spacegroup_kinds:I:1:forces:R:3 spacegroup="P 1" unit_cell=conventional occupancy="_JSON {\"0\": {\"In\": 1}}" n_minim_iter=1 energy=-1971.5796307510625 stress="0.35866446026458537 -8.041307370739243e-13 2.3554602594117187e-13 -8.041307370739243e-13 0.35866446026469717 1.5062973927512334e-13 2.3554602594117187e-13 1.5062973927512334e-13 0.3586644602651725" free_energy=-1971.5796307510625 pbc="T T T"
In       0.00000000       0.00000000       0.00000000        0      -0.00000000       0.00000000      -0.00000000
