1
Lattice="3.368659357445974 -0.11671202828145755 -2.0344486314078962e-10 0.1167120282814571 3.368659357445974 -6.732624925155639e-10 -1.7426856927034604 -1.6259736641114562 2.383431094895869" Properties=species:S:1:pos:R:3:spacegroup_kinds:I:1:forces:R:3 spacegroup="P 1" unit_cell=conventional occupancy="_JSON {\"0\": {\"In\": 1}}" n_minim_iter=1 energy=-1970.5426641193274 stress="0.4478686718446844 3.7076758985865197e-13 5.072907170137765e-13 3.7076758985865197e-13 0.44786867184463264 -5.435116825714303e-13 5.072907170137765e-13 -5.435116825714303e-13 0.44786867184343976" free_energy=-1970.5426641193274 pbc="T T T"
In       0.00000000       0.00000000       0.00000000        0       0.00000000      -0.00000000       0.00000000
