1
Lattice="3.3686593574459742 -0.11671202828145645 -2.0344486314078986e-10 0.11671202828145645 3.3686593574459742 -6.73262492515564e-10 -1.7426856927034604 -1.6259736641114573 2.3834310948958692" Properties=species:S:1:pos:R:3:spacegroup_kinds:I:1:forces:R:3 spacegroup="P 1" unit_cell=conventional occupancy="_JSON {\"0\": {\"In\": 1}}" n_minim_iter=1 energy=-1970.8099513539466 stress="0.47580833389066934 1.0396637265542919e-13 1.5257570204458833e-13 1.0396637265542919e-13 0.4758083338906548 1.4237275419285736e-13 1.5257570204458833e-13 1.4237275419285736e-13 0.47580833389269706" free_energy=-1970.8099513539466 pbc="T T T"
In       0.00000000       0.00000000       0.00000000        0       0.00000000      -0.00000000      -0.00000000
