1
Lattice="3.1919089854953016 -0.11180155318875347 -1.925306400179572e-10 0.10937787311743988 3.1919929573627477 -6.378722501674143e-10 -1.6506434291544647 -1.540095701640721 2.2592618393090276" Properties=species:S:1:pos:R:3:spacegroup_kinds:I:1:forces:R:3 spacegroup="P 1" unit_cell=conventional occupancy="_JSON {\"0\": {\"In\": 1}}" n_minim_iter=6 energy=-1971.9014791368713 stress="0.0013705389144588074 -0.0005667445145841546 3.8035566848509226e-13 -0.0005667445145841546 0.0014491760094582163 -2.2402712630539745e-13 3.8035566848509226e-13 -2.2402712630539745e-13 0.0019779642206833817" free_energy=-1971.9014791368713 pbc="T T T"
In       0.00000000       0.00000000       0.00000000        0      -0.00000000       0.00000000       0.00000000
