1
Lattice="3.2702475533335345 -0.11330241037532567 -1.9750143761311287e-10 0.11330241037532633 3.2702475533335345 -6.535938441011014e-10 -1.6917749816988568 -1.5784725710220566 2.3138016877229726" Properties=species:S:1:pos:R:3:spacegroup_kinds:I:1:forces:R:3 spacegroup="P 1" unit_cell=conventional occupancy="_JSON {\"0\": {\"In\": 1}}" n_minim_iter=1 energy=-1971.7563733864367 stress="0.2506748144582301 -1.3429338401775692e-13 -1.8395392508603113e-13 -1.3429338401775692e-13 0.2506748144582484 1.972915075814042e-13 -1.8395392508603113e-13 1.972915075814042e-13 0.25067481445433526" free_energy=-1971.7563733864367 pbc="T T T"
In       0.00000000       0.00000000       0.00000000        0       0.00000000      -0.00000000      -0.00000000
