1
Lattice="3.4157795770946717 -0.11834457578024504 -2.0629061440869513e-10 0.11834457578024504 3.4157795770946717 -6.826799708540731e-10 -1.7670620762749611 -1.6487175001798258 2.416770113416927" Properties=species:S:1:pos:R:3:spacegroup_kinds:I:1:forces:R:3 spacegroup="P 1" unit_cell=conventional occupancy="_JSON {\"0\": {\"In\": 1}}" n_minim_iter=1 energy=-1970.0836330707832 stress="0.34192141808341253 -1.7244268416920412e-17 -1.1740983757813278e-13 -1.7244268416920412e-17 0.3419214180834124 4.126627071464616e-15 -1.1740983757813278e-13 4.126627071464616e-15 0.34192141808304033" free_energy=-1970.0836330707832 pbc="T T T"
In       0.00000000       0.00000000       0.00000000        0      -0.00000000      -0.00000000      -0.00000000
