1
Lattice="3.165526935049333 -0.10967421456626503 -1.911770012144737e-10 0.1096742145662648 3.165526935049333 -6.326643119036851e-10 -1.6376005746572067 -1.5279263597991217 2.2397085986299508" Properties=species:S:1:pos:R:3:spacegroup_kinds:I:1:forces:R:3 spacegroup="P 1" unit_cell=conventional occupancy="_JSON {\"0\": {\"In\": 1}}" n_minim_iter=1 energy=-1971.8700989004064 stress="-0.10707512221266156 -2.4778205708300252e-15 5.543684926240827e-15 -2.4778205708300252e-15 -0.10707512221266118 4.518696122365016e-14 5.543684926240827e-15 4.518696122365016e-14 -0.10707512221678012" free_energy=-1971.8700989004064 pbc="T T T"
In       0.00000000       0.00000000       0.00000000        0       0.00000000       0.00000000      -0.00000000
