1
Lattice="3.2446977005825266 -0.11241719913238024 -1.9595839459669576e-10 0.11241719913238046 3.244697700582526 -6.484874335913752e-10 -1.678557449703095 -1.566140250271596 2.295724373558761" Properties=species:S:1:pos:R:3:spacegroup_kinds:I:1:forces:R:3 spacegroup="P 1" unit_cell=conventional occupancy="_JSON {\"0\": {\"In\": 1}}" n_minim_iter=1 energy=-1971.8652229084032 stress="0.12580991871240377 -1.5038316326510584e-14 3.104196136856602e-13 -1.5038316326510584e-14 0.12580991871196553 -1.048659710388198e-14 3.104196136856602e-13 -1.048659710388198e-14 0.1258099187121845" free_energy=-1971.8652229084032 pbc="T T T"
In       0.00000000       0.00000000       0.00000000        0       0.00000000      -0.00000000      -0.00000000
