1
Lattice="3.0240162220414875 -0.10477137323201172 -1.8263068513261768e-10 0.10477137323201172 3.024016222041487 -6.043818869838938e-10 -1.5643937974928896 -1.459622423982103 2.139585375158789" Properties=species:S:1:pos:R:3:spacegroup_kinds:I:1:forces:R:3 spacegroup="P 1" unit_cell=conventional occupancy="_JSON {\"0\": {\"In\": 1}}" n_minim_iter=1 energy=-1971.3395388011504 stress="-0.2932447701456897 -1.1715982537222869e-12 2.312988222118013e-13 -1.1715982537222869e-12 -0.2932447701461431 -2.479116629521841e-13 2.312988222118013e-13 -2.479116629521841e-13 -0.2932447701443922" free_energy=-1971.3395388011504 pbc="T T T"
In       0.00000000       0.00000000       0.00000000        0      -0.00000000       0.00000000      -0.00000000
