40
Lattice="9.403539529750727 7.370269007651015e-10 2.2349439085703178e-14 -3.1345131772784516 8.865742091277648 -1.2765782833829412e-09 -3.134513176236158 -4.432871044901792 7.6779578752984685" Properties=species:S:1:pos:R:3:spacegroup_kinds:I:1:forces:R:3 spacegroup="P 1" unit_cell=conventional occupancy="_JSON {\"0\": {\"In\": 1}, \"1\": {\"In\": 1}, \"2\": {\"In\": 1}, \"3\": {\"In\": 1}, \"4\": {\"In\": 1}, \"5\": {\"In\": 1}, \"6\": {\"In\": 1}, \"7\": {\"In\": 1}, \"8\": {\"In\": 1}, \"9\": {\"In\": 1}, \"10\": {\"In\": 1}, \"11\": {\"In\": 1}, \"12\": {\"In\": 1}, \"13\": {\"In\": 1}, \"14\": {\"In\": 1}, \"15\": {\"In\": 1}, \"16\": {\"O\": 1}, \"17\": {\"O\": 1}, \"18\": {\"O\": 1}, \"19\": {\"O\": 1}, \"20\": {\"O\": 1}, \"21\": {\"O\": 1}, \"22\": {\"O\": 1}, \"23\": {\"O\": 1}, \"24\": {\"O\": 1}, \"25\": {\"O\": 1}, \"26\": {\"O\": 1}, \"27\": {\"O\": 1}, \"28\": {\"O\": 1}, \"29\": {\"O\": 1}, \"30\": {\"O\": 1}, \"31\": {\"O\": 1}, \"32\": {\"O\": 1}, \"33\": {\"O\": 1}, \"34\": {\"O\": 1}, \"35\": {\"O\": 1}, \"36\": {\"O\": 1}, \"37\": {\"O\": 1}, \"38\": {\"O\": 1}, \"39\": {\"O\": 1}}" n_minim_iter=7 energy=-45146.56060729038 stress="0.09234248972461194 -6.470587696312815e-14 -1.688516809987182e-13 -6.470587696312815e-14 0.09234248972473937 8.785147992892252e-14 -1.688516809987182e-13 8.785147992892252e-14 0.09234248972433726" free_energy=-45146.56060729038 pbc="T T T"
In      -4.45890622       3.15292282       6.05591429        0       0.00194705      -0.00137677       0.00238464
In       7.59341939       1.27994823       1.62204358        1      -0.00194705       0.00137677      -0.00238464
In       1.32439304      -0.93648730       5.46102252        2      -0.00194705       0.00137677      -0.00238464
In      -1.56725659      -2.21643552       3.83897894        3       0.00000000       0.00000000      -0.00000000
In      -1.32439304       4.26114058       3.54153305        4       0.00194705      -0.00137677      -0.00238464
In       4.94463331      -2.98119236       5.75846840        5       0.00194705       0.00275355      -0.00000000
In      -1.32439304       1.45167869       5.75846840        6       0.00194705       0.00275355       0.00000000
In      -1.81012014       7.41406341       1.91948947        7      -0.00194705      -0.00275355       0.00000000
In       4.45890621       0.17173047       4.13642482        8      -0.00194705       0.00137677       0.00238464
In      -1.56725659       4.43287105      -0.00000000        9      -0.00000000       0.00000000      -0.00000000
In       4.45890621       6.82103703       0.29744588       10      -0.00194705       0.00137677       0.00238464
In      -1.32439304      -2.38816598       7.38051199       11       0.00194705      -0.00137677      -0.00238464
In       4.45890621       2.98119236       1.91948947       12      -0.00194705      -0.00275355       0.00000000
In       1.81012014       5.36935835       2.21693535       13       0.00194705      -0.00137677       0.00238464
In       4.70176976       0.00000000      -0.00000000       14      -0.00000000      -0.00000000       0.00000000
In       1.56725659       2.21643553       3.83897893       15       0.00000000       0.00000000       0.00000000
O        1.06359173       4.45192234       4.13785526       16       0.00034358      -0.00410888       0.00027520
O       -2.07092144       3.57396213       5.59253133       17       0.00034358       0.00229277       0.00342079
O       -0.43729478       2.41881364      -0.08465067       18      -0.00159772       0.00366547       0.00104319
O       -1.06359174      -0.83985762       2.05242873       19      -0.00034358      -0.00181611       0.00369599
O        4.05987096       5.22385558       2.13707939       20       0.00204711       0.00241840       0.00265280
O        2.20915539       2.97759827       1.75355239       21      -0.00204711      -0.00108819       0.00342079
O        2.20915539       6.67912836       0.38352699       22      -0.00204711       0.00350659      -0.00076800
O       -2.42624430       6.25532083       3.75432827       23      -0.00398841       0.00028452       0.00104319
O        3.57180795       2.01405741       7.76260853       24       0.00159772      -0.00366547      -0.00104319
O        5.56075747      -1.82244978       3.92362960       25       0.00398841      -0.00028452      -0.00104319
O        6.70632113       3.35253272       1.70189954       26       0.00159772       0.00273617      -0.00265280
O        3.84278206       2.34011877       4.22250593       27      -0.00398841       0.00076117      -0.00076800
O        0.70826888       4.70317354       7.37908154       28      -0.00398841      -0.00104569      -0.00027520
O        2.42624429      -0.27030249       0.29887633       29       0.00398841       0.00104569       0.00027520
O       -3.57180796       1.08033833       5.97605832       30      -0.00159772      -0.00273617       0.00265280
O        5.20543462       0.85890892       2.08542654       31      -0.00034358      -0.00229277      -0.00342079
O        0.92535778       1.45527278       5.92440547       32       0.00204711       0.00108819      -0.00342079
O        3.57180795      -0.93371908       5.89140766       33       0.00159772       0.00092930       0.00369599
O        2.07092144      -0.01905129       3.54010260       34      -0.00034358       0.00410888      -0.00027520
O        0.92535778      -2.24625731       7.29443088       35       0.00204711      -0.00350659       0.00076800
O       -0.70826888       2.09275228       3.45545194       36       0.00398841      -0.00076117       0.00076800
O       -0.92535778      -0.79098453       5.54087848       37      -0.00204711      -0.00241840      -0.00265280
O       -0.43729478       5.36659013       1.78655021       38      -0.00159772      -0.00092930      -0.00369599
O        4.19810491       5.27272867       5.62552914       39       0.00034358       0.00181611      -0.00369599
