40
Lattice="8.523436893116234 6.680441543725164e-10 2.310364352164634e-14 -2.8411456316685824 8.035973367961432 -1.157103236873925e-09 -2.8411456307238434 -4.017986683312666 6.959357081561184" Properties=species:S:1:pos:R:3:spacegroup_kinds:I:1:forces:R:3 spacegroup="P 1" unit_cell=conventional occupancy="_JSON {\"0\": {\"In\": 1}, \"1\": {\"In\": 1}, \"2\": {\"In\": 1}, \"3\": {\"In\": 1}, \"4\": {\"In\": 1}, \"5\": {\"In\": 1}, \"6\": {\"In\": 1}, \"7\": {\"In\": 1}, \"8\": {\"In\": 1}, \"9\": {\"In\": 1}, \"10\": {\"In\": 1}, \"11\": {\"In\": 1}, \"12\": {\"In\": 1}, \"13\": {\"In\": 1}, \"14\": {\"In\": 1}, \"15\": {\"In\": 1}, \"16\": {\"O\": 1}, \"17\": {\"O\": 1}, \"18\": {\"O\": 1}, \"19\": {\"O\": 1}, \"20\": {\"O\": 1}, \"21\": {\"O\": 1}, \"22\": {\"O\": 1}, \"23\": {\"O\": 1}, \"24\": {\"O\": 1}, \"25\": {\"O\": 1}, \"26\": {\"O\": 1}, \"27\": {\"O\": 1}, \"28\": {\"O\": 1}, \"29\": {\"O\": 1}, \"30\": {\"O\": 1}, \"31\": {\"O\": 1}, \"32\": {\"O\": 1}, \"33\": {\"O\": 1}, \"34\": {\"O\": 1}, \"35\": {\"O\": 1}, \"36\": {\"O\": 1}, \"37\": {\"O\": 1}, \"38\": {\"O\": 1}, \"39\": {\"O\": 1}}" n_minim_iter=1 energy=-45146.94881547947 stress="-0.16659153253959533 3.0355328114089953e-13 -5.4782145413016823e-14 3.0355328114089953e-13 -0.16659153253961392 2.7580894240735037e-13 -5.4782145413016823e-14 2.7580894240735037e-13 -0.1665915325396873" free_energy=-45146.94881547947 pbc="T T T"
In      -4.06472575       2.87419514       5.46078360        0      -0.01671535       0.01181954      -0.02047204
In       6.90587138       1.14379154       1.49857348        1       0.01671535      -0.01181954       0.02047204
In       1.22358012      -0.86520180       4.97825202        2       0.01671535      -0.01181954       0.02047204
In      -1.42057282      -2.00899334       3.47967854        3       0.00000000      -0.00000000      -0.00000000
In      -1.22358012       3.87869182       3.23841275        4      -0.01671535       0.01181954       0.02047204
In       4.45871114      -2.73490027       5.21951781        5      -0.01671535      -0.02363907       0.00000000
In      -1.22358012       1.28308641       5.21951781        6      -0.01671535      -0.02363907       0.00000000
In      -1.61756551       6.75288696       1.73983927        7       0.01671535       0.02363907       0.00000000
In       4.06472575       0.13929487       3.72094433        8       0.01671535      -0.01181954      -0.02047204
In      -1.42057282       4.01798669      -0.00000000        9       0.00000000       0.00000000       0.00000000
In       4.06472575       6.16627490       0.24126579       10       0.01671535      -0.01181954      -0.02047204
In      -1.22358012      -2.14828821       6.71809129       11      -0.01671535       0.01181954       0.02047204
In       4.06472575       2.73490028       1.73983927       12       0.01671535       0.02363907      -0.00000000
In       1.61756551       4.88318849       1.98110506       13      -0.01671535       0.01181954      -0.02047204
In       4.26171845       0.00000000      -0.00000000       14       0.00000000      -0.00000000       0.00000000
In       1.42057281       2.00899334       3.47967854       15       0.00000000      -0.00000000       0.00000000
O        0.81847018       4.01233030       3.81232238       16      -0.02273327      -0.01331174       0.09468111
O       -2.02267545       3.30439623       5.05809446       17      -0.02273327       0.08865211      -0.03581225
O       -0.40528904       2.16073132       0.07962309       18       0.06345383       0.02770863       0.06974496
O       -0.81847018      -0.71924684       1.91105976       19       0.02273327       0.07534038       0.05886885
O        3.78963979       4.78320395       1.83143667       20       0.09115977      -0.03507311      -0.01087610
O        1.89265147       2.81452464       1.57841592       21      -0.09115977      -0.00811757      -0.03581225
O        1.89265147       5.98666600       0.25302074       22      -0.09115977      -0.02695554       0.02493615
O       -2.17225337       5.68884642       3.55930163       23      -0.00497267      -0.06906106       0.06974496
O        3.24643466       1.85725536       6.87973398       24      -0.06345383      -0.02770863      -0.06974496
O        5.01339900      -1.67085973       3.40005544       25       0.00497267       0.06906106      -0.06974496
O        6.08758029       3.15831463       1.64824187       26      -0.06345383       0.07425522       0.01087610
O        3.51003789       2.24701577       3.73269928       27      -0.00497267       0.09493143       0.02493615
O        0.66889226       4.11809787       6.62671323       28      -0.00497267      -0.02587038      -0.09468111
O        2.17225337      -0.10011118       0.33264384       29       0.00497267       0.02587038       0.09468111
O       -3.24643467       0.85967206       5.31111521       30       0.06345383      -0.07425522      -0.01087610
O        4.86382108       0.71359046       1.90126262       31       0.02273327      -0.08865211       0.03581225
O        0.94849415       1.20346205       5.38094116       32       0.09115977       0.00811757       0.03581225
O        3.24643466      -0.99758330       5.39073830       33      -0.06345383      -0.04654659       0.05886885
O        2.02267545       0.00565639       3.14703469       34       0.02273327       0.01331174      -0.09468111
O        0.94849416      -1.96867931       6.70633633       35       0.09115977       0.02695554      -0.02493615
O       -0.66889226       1.77097091       3.22665779       36       0.00497267      -0.09493143      -0.02493615
O       -0.94849416      -0.76521726       5.12792041       37      -0.09115977       0.03507311       0.01087610
O       -0.40528904       5.01556999       1.56861877       38       0.06345383       0.04654659      -0.05886885
O        3.65961581       4.73723353       5.04829731       39      -0.02273327      -0.07534038      -0.05886885
40
Lattice="8.523436893116232 6.680441543725163e-10 2.3103643521646347e-14 -2.841145631668582 8.03597336796143 -1.1571032368739248e-09 -2.841145630723843 -4.017986683312665 6.959357081561183" Properties=species:S:1:pos:R:3:spacegroup_kinds:I:1:forces:R:3 spacegroup="P 1" unit_cell=conventional occupancy="_JSON {\"0\": {\"In\": 1}, \"1\": {\"In\": 1}, \"2\": {\"In\": 1}, \"3\": {\"In\": 1}, \"4\": {\"In\": 1}, \"5\": {\"In\": 1}, \"6\": {\"In\": 1}, \"7\": {\"In\": 1}, \"8\": {\"In\": 1}, \"9\": {\"In\": 1}, \"10\": {\"In\": 1}, \"11\": {\"In\": 1}, \"12\": {\"In\": 1}, \"13\": {\"In\": 1}, \"14\": {\"In\": 1}, \"15\": {\"In\": 1}, \"16\": {\"O\": 1}, \"17\": {\"O\": 1}, \"18\": {\"O\": 1}, \"19\": {\"O\": 1}, \"20\": {\"O\": 1}, \"21\": {\"O\": 1}, \"22\": {\"O\": 1}, \"23\": {\"O\": 1}, \"24\": {\"O\": 1}, \"25\": {\"O\": 1}, \"26\": {\"O\": 1}, \"27\": {\"O\": 1}, \"28\": {\"O\": 1}, \"29\": {\"O\": 1}, \"30\": {\"O\": 1}, \"31\": {\"O\": 1}, \"32\": {\"O\": 1}, \"33\": {\"O\": 1}, \"34\": {\"O\": 1}, \"35\": {\"O\": 1}, \"36\": {\"O\": 1}, \"37\": {\"O\": 1}, \"38\": {\"O\": 1}, \"39\": {\"O\": 1}}" n_minim_iter=2 energy=-45146.954008072644 stress="-0.16577567851502795 1.5932105668906196e-13 1.2159338625941101e-13 1.5932105668906196e-13 -0.16577567851551156 -2.7908423728472717e-16 1.2159338625941101e-13 -2.7908423728472717e-16 -0.1657756785152355" free_energy=-45146.954008072644 pbc="T T T"
In      -4.06544523       2.87470389       5.45990242        0       0.02389627      -0.01689722       0.02926684
In       6.90659086       1.14328280       1.49945465        1      -0.02389627       0.01689722      -0.02926684
In       1.22429960      -0.86571055       4.97913319        2      -0.02389627       0.01689722      -0.02926684
In      -1.42057282      -2.00899334       3.47967854        3      -0.00000000       0.00000000       0.00000000
In      -1.22429960       3.87920056       3.23929392        4       0.02389627      -0.01689722      -0.02926684
In       4.45799166      -2.73591777       5.21951781        5       0.02389627       0.03379443      -0.00000000
In      -1.22429960       1.28206892       5.21951781        6       0.02389627       0.03379443      -0.00000000
In      -1.61684603       6.75390445       1.73983927        7      -0.02389627      -0.03379443       0.00000000
In       4.06544523       0.13878612       3.72006315        8      -0.02389627       0.01689722       0.02926684
In      -1.42057282       4.01798669      -0.00000000        9       0.00000000      -0.00000000       0.00000000
In       4.06544523       6.16576615       0.24038461       10      -0.02389627       0.01689722       0.02926684
In      -1.22429960      -2.14777946       6.71897246       11       0.02389627      -0.01689722      -0.02926684
In       4.06544523       2.73591777       1.73983927       12      -0.02389627      -0.03379443      -0.00000000
In       1.61684603       4.88369723       1.98022388       13       0.02389627      -0.01689722       0.02926684
In       4.26171845       0.00000000      -0.00000000       14      -0.00000000       0.00000000      -0.00000000
In       1.42057281       2.00899334       3.47967854       15       0.00000000       0.00000000      -0.00000000
O        0.81749167       4.01175732       3.81639773       16      -0.03554708      -0.02164752      -0.00525686
O       -2.02365396       3.30821207       5.05655299       17      -0.03554708       0.00627119       0.02137573
O       -0.40255780       2.16192399       0.08262512       18      -0.02634597      -0.00023498       0.03264474
O       -0.81749168      -0.71600397       1.91359365       19       0.03554708      -0.01537633       0.01611887
O        3.79356357       4.78169430       1.83096853       20       0.01776156       0.03422378      -0.01652587
O        1.88872769       2.81417523       1.57687445       21      -0.01776156       0.03142372       0.02137573
O        1.88872769       5.98550575       0.25409407       22      -0.01776156       0.00280007      -0.03790160
O       -2.17246741       5.68587383       3.56230366       23      -0.00856045       0.02491755       0.03264474
O        3.24370342       1.85606270       6.87673195       24       0.02634597       0.00023498      -0.03264474
O        5.01361304      -1.66788714       3.39705341       25       0.00856045      -0.02491755      -0.03264474
O        6.08484905       3.16151079       1.64871001       26       0.02634597       0.02815369       0.01652587
O        3.50982385       2.25110190       3.73377261       27      -0.00856045       0.01581240      -0.03790160
O        0.66867822       4.11698433       6.62263788       28      -0.00856045      -0.04072995       0.00525686
O        2.17246741      -0.09899764       0.33671920       29       0.00856045       0.04072995      -0.00525686
O       -3.24370343       0.85647589       5.31064707       30      -0.02634597      -0.02815369      -0.01652587
O        4.86479958       0.70977461       1.90280408       31       0.03554708      -0.00627119      -0.02137573
O        0.95241794       1.20381146       5.38248262       32       0.01776156      -0.03142372      -0.02137573
O        3.24370342      -0.99958680       5.39327219       33       0.02634597      -0.02838867       0.01611887
O        2.02365395       0.00622936       3.14295934       34       0.03554708       0.02164752       0.00525686
O        0.95241794      -1.96751906       6.70526301       35       0.01776156      -0.00280007       0.03790160
O       -0.66867822       1.76688479       3.22558447       36       0.00856045      -0.01581240       0.03790160
O       -0.95241794      -0.76370761       5.12838855       37      -0.01776156      -0.03422378       0.01652587
O       -0.40255780       5.01757349       1.56608488       38      -0.02634597       0.02838867      -0.01611887
O        3.65863731       4.73399066       5.04576342       39      -0.03554708       0.01537633      -0.01611887
40
Lattice="8.52343689311623 6.680441543725161e-10 2.3103643521646357e-14 -2.841145631668581 8.035973367961429 -1.1571032368739246e-09 -2.841145630723842 -4.017986683312664 6.959357081561186" Properties=species:S:1:pos:R:3:spacegroup_kinds:I:1:forces:R:3 spacegroup="P 1" unit_cell=conventional occupancy="_JSON {\"0\": {\"In\": 1}, \"1\": {\"In\": 1}, \"2\": {\"In\": 1}, \"3\": {\"In\": 1}, \"4\": {\"In\": 1}, \"5\": {\"In\": 1}, \"6\": {\"In\": 1}, \"7\": {\"In\": 1}, \"8\": {\"In\": 1}, \"9\": {\"In\": 1}, \"10\": {\"In\": 1}, \"11\": {\"In\": 1}, \"12\": {\"In\": 1}, \"13\": {\"In\": 1}, \"14\": {\"In\": 1}, \"15\": {\"In\": 1}, \"16\": {\"O\": 1}, \"17\": {\"O\": 1}, \"18\": {\"O\": 1}, \"19\": {\"O\": 1}, \"20\": {\"O\": 1}, \"21\": {\"O\": 1}, \"22\": {\"O\": 1}, \"23\": {\"O\": 1}, \"24\": {\"O\": 1}, \"25\": {\"O\": 1}, \"26\": {\"O\": 1}, \"27\": {\"O\": 1}, \"28\": {\"O\": 1}, \"29\": {\"O\": 1}, \"30\": {\"O\": 1}, \"31\": {\"O\": 1}, \"32\": {\"O\": 1}, \"33\": {\"O\": 1}, \"34\": {\"O\": 1}, \"35\": {\"O\": 1}, \"36\": {\"O\": 1}, \"37\": {\"O\": 1}, \"38\": {\"O\": 1}, \"39\": {\"O\": 1}}" n_minim_iter=3 energy=-45146.9557200314 stress="-0.1655018963095868 1.2018684362727042e-13 -1.926183158008493e-13 1.2018684362727042e-13 -0.16550189630913034 -1.0994771867967864e-13 -1.926183158008493e-13 -1.0994771867967864e-13 -0.16550189630907067" free_energy=-45146.9557200314 pbc="T T T"
In      -4.06437865       2.87394970       5.46120872        0      -0.00295344       0.00208839      -0.00361720
In       6.90552427       1.14403699       1.49814836        1       0.00295344      -0.00208839       0.00361720
In       1.22323301      -0.86495636       4.97782690        2       0.00295344      -0.00208839       0.00361720
In      -1.42057282      -2.00899334       3.47967854        3       0.00000000       0.00000000       0.00000000
In      -1.22323301       3.87844637       3.23798763        4      -0.00295344       0.00208839       0.00361720
In       4.45905825      -2.73440938       5.21951781        5      -0.00295344      -0.00417679       0.00000000
In      -1.22323301       1.28357730       5.21951781        6      -0.00295344      -0.00417679      -0.00000000
In      -1.61791262       6.75239607       1.73983927        7       0.00295344       0.00417679      -0.00000000
In       4.06437864       0.13954032       3.72136945        8       0.00295344      -0.00208839      -0.00361720
In      -1.42057282       4.01798669      -0.00000000        9       0.00000000      -0.00000000      -0.00000000
In       4.06437864       6.16652034       0.24169091       10       0.00295344      -0.00208839      -0.00361720
In      -1.22323301      -2.14853365       6.71766617       11      -0.00295344       0.00208839       0.00361720
In       4.06437864       2.73440939       1.73983927       12       0.00295344       0.00417679      -0.00000000
In       1.61791262       4.88294304       1.98153018       13      -0.00295344       0.00208839      -0.00361720
In       4.26171845       0.00000000      -0.00000000       14      -0.00000000      -0.00000000       0.00000000
In       1.42057281       2.00899334       3.47967854       15      -0.00000000      -0.00000000       0.00000000
O        0.81523153       4.01038847       3.81745084       16      -0.01147808       0.01461329      -0.00107335
O       -2.02591410       3.30980851       5.05721190       17      -0.01147808      -0.00823619      -0.01211881
O       -0.40309660       2.16230326       0.08539223       18       0.00218636      -0.01789841       0.00461665
O       -0.81523154      -0.71577638       1.91530566       19       0.01147808       0.00637710      -0.01319215
O        3.79582209       4.78306430       1.82991343       20      -0.00393913      -0.00371168      -0.01780880
O        1.88646917       2.81577397       1.57753336       21       0.00393913       0.01356704      -0.01211881
O        1.88646917       5.98527701       0.25238007       22       0.00393913      -0.01727871      -0.00569000
O       -2.17300460       5.68625540       3.56507077       23       0.01760357       0.00390482       0.00461665
O        3.24424223       1.85568343       6.87396485       24      -0.00218636       0.01789841      -0.00461665
O        5.01415023      -1.66826871       3.39428631       25      -0.01760357      -0.00390482      -0.00461665
O        6.08538786       3.16409681       1.64976510       26      -0.00218636      -0.00495107       0.01780880
O        3.50928667       2.25330750       3.73205861       27       0.01760357       0.00204573      -0.00569000
O        0.66814103       4.11439716       6.62158478       28       0.01760357      -0.00595054       0.00107335
O        2.17300459      -0.09641048       0.33777230       29      -0.01760357       0.00595054      -0.00107335
O       -3.24424223       0.85388988       5.30959198       30       0.00218636       0.00495107      -0.01780880
O        4.86705973       0.70817817       1.90214517       31       0.01147808       0.00823619       0.01211881
O        0.95467646       1.20221272       5.38182371       32      -0.00393913      -0.01356704       0.01211881
O        3.24424223      -1.00179355       5.39498420       33      -0.00218636      -0.01294734      -0.01319215
O        2.02591410       0.00759821       3.14190624       34       0.01147808      -0.01461329       0.00107335
O        0.95467646      -1.96729033       6.70697701       35      -0.00393913       0.01727871       0.00569000
O       -0.66814104       1.76467919       3.22729847       36      -0.01760357      -0.00204573       0.00569000
O       -0.95467646      -0.76507761       5.12944364       37       0.00393913       0.00371168       0.01780880
O       -0.40309660       5.01978024       1.56437287       38       0.00218636       0.01294734       0.01319215
O        3.65637716       4.73376307       5.04405141       39      -0.01147808      -0.00637710       0.01319215
40
Lattice="8.523436893116227 6.680441543725159e-10 2.310364352164636e-14 -2.84114563166858 8.035973367961425 -1.1571032368739246e-09 -2.841145630723841 -4.017986683312662 6.959357081561185" Properties=species:S:1:pos:R:3:spacegroup_kinds:I:1:forces:R:3 spacegroup="P 1" unit_cell=conventional occupancy="_JSON {\"0\": {\"In\": 1}, \"1\": {\"In\": 1}, \"2\": {\"In\": 1}, \"3\": {\"In\": 1}, \"4\": {\"In\": 1}, \"5\": {\"In\": 1}, \"6\": {\"In\": 1}, \"7\": {\"In\": 1}, \"8\": {\"In\": 1}, \"9\": {\"In\": 1}, \"10\": {\"In\": 1}, \"11\": {\"In\": 1}, \"12\": {\"In\": 1}, \"13\": {\"In\": 1}, \"14\": {\"In\": 1}, \"15\": {\"In\": 1}, \"16\": {\"O\": 1}, \"17\": {\"O\": 1}, \"18\": {\"O\": 1}, \"19\": {\"O\": 1}, \"20\": {\"O\": 1}, \"21\": {\"O\": 1}, \"22\": {\"O\": 1}, \"23\": {\"O\": 1}, \"24\": {\"O\": 1}, \"25\": {\"O\": 1}, \"26\": {\"O\": 1}, \"27\": {\"O\": 1}, \"28\": {\"O\": 1}, \"29\": {\"O\": 1}, \"30\": {\"O\": 1}, \"31\": {\"O\": 1}, \"32\": {\"O\": 1}, \"33\": {\"O\": 1}, \"34\": {\"O\": 1}, \"35\": {\"O\": 1}, \"36\": {\"O\": 1}, \"37\": {\"O\": 1}, \"38\": {\"O\": 1}, \"39\": {\"O\": 1}}" n_minim_iter=4 energy=-45146.95602521263 stress="-0.16540869492252117 -4.374303333084243e-14 -5.4661381651671514e-14 -4.374303333084243e-14 -0.16540869492252477 1.1017404883413851e-13 -5.4661381651671514e-14 1.1017404883413851e-13 -0.16540869492280913" free_energy=-45146.95602521263 pbc="T T T"
In      -4.06439772       2.87396319       5.46118536        0      -0.00348760       0.00246610      -0.00427142
In       6.90554334       1.14402350       1.49817171        1       0.00348760      -0.00246610       0.00427142
In       1.22325208      -0.86496984       4.97785025        2       0.00348760      -0.00246610       0.00427142
In      -1.42057282      -2.00899334       3.47967854        3      -0.00000000       0.00000000      -0.00000000
In      -1.22325209       3.87845986       3.23801098        4      -0.00348760       0.00246610       0.00427142
In       4.45903918      -2.73443636       5.21951781        5      -0.00348760      -0.00493221       0.00000000
In      -1.22325209       1.28355033       5.21951781        6      -0.00348760      -0.00493221       0.00000000
In      -1.61789355       6.75242304       1.73983927        7       0.00348760       0.00493221      -0.00000000
In       4.06439771       0.13952683       3.72134609        8       0.00348760      -0.00246610      -0.00427142
In      -1.42057282       4.01798669      -0.00000000        9      -0.00000000       0.00000000       0.00000000
In       4.06439771       6.16650686       0.24166755       10       0.00348760      -0.00246610      -0.00427142
In      -1.22325208      -2.14852017       6.71768952       11      -0.00348760       0.00246610       0.00427142
In       4.06439771       2.73443636       1.73983927       12       0.00348760       0.00493221       0.00000000
In       1.61789355       4.88295653       1.98150682       13      -0.00348760       0.00246610      -0.00427142
In       4.26171845       0.00000000      -0.00000000       14      -0.00000000      -0.00000000      -0.00000000
In       1.42057281       2.00899334       3.47967854       15       0.00000000       0.00000000      -0.00000000
O        0.81399061       4.01116054       3.81761645       16      -0.00243474      -0.00322943      -0.00374753
O       -2.02715502       3.30956590       5.05646047       17      -0.00243474      -0.00163074       0.00467053
O       -0.40301107       2.16112271       0.08626536       18      -0.00539379       0.00046162       0.00104645
O       -0.81399062      -0.71524693       1.91471984       19       0.00243474      -0.00486017       0.00092300
O        3.79600699       4.78303895       1.82845448       20      -0.00072590       0.00546434      -0.00012345
O        1.88628427       2.81702479       1.57678193       21       0.00072590       0.00283908       0.00467053
O        1.88628426       5.98400085       0.25167254       22       0.00072590       0.00262526      -0.00479398
O       -2.17186305       5.68656827       3.56594390       23      -0.00223315       0.00493144       0.00104645
O        3.24415670       1.85686398       6.87309171       24       0.00539379      -0.00046162      -0.00104645
O        5.01300868      -1.66858158       3.39341317       25       0.00223315      -0.00493144      -0.00104645
O        6.08530233       3.16426269       1.65122406       26       0.00539379       0.00113706       0.00012345
O        3.51042821       2.25390722       3.73135108       27      -0.00223315      -0.00155947      -0.00479398
O        0.66928258       4.11348457       6.62141917       28      -0.00223315      -0.00337197       0.00374753
O        2.17186305      -0.09549788       0.33793791       29       0.00223315       0.00337197      -0.00374753
O       -3.24415670       0.85372400       5.30813302       30      -0.00539379      -0.00113706      -0.00012345
O        4.86830065       0.70842078       1.90289660       31       0.00243474       0.00163074      -0.00467053
O        0.95486136       1.20096190       5.38257514       32      -0.00072590      -0.00283908      -0.00467053
O        3.24415670      -1.00313998       5.39439838       33       0.00539379      -0.00067544       0.00092300
O        2.02715501       0.00682615       3.14174063       34       0.00243474       0.00322943       0.00374753
O        0.95486136      -1.96601416       6.70768453       35      -0.00072590      -0.00262526       0.00479398
O       -0.66928258       1.76407947       3.22800599       36       0.00223315       0.00155947       0.00479398
O       -0.95486137      -0.76505226       5.13090260       37       0.00072590      -0.00546434       0.00012345
O       -0.40301107       5.02112667       1.56495869       38      -0.00539379       0.00067544      -0.00092300
O        3.65513624       4.73323362       5.04463723       39      -0.00243474       0.00486017      -0.00092300
