40
Lattice="8.357891235365102 6.550687795141456e-10 2.7179172489431196e-14 -2.785963745739306 7.879895425043342 -1.1346315895968341e-09 -2.785963744812921 -3.939947711866593 6.824189618008718" Properties=species:S:1:pos:R:3:spacegroup_kinds:I:1:forces:R:3 spacegroup="P 1" unit_cell=conventional occupancy="_JSON {\"0\": {\"In\": 1}, \"1\": {\"In\": 1}, \"2\": {\"In\": 1}, \"3\": {\"In\": 1}, \"4\": {\"In\": 1}, \"5\": {\"In\": 1}, \"6\": {\"In\": 1}, \"7\": {\"In\": 1}, \"8\": {\"In\": 1}, \"9\": {\"In\": 1}, \"10\": {\"In\": 1}, \"11\": {\"In\": 1}, \"12\": {\"In\": 1}, \"13\": {\"In\": 1}, \"14\": {\"In\": 1}, \"15\": {\"In\": 1}, \"16\": {\"O\": 1}, \"17\": {\"O\": 1}, \"18\": {\"O\": 1}, \"19\": {\"O\": 1}, \"20\": {\"O\": 1}, \"21\": {\"O\": 1}, \"22\": {\"O\": 1}, \"23\": {\"O\": 1}, \"24\": {\"O\": 1}, \"25\": {\"O\": 1}, \"26\": {\"O\": 1}, \"27\": {\"O\": 1}, \"28\": {\"O\": 1}, \"29\": {\"O\": 1}, \"30\": {\"O\": 1}, \"31\": {\"O\": 1}, \"32\": {\"O\": 1}, \"33\": {\"O\": 1}, \"34\": {\"O\": 1}, \"35\": {\"O\": 1}, \"36\": {\"O\": 1}, \"37\": {\"O\": 1}, \"38\": {\"O\": 1}, \"39\": {\"O\": 1}}" n_minim_iter=1 energy=-45141.04620939744 stress="-0.27452742046926176 1.189359130117362e-13 2.6363338549163445e-13 1.189359130117362e-13 -0.274527420468815 2.1136746055532215e-14 2.6363338549163445e-13 2.1136746055532215e-14 -0.2745274204690223" free_energy=-45141.04620939744 pbc="T T T"
In      -3.98405813       2.81715452       5.35682966        0       0.01102026      -0.00779250       0.01349700
In       6.77002188       1.12279319       1.46735995        1      -0.01102026       0.00779250      -0.01349700
In       1.19809439      -0.84718066       4.87945476        2      -0.01102026       0.00779250      -0.01349700
In      -1.39298187      -1.96997385       3.41209481        3       0.00000000      -0.00000000      -0.00000000
In      -1.19809439       3.80214145       3.17340736        4       0.01102026      -0.00779250      -0.01349700
In       4.37383310      -2.67934826       5.11814221        5       0.01102026       0.01558500      -0.00000000
In      -1.19809439       1.26059945       5.11814221        6       0.01102026       0.01558500       0.00000000
In      -1.58786936       6.61929597       1.70604740        7      -0.01102026      -0.01558500       0.00000000
In       3.98405813       0.13780626       3.65078225        8      -0.01102026       0.00779250       0.01349700
In      -1.39298187       3.93994771      -0.00000000        9       0.00000000       0.00000000       0.00000000
In       3.98405813       6.04772783       0.23868745       10      -0.01102026       0.00779250       0.01349700
In      -1.19809439      -2.10778012       6.58550217       11       0.01102026      -0.00779250      -0.01349700
In       3.98405813       2.67934826       1.70604740       12      -0.01102026      -0.01558500       0.00000000
In       1.58786936       4.78712838       1.94473485       13       0.01102026      -0.00779250       0.01349700
In       4.17894562       0.00000000      -0.00000000       14      -0.00000000       0.00000000      -0.00000000
In       1.39298187       1.96997386       3.41209481       15      -0.00000000      -0.00000000      -0.00000000
O        0.79437755       3.93206845       3.74929063       16      -0.01126070      -0.02748324       0.12899182
O       -1.99158620       3.25092057       4.95636794       17      -0.01126070       0.12545181      -0.04069472
O       -0.39225715       2.12002415       0.09094837       18       0.08861208       0.05483109       0.08162396
O       -0.79437755      -0.69690641       1.88146896       19       0.01126070       0.09796857       0.08829710
O        3.72885937       4.68936319       1.79052058       20       0.12203067      -0.05084295       0.00667313
O        1.84306812       2.76401914       1.54427313       21      -0.12203067      -0.03120058      -0.04069472
O        1.84306812       5.86529176       0.24624745       22      -0.12203067      -0.01964237       0.04736785
O       -2.12953032       5.57307044       3.50304318       23      -0.02215788      -0.10182130       0.08162396
O        3.17822089       1.81992356       6.73324124       24      -0.08861208      -0.05483109      -0.08162396
O        4.91549406      -1.63312272       3.32114643       25       0.02215788       0.10182130      -0.08162396
O        5.96418463       3.10874954       1.62157422       26      -0.08861208       0.09810397      -0.00667313
O        3.44239717       2.21716303       3.65834226       27      -0.02215788       0.12159908       0.04736785
O        0.65643342       4.02960968       6.48699379       28      -0.02215788      -0.01977777      -0.12899182
O        2.12953032      -0.08966196       0.33719582       29       0.02215788       0.01977777       0.12899182
O       -3.17822089       0.83119818       5.20261539       30       0.08861208      -0.09810397       0.00667313
O        4.77754994       0.68902715       1.86782167       31       0.01126070      -0.12545181       0.04069472
O        0.94289562       1.17592857       5.27991648       32       0.12203067       0.03120058       0.04069472
O        3.17822089      -0.98872538       5.29356377       33      -0.08861208      -0.04327288       0.08829710
O        1.99158619       0.00787926       3.07489898       34       0.01126070       0.02748324      -0.12899182
O        0.94289562      -1.92534405       6.57794216       35       0.12203067       0.01964237      -0.04736785
O       -0.65643343       1.72278469       3.16584736       36       0.02215788      -0.12159908      -0.04736785
O       -0.94289563      -0.74941547       5.03366903       37      -0.12203067       0.05084295      -0.00667313
O       -0.39225715       4.92867310       1.53062585       38       0.08861208       0.04327288      -0.08829710
O        3.58034129       4.63685412       4.94272066       39      -0.01126070      -0.09796857      -0.08829710
40
Lattice="8.357891235365102 6.550687795141456e-10 2.7179172489431206e-14 -2.785963745739306 7.879895425043342 -1.1346315895968341e-09 -2.785963744812921 -3.939947711866593 6.824189618008718" Properties=species:S:1:pos:R:3:spacegroup_kinds:I:1:forces:R:3 spacegroup="P 1" unit_cell=conventional occupancy="_JSON {\"0\": {\"In\": 1}, \"1\": {\"In\": 1}, \"2\": {\"In\": 1}, \"3\": {\"In\": 1}, \"4\": {\"In\": 1}, \"5\": {\"In\": 1}, \"6\": {\"In\": 1}, \"7\": {\"In\": 1}, \"8\": {\"In\": 1}, \"9\": {\"In\": 1}, \"10\": {\"In\": 1}, \"11\": {\"In\": 1}, \"12\": {\"In\": 1}, \"13\": {\"In\": 1}, \"14\": {\"In\": 1}, \"15\": {\"In\": 1}, \"16\": {\"O\": 1}, \"17\": {\"O\": 1}, \"18\": {\"O\": 1}, \"19\": {\"O\": 1}, \"20\": {\"O\": 1}, \"21\": {\"O\": 1}, \"22\": {\"O\": 1}, \"23\": {\"O\": 1}, \"24\": {\"O\": 1}, \"25\": {\"O\": 1}, \"26\": {\"O\": 1}, \"27\": {\"O\": 1}, \"28\": {\"O\": 1}, \"29\": {\"O\": 1}, \"30\": {\"O\": 1}, \"31\": {\"O\": 1}, \"32\": {\"O\": 1}, \"33\": {\"O\": 1}, \"34\": {\"O\": 1}, \"35\": {\"O\": 1}, \"36\": {\"O\": 1}, \"37\": {\"O\": 1}, \"38\": {\"O\": 1}, \"39\": {\"O\": 1}}" n_minim_iter=2 energy=-45141.055541130845 stress="-0.2730945744987791 1.9927259278963564e-13 2.5143847235514807e-13 1.9927259278963564e-13 -0.273094574498906 2.2376197038219446e-13 2.5143847235514807e-13 2.2376197038219446e-13 -0.2730945744988255" free_energy=-45141.055541130845 pbc="T T T"
In      -3.98357230       2.81681098       5.35742469        0       0.05820857      -0.04115968       0.07129065
In       6.76953604       1.12313673       1.46676493        1      -0.05820857       0.04115968      -0.07129065
In       1.19760855      -0.84683712       4.87885973        2      -0.05820857       0.04115968      -0.07129065
In      -1.39298187      -1.96997385       3.41209481        3      -0.00000000      -0.00000000      -0.00000000
In      -1.19760855       3.80179791       3.17281233        4       0.05820857      -0.04115968      -0.07129065
In       4.37431894      -2.67866118       5.11814221        5       0.05820857       0.08231935      -0.00000000
In      -1.19760855       1.26128654       5.11814221        6       0.05820857       0.08231935      -0.00000000
In      -1.58835520       6.61860889       1.70604740        7      -0.05820857      -0.08231935       0.00000000
In       3.98357229       0.13814980       3.65137728        8      -0.05820857       0.04115968       0.07129065
In      -1.39298187       3.93994771      -0.00000000        9      -0.00000000      -0.00000000      -0.00000000
In       3.98357229       6.04807137       0.23928247       10      -0.05820857       0.04115968       0.07129065
In      -1.19760855      -2.10812366       6.58490714       11       0.05820857      -0.04115968      -0.07129065
In       3.98357229       2.67866118       1.70604740       12      -0.05820857      -0.08231935       0.00000000
In       1.58835520       4.78678484       1.94532988       13       0.05820857      -0.04115968       0.07129065
In       4.17894562       0.00000000      -0.00000000       14      -0.00000000      -0.00000000       0.00000000
In       1.39298187       1.96997386       3.41209481       15       0.00000000      -0.00000000       0.00000000
O        0.79388111       3.93085683       3.75497736       16      -0.02620763      -0.02424696      -0.01491142
O       -1.99208264       3.25645124       4.95457387       17      -0.02620763      -0.00079019       0.02845419
O       -0.38835060       2.12244143       0.09454685       18      -0.03234112       0.00354685       0.02094222
O       -0.79388111      -0.69258736       1.88536162       19       0.02620763      -0.02503714       0.01354277
O        3.73423921       4.68712173       1.79081477       20       0.00799088       0.03712814      -0.00739945
O        1.83768828       2.76264363       1.54247906       21      -0.00799088       0.02497218       0.02845419
O        1.83768828       5.86442581       0.24833571       22      -0.00799088       0.01215596      -0.03585364
O       -2.13050717       5.56858154       3.50664165       23      -0.01412438       0.02930922       0.02094222
O        3.17431434       1.81750628       6.72964277       24       0.03234112      -0.00354685      -0.02094222
O        4.91647092      -1.62863383       3.31754796       25       0.01412438      -0.02930922      -0.02094222
O        5.96027808       3.11307455       1.62128003       26       0.03234112       0.01990992       0.00739945
O        3.44142032       2.22252384       3.66043052       27      -0.01412438       0.00348189      -0.03585364
O        0.65545657       4.02873776       6.48130706       28      -0.01412438      -0.03279111       0.01491142
O        2.13050717      -0.08879004       0.34288256       29       0.01412438       0.03279111      -0.01491142
O       -3.17431434       0.82687317       5.20290958       30      -0.03234112      -0.01990992      -0.00739945
O        4.77804638       0.68349648       1.86961574       31       0.02620763       0.00079019      -0.02845419
O        0.94827547       1.17730408       5.28171055       32       0.00799088      -0.02497218      -0.02845419
O        3.17431434      -0.99063311       5.29745643       33       0.03234112      -0.01636307       0.01354277
O        1.99208263       0.00909089       3.06921225       34       0.02620763       0.02424696       0.01491142
O        0.94827547      -1.92447809       6.57585391       35       0.00799088      -0.01215596       0.03585364
O       -0.65545658       1.71742387       3.16375910       36       0.01412438      -0.00348189       0.03585364
O       -0.94827547      -0.74717401       5.03337484       37      -0.00799088      -0.03712814       0.00739945
O       -0.38835060       4.93058083       1.52673318       38      -0.03234112       0.01636307      -0.01354277
O        3.57984485       4.63253508       4.93882799       39      -0.02620763       0.02503714      -0.01354277
40
Lattice="8.357891235365098 6.550687795141454e-10 2.7179172489431196e-14 -2.785963745739305 7.87989542504334 -1.134631589596834e-09 -2.78596374481292 -3.939947711866592 6.824189618008716" Properties=species:S:1:pos:R:3:spacegroup_kinds:I:1:forces:R:3 spacegroup="P 1" unit_cell=conventional occupancy="_JSON {\"0\": {\"In\": 1}, \"1\": {\"In\": 1}, \"2\": {\"In\": 1}, \"3\": {\"In\": 1}, \"4\": {\"In\": 1}, \"5\": {\"In\": 1}, \"6\": {\"In\": 1}, \"7\": {\"In\": 1}, \"8\": {\"In\": 1}, \"9\": {\"In\": 1}, \"10\": {\"In\": 1}, \"11\": {\"In\": 1}, \"12\": {\"In\": 1}, \"13\": {\"In\": 1}, \"14\": {\"In\": 1}, \"15\": {\"In\": 1}, \"16\": {\"O\": 1}, \"17\": {\"O\": 1}, \"18\": {\"O\": 1}, \"19\": {\"O\": 1}, \"20\": {\"O\": 1}, \"21\": {\"O\": 1}, \"22\": {\"O\": 1}, \"23\": {\"O\": 1}, \"24\": {\"O\": 1}, \"25\": {\"O\": 1}, \"26\": {\"O\": 1}, \"27\": {\"O\": 1}, \"28\": {\"O\": 1}, \"29\": {\"O\": 1}, \"30\": {\"O\": 1}, \"31\": {\"O\": 1}, \"32\": {\"O\": 1}, \"33\": {\"O\": 1}, \"34\": {\"O\": 1}, \"35\": {\"O\": 1}, \"36\": {\"O\": 1}, \"37\": {\"O\": 1}, \"38\": {\"O\": 1}, \"39\": {\"O\": 1}}" n_minim_iter=3 energy=-45141.0583698177 stress="-0.2726860771817215 5.1973693643333924e-14 -3.204971980494231e-14 5.1973693643333924e-14 -0.27268607718163795 -1.4673271645525654e-13 -3.204971980494231e-14 -1.4673271645525654e-13 -0.27268607718167753" free_energy=-45141.0583698177 pbc="T T T"
In      -3.98133816       2.81523121       5.36016093        0       0.00876666      -0.00619897       0.01073692
In       6.76730190       1.12471650       1.46402868        1      -0.00876666       0.00619897      -0.01073692
In       1.19537441      -0.84525735       4.87612349        2      -0.00876666       0.00619897      -0.01073692
In      -1.39298187      -1.96997385       3.41209481        3       0.00000000       0.00000000      -0.00000000
In      -1.19537442       3.80021814       3.17007609        4       0.00876666      -0.00619897      -0.01073692
In       4.37655307      -2.67550163       5.11814221        5       0.00876666       0.01239793       0.00000000
In      -1.19537442       1.26444608       5.11814221        6       0.00876666       0.01239793       0.00000000
In      -1.59058933       6.61544935       1.70604740        7      -0.00876666      -0.01239793      -0.00000000
In       3.98133816       0.13972958       3.65411353        8      -0.00876666       0.00619897       0.01073692
In      -1.39298187       3.93994771      -0.00000000        9      -0.00000000       0.00000000      -0.00000000
In       3.98133816       6.04965114       0.24201872       10      -0.00876666       0.00619897       0.01073692
In      -1.19537442      -2.10970343       6.58217089       11       0.00876666      -0.00619897      -0.01073692
In       3.98133816       2.67550164       1.70604740       12      -0.00876666      -0.01239793       0.00000000
In       1.59058933       4.78520507       1.94806612       13       0.00876666      -0.00619897       0.01073692
In       4.17894562       0.00000000      -0.00000000       14       0.00000000      -0.00000000      -0.00000000
In       1.39298187       1.96997386       3.41209481       15      -0.00000000       0.00000000      -0.00000000
O        0.79279127       3.92962107       3.75616189       16       0.00393934       0.02469557       0.00458781
O       -1.99317248       3.25809494       4.95505180       17       0.00393934      -0.00837463      -0.02368090
O       -0.38832926       2.12329941       0.09638569       18       0.01670065      -0.01739823      -0.00805155
O       -0.79279127      -0.69217941       1.88702408       19      -0.00393934       0.01632094      -0.01909309
O        3.73615219       4.68777544       1.79063838       20      -0.00920879      -0.02096951      -0.01104154
O        1.83577530       2.76312324       1.54295699       21       0.00920879      -0.00092250      -0.02368090
O        1.83577529       5.86459990       0.24768139       22       0.00920879      -0.02004701       0.01263936
O       -2.13130897       5.56827543       3.50848050       23       0.02197010      -0.00994611      -0.00805155
O        3.17429300       1.81664830       6.72780392       24      -0.01670065       0.01739823       0.00805155
O        4.91727271      -1.62832771       3.31570911       25      -0.02197010       0.00994611       0.00805155
O        5.96025674       3.11509603       1.62145642       26      -0.01670065      -0.01567197       0.01104154
O        3.44061852       2.22426939       3.65977619       27       0.02197010      -0.00199979       0.01263936
O        0.65465477       4.02729832       6.48012253       28       0.02197010       0.01194590      -0.00458781
O        2.13130897      -0.08735061       0.34406708       29      -0.02197010      -0.01194590       0.00458781
O       -3.17429300       0.82485169       5.20273319       30       0.01670065       0.01567197      -0.01104154
O        4.77913622       0.68185277       1.86913781       31      -0.00393934       0.00837463       0.02368090
O        0.95018845       1.17682447       5.28123262       32      -0.00920879       0.00092250       0.02368090
O        3.17429300      -0.99179661       5.29911889       33      -0.01670065      -0.00172627      -0.01909309
O        1.99317248       0.01032664       3.06802772       34      -0.00393934      -0.02469557      -0.00458781
O        0.95018845      -1.92465219       6.57650823       35      -0.00920879       0.02004701      -0.01263936
O       -0.65465478       1.71567833       3.16441342       36      -0.02197010       0.00199979      -0.01263936
O       -0.95018845      -0.74782772       5.03355123       37       0.00920879       0.02096951       0.01104154
O       -0.38832926       4.93174432       1.52507073       38       0.01670065       0.00172627       0.01909309
O        3.57875501       4.63212713       4.93716554       39       0.00393934      -0.01632094       0.01909309
40
Lattice="8.357891235365098 6.550687795141455e-10 2.717917248943122e-14 -2.785963745739306 7.879895425043344 -1.1346315895968341e-09 -2.785963744812921 -3.9399477118665938 6.8241896180087185" Properties=species:S:1:pos:R:3:spacegroup_kinds:I:1:forces:R:3 spacegroup="P 1" unit_cell=conventional occupancy="_JSON {\"0\": {\"In\": 1}, \"1\": {\"In\": 1}, \"2\": {\"In\": 1}, \"3\": {\"In\": 1}, \"4\": {\"In\": 1}, \"5\": {\"In\": 1}, \"6\": {\"In\": 1}, \"7\": {\"In\": 1}, \"8\": {\"In\": 1}, \"9\": {\"In\": 1}, \"10\": {\"In\": 1}, \"11\": {\"In\": 1}, \"12\": {\"In\": 1}, \"13\": {\"In\": 1}, \"14\": {\"In\": 1}, \"15\": {\"In\": 1}, \"16\": {\"O\": 1}, \"17\": {\"O\": 1}, \"18\": {\"O\": 1}, \"19\": {\"O\": 1}, \"20\": {\"O\": 1}, \"21\": {\"O\": 1}, \"22\": {\"O\": 1}, \"23\": {\"O\": 1}, \"24\": {\"O\": 1}, \"25\": {\"O\": 1}, \"26\": {\"O\": 1}, \"27\": {\"O\": 1}, \"28\": {\"O\": 1}, \"29\": {\"O\": 1}, \"30\": {\"O\": 1}, \"31\": {\"O\": 1}, \"32\": {\"O\": 1}, \"33\": {\"O\": 1}, \"34\": {\"O\": 1}, \"35\": {\"O\": 1}, \"36\": {\"O\": 1}, \"37\": {\"O\": 1}, \"38\": {\"O\": 1}, \"39\": {\"O\": 1}}" n_minim_iter=4 energy=-45141.058894348585 stress="-0.2725916877928711 5.233435102942727e-14 1.522476866423983e-13 5.233435102942727e-14 -0.27259168779299425 -1.6348895742339608e-13 1.522476866423983e-13 -1.6348895742339608e-13 -0.2725916877923941" free_energy=-45141.058894348585 pbc="T T T"
In      -3.98041688       2.81457977       5.36128927        0       0.00218853      -0.00154752       0.00268039
In       6.76638062       1.12536795       1.46290035        1      -0.00218853       0.00154752      -0.00268039
In       1.19445313      -0.84460591       4.87499516        2      -0.00218853       0.00154752      -0.00268039
In      -1.39298187      -1.96997385       3.41209481        3       0.00000000      -0.00000000      -0.00000000
In      -1.19445313       3.79956670       3.16894775        4       0.00218853      -0.00154752      -0.00268039
In       4.37747436      -2.67419875       5.11814221        5       0.00218853       0.00309505       0.00000000
In      -1.19445313       1.26574897       5.11814221        6       0.00218853       0.00309505       0.00000000
In      -1.59151061       6.61414646       1.70604740        7      -0.00218853      -0.00309505      -0.00000000
In       3.98041688       0.14038102       3.65524186        8      -0.00218853       0.00154752       0.00268039
In      -1.39298187       3.93994771      -0.00000000        9       0.00000000       0.00000000      -0.00000000
In       3.98041688       6.05030259       0.24314705       10      -0.00218853       0.00154752       0.00268039
In      -1.19445313      -2.11035487       6.58104256       11       0.00218853      -0.00154752      -0.00268039
In       3.98041688       2.67419875       1.70604740       12      -0.00218853      -0.00309505      -0.00000000
In       1.59151061       4.78455362       1.94919446       13       0.00218853      -0.00154752       0.00268039
In       4.17894562       0.00000000      -0.00000000       14      -0.00000000       0.00000000       0.00000000
In       1.39298187       1.96997386       3.41209481       15       0.00000000      -0.00000000       0.00000000
O        0.79281319       3.93080644       3.75665625       16       0.00908746      -0.00252741      -0.00045409
O       -1.99315055       3.25793039       4.95377806       17       0.00908746       0.00087045       0.00241585
O       -0.38735952       2.12246466       0.09627278       18       0.00146696       0.00625896      -0.00691733
O       -0.79281320      -0.69115860       1.88624470       19      -0.00908746      -0.00165696       0.00196175
O        3.73598974       4.68668944       1.78997191       20      -0.00220849      -0.00233676       0.00887908
O        1.83593775       2.76315742       1.54168326       21       0.00220849      -0.00885789       0.00241585
O        1.83593775       5.86347973       0.24828865       22       0.00220849       0.00652113       0.00646324
O       -2.13019871       5.56763940       3.50836759       23      -0.00541202      -0.00346938      -0.00691733
O        3.17332326       1.81748306       6.72791683       24      -0.00146696      -0.00625896       0.00691733
O        4.91616245      -1.62769169       3.31582202       25       0.00541202       0.00346938       0.00691733
O        5.95928700       3.11458086       1.62212289       26      -0.00146696      -0.00286110      -0.00887908
O        3.44172878       2.22448962       3.66038346       27      -0.00541202      -0.00425589       0.00646324
O        0.65576504       4.02771412       6.47962817       28      -0.00541202       0.00772527       0.00045409
O        2.13019870      -0.08776640       0.34456144       29       0.00541202      -0.00772527      -0.00045409
O       -3.17332326       0.82536685       5.20206672       30       0.00146696       0.00286110       0.00887908
O        4.77911429       0.68201733       1.87041155       31      -0.00908746      -0.00087045      -0.00241585
O        0.95002599       1.17679029       5.28250636       32      -0.00220849       0.00885789      -0.00241585
O        3.17332326      -0.99211621       5.29833951       33      -0.00146696       0.00912006       0.00196175
O        1.99315055       0.00914128       3.06753336       34      -0.00908746       0.00252741       0.00045409
O        0.95002599      -1.92353201       6.57590096       35      -0.00220849      -0.00652113      -0.00646324
O       -0.65576504       1.71545810       3.16380615       36       0.00541202       0.00425589      -0.00646324
O       -0.95002600      -0.74674172       5.03421770       37       0.00220849       0.00233676      -0.00887908
O       -0.38735952       4.93206392       1.52585010       38       0.00146696      -0.00912006      -0.00196175
O        3.57877694       4.63110632       4.93794491       39       0.00908746       0.00165696      -0.00196175
