40
Lattice="8.836499778593115 6.925803660560084e-10 6.919043364740119e-15 -2.9454999268506756 8.331131886964629 -1.1995869099392918e-09 -2.9454999258712244 -4.165565942789734 7.214971857189677" Properties=species:S:1:pos:R:3:spacegroup_kinds:I:1:forces:R:3 spacegroup="P 1" unit_cell=conventional occupancy="_JSON {\"0\": {\"In\": 1}, \"1\": {\"In\": 1}, \"2\": {\"In\": 1}, \"3\": {\"In\": 1}, \"4\": {\"In\": 1}, \"5\": {\"In\": 1}, \"6\": {\"In\": 1}, \"7\": {\"In\": 1}, \"8\": {\"In\": 1}, \"9\": {\"In\": 1}, \"10\": {\"In\": 1}, \"11\": {\"In\": 1}, \"12\": {\"In\": 1}, \"13\": {\"In\": 1}, \"14\": {\"In\": 1}, \"15\": {\"In\": 1}, \"16\": {\"O\": 1}, \"17\": {\"O\": 1}, \"18\": {\"O\": 1}, \"19\": {\"O\": 1}, \"20\": {\"O\": 1}, \"21\": {\"O\": 1}, \"22\": {\"O\": 1}, \"23\": {\"O\": 1}, \"24\": {\"O\": 1}, \"25\": {\"O\": 1}, \"26\": {\"O\": 1}, \"27\": {\"O\": 1}, \"28\": {\"O\": 1}, \"29\": {\"O\": 1}, \"30\": {\"O\": 1}, \"31\": {\"O\": 1}, \"32\": {\"O\": 1}, \"33\": {\"O\": 1}, \"34\": {\"O\": 1}, \"35\": {\"O\": 1}, \"36\": {\"O\": 1}, \"37\": {\"O\": 1}, \"38\": {\"O\": 1}, \"39\": {\"O\": 1}}" n_minim_iter=1 energy=-45151.739886920004 stress="-0.025607659650320563 1.3671093508771047e-13 1.2873989380186396e-13 1.3671093508771047e-13 -0.025607659650430485 -2.545390095098274e-13 1.2873989380186396e-13 -2.545390095098274e-13 -0.025607659650432744" free_energy=-45151.739886920004 pbc="T T T"
In      -4.21967578       2.98376136       5.65443151        0      -0.00651896       0.00460960      -0.00798406
In       7.16517570       1.18180459       1.56054034        1       0.00651896      -0.00460960       0.00798406
In       1.27417585      -0.90097838       5.16802627        2       0.00651896      -0.00460960       0.00798406
In      -1.47274996      -2.08278297       3.60748593        3      -0.00000000       0.00000000       0.00000000
In      -1.27417585       4.02515285       3.36428330        4      -0.00651896       0.00460960       0.00798406
In       4.61682400      -2.84334826       5.41122889        5      -0.00651896      -0.00921920       0.00000000
In      -1.27417585       1.32221769       5.41122889        6      -0.00651896      -0.00921920       0.00000000
In      -1.67132408       7.00891420       1.80374296        7       0.00651896       0.00921920      -0.00000000
In       4.21967578       0.14041310       3.85068855        8       0.00651896      -0.00460960      -0.00798406
In      -1.47274996       4.16556594      -0.00000000        9       0.00000000      -0.00000000      -0.00000000
In       4.21967578       6.38876202       0.24320262       10       0.00651896      -0.00460960      -0.00798406
In      -1.27417585      -2.22319607       6.97176923       11      -0.00651896       0.00460960       0.00798406
In       4.21967578       2.84334826       1.80374296       12       0.00651896       0.00921920      -0.00000000
In       1.67132407       5.06654433       2.04694558       13      -0.00651896       0.00460960      -0.00798406
In       4.41824989       0.00000000      -0.00000000       14       0.00000000       0.00000000       0.00000000
In       1.47274996       2.08278297       3.60748593       15      -0.00000000       0.00000000      -0.00000000
O        0.86749794       4.16531261       3.92642188       16      -0.01702517      -0.01783992       0.06027348
O       -2.07800198       3.40050777       5.25198031       17      -0.01702517       0.06111832      -0.01468692
O       -0.43237664       2.23687493       0.05247966       18       0.03512821       0.02424031       0.04918767
O       -0.86749795      -0.76531152       1.96343034       19       0.01702517       0.04327840       0.04558656
O        3.89869679       4.96117661       1.91095068       20       0.06329796      -0.01487989      -0.00360111
O        1.99230306       2.90843944       1.64449438       21      -0.06329796      -0.00432129      -0.01468692
O        1.99230306       6.21830311       0.26645629       22      -0.06329796      -0.01055860       0.01108580
O       -2.25307145       5.91037254       3.65996558       23      -0.01114458      -0.04119930       0.04918767
O        3.37787656       1.92869102       7.16249220       24      -0.03512821      -0.02424031      -0.04918767
O        5.19857138      -1.74480660       3.55500627       25       0.01114458       0.04119930      -0.04918767
O        6.32337649       3.24666915       1.69653524       26      -0.03512821       0.05471793       0.00360111
O        3.63792840       2.29721988       3.87394222       27      -0.01114458       0.06319742       0.01108580
O        0.69242847       4.28910542       6.89603590       28      -0.01114458      -0.02199812      -0.06027348
O        2.25307145      -0.12353947       0.31893595       29       0.01114458       0.02199812       0.06027348
O       -3.37787656       0.91889679       5.51843661       30       0.03512821      -0.05471793      -0.00360111
O        5.02350190       0.76505818       1.96299154       31       0.01702517      -0.06111832       0.01468692
O        0.95319687       1.25712651       5.57047747       32       0.06329796       0.00432129       0.01468692
O        3.37787656      -1.00979422       5.57091627       33      -0.03512821      -0.03047762       0.04558656
O        2.07800198       0.00025334       3.28854997       34       0.01702517       0.01783992      -0.06027348
O        0.95319687      -2.05273716       6.94851556       35       0.06329796       0.01055860      -0.01108580
O       -0.69242848       1.86834607       3.34102963       36       0.01114458      -0.06319742      -0.01108580
O       -0.95319687      -0.79561066       5.30402117       37      -0.06329796       0.01487989       0.00360111
O       -0.43237664       5.17536017       1.64405558       38       0.03512821       0.03047762      -0.04558656
O        3.81299787       4.93087746       5.25154151       39      -0.01702517      -0.04327840      -0.04558656
40
Lattice="8.836499778593117 6.925803660560088e-10 6.91904336474013e-15 -2.9454999268506774 8.33113188696463 -1.1995869099392927e-09 -2.945499925871226 -4.165565942789735 7.214971857189679" Properties=species:S:1:pos:R:3:spacegroup_kinds:I:1:forces:R:3 spacegroup="P 1" unit_cell=conventional occupancy="_JSON {\"0\": {\"In\": 1}, \"1\": {\"In\": 1}, \"2\": {\"In\": 1}, \"3\": {\"In\": 1}, \"4\": {\"In\": 1}, \"5\": {\"In\": 1}, \"6\": {\"In\": 1}, \"7\": {\"In\": 1}, \"8\": {\"In\": 1}, \"9\": {\"In\": 1}, \"10\": {\"In\": 1}, \"11\": {\"In\": 1}, \"12\": {\"In\": 1}, \"13\": {\"In\": 1}, \"14\": {\"In\": 1}, \"15\": {\"In\": 1}, \"16\": {\"O\": 1}, \"17\": {\"O\": 1}, \"18\": {\"O\": 1}, \"19\": {\"O\": 1}, \"20\": {\"O\": 1}, \"21\": {\"O\": 1}, \"22\": {\"O\": 1}, \"23\": {\"O\": 1}, \"24\": {\"O\": 1}, \"25\": {\"O\": 1}, \"26\": {\"O\": 1}, \"27\": {\"O\": 1}, \"28\": {\"O\": 1}, \"29\": {\"O\": 1}, \"30\": {\"O\": 1}, \"31\": {\"O\": 1}, \"32\": {\"O\": 1}, \"33\": {\"O\": 1}, \"34\": {\"O\": 1}, \"35\": {\"O\": 1}, \"36\": {\"O\": 1}, \"37\": {\"O\": 1}, \"38\": {\"O\": 1}, \"39\": {\"O\": 1}}" n_minim_iter=2 energy=-45151.74398165056 stress="-0.025022464452087355 -1.7010810357048551e-13 -3.6115808799658826e-14 -1.7010810357048551e-13 -0.02502246445199469 -9.27279165154802e-14 -3.6115808799658826e-14 -9.27279165154802e-14 -0.025022464451865754" free_energy=-45151.74398165056 pbc="T T T"
In      -4.22014142       2.98409062       5.65386122        0       0.01069225      -0.00756057       0.01309528
In       7.16564134       1.18147533       1.56111063        1      -0.01069225       0.00756057      -0.01309528
In       1.27464149      -0.90130764       5.16859656        2      -0.01069225       0.00756057      -0.01309528
In      -1.47274996      -2.08278297       3.60748593        3       0.00000000       0.00000000      -0.00000000
In      -1.27464149       4.02548210       3.36485359        4       0.01069225      -0.00756057      -0.01309528
In       4.61635836      -2.84400677       5.41122889        5       0.01069225       0.01512113       0.00000000
In      -1.27464149       1.32155917       5.41122889        6       0.01069225       0.01512113      -0.00000000
In      -1.67085844       7.00957272       1.80374296        7      -0.01069225      -0.01512113      -0.00000000
In       4.22014142       0.14008384       3.85011826        8      -0.01069225       0.00756057       0.01309528
In      -1.47274996       4.16556594      -0.00000000        9      -0.00000000       0.00000000      -0.00000000
In       4.22014142       6.38843276       0.24263233       10      -0.01069225       0.00756057       0.01309528
In      -1.27464149      -2.22286681       6.97233952       11       0.01069225      -0.00756057      -0.01309528
In       4.22014142       2.84400677       1.80374296       12      -0.01069225      -0.01512113       0.00000000
In       1.67085843       5.06687359       2.04637529       13       0.01069225      -0.00756057       0.01309528
In       4.41824989       0.00000000      -0.00000000       14      -0.00000000       0.00000000       0.00000000
In       1.47274996       2.08278297       3.60748593       15       0.00000000       0.00000000      -0.00000000
O        0.86628186       4.16403833       3.93072713       16      -0.02092536      -0.00825654       0.00145118
O       -2.07921807       3.40487336       5.25093125       17      -0.02092536       0.00538503       0.00642479
O       -0.42986748       2.23860638       0.05599306       18      -0.00968241      -0.00256494       0.02019453
O       -0.86628186      -0.76222020       1.96668652       19       0.02092536      -0.00287151       0.00787597
O        3.90321808       4.96011376       1.91069346       20       0.01205217       0.01453083      -0.01231857
O        1.98778177       2.90813078       1.64344532       21      -0.01205217       0.01793361       0.00642479
O        1.98778177       6.21754893       0.26724814       22      -0.01205217      -0.00340277      -0.01874335
O       -2.25386749       5.90742974       3.66347899       23      -0.00080922       0.00998364       0.02019453
O        3.37536740       1.92695957       7.15897879       24       0.00968241       0.00256494      -0.02019453
O        5.19936742      -1.74186379       3.55149286       25       0.00080922      -0.00998364      -0.02019453
O        6.32086733       3.25057758       1.69679247       26       0.00968241       0.01620651       0.01231857
O        3.63713236       2.30173398       3.87473407       27      -0.00080922       0.01249716      -0.01874335
O        0.69163243       4.28753412       6.89173065       28      -0.00080922      -0.02248080      -0.00145118
O        2.25386749      -0.12196817       0.32324120       29       0.00080922       0.02248080       0.00145118
O       -3.37536741       0.91498837       5.51817939       30      -0.00968241      -0.01620651      -0.01231857
O        5.02471799       0.76069258       1.96404061       31       0.02092536      -0.00538503      -0.00642479
O        0.95771815       1.25743517       5.57152653       32       0.01205217      -0.01793361      -0.00642479
O        3.37536740      -1.01197120       5.57417245       33       0.00968241      -0.01877145       0.00787597
O        2.07921806       0.00152762       3.28424472       34       0.02092536       0.00825654      -0.00145118
O        0.95771815      -2.05198298       6.94772371       35       0.01205217       0.00340277       0.01874335
O       -0.69163244       1.86383197       3.34023779       36       0.00080922      -0.01249716       0.01874335
O       -0.95771815      -0.79454781       5.30427839       37      -0.01205217      -0.01453083       0.01231857
O       -0.42986748       5.17753714       1.64079940       38      -0.00968241       0.01877145      -0.00787597
O        3.81178179       4.92778615       5.24828533       39      -0.02092536       0.00287151      -0.00787597
40
Lattice="8.836499778593117 6.925803660560089e-10 6.919043364740128e-15 -2.945499926850678 8.33113188696463 -1.1995869099392929e-09 -2.9454999258712267 -4.165565942789735 7.2149718571896795" Properties=species:S:1:pos:R:3:spacegroup_kinds:I:1:forces:R:3 spacegroup="P 1" unit_cell=conventional occupancy="_JSON {\"0\": {\"In\": 1}, \"1\": {\"In\": 1}, \"2\": {\"In\": 1}, \"3\": {\"In\": 1}, \"4\": {\"In\": 1}, \"5\": {\"In\": 1}, \"6\": {\"In\": 1}, \"7\": {\"In\": 1}, \"8\": {\"In\": 1}, \"9\": {\"In\": 1}, \"10\": {\"In\": 1}, \"11\": {\"In\": 1}, \"12\": {\"In\": 1}, \"13\": {\"In\": 1}, \"14\": {\"In\": 1}, \"15\": {\"In\": 1}, \"16\": {\"O\": 1}, \"17\": {\"O\": 1}, \"18\": {\"O\": 1}, \"19\": {\"O\": 1}, \"20\": {\"O\": 1}, \"21\": {\"O\": 1}, \"22\": {\"O\": 1}, \"23\": {\"O\": 1}, \"24\": {\"O\": 1}, \"25\": {\"O\": 1}, \"26\": {\"O\": 1}, \"27\": {\"O\": 1}, \"28\": {\"O\": 1}, \"29\": {\"O\": 1}, \"30\": {\"O\": 1}, \"31\": {\"O\": 1}, \"32\": {\"O\": 1}, \"33\": {\"O\": 1}, \"34\": {\"O\": 1}, \"35\": {\"O\": 1}, \"36\": {\"O\": 1}, \"37\": {\"O\": 1}, \"38\": {\"O\": 1}, \"39\": {\"O\": 1}}" n_minim_iter=3 energy=-45151.74447908407 stress="-0.02478388953133081 -9.297210607840638e-14 -1.5320661154548096e-14 -9.297210607840638e-14 -0.02478388953135059 -4.279676835438577e-14 -1.5320661154548096e-14 -4.279676835438577e-14 -0.02478388953095697" free_energy=-45151.74447908407 pbc="T T T"
In      -4.21985822       2.98389037       5.65420807        0       0.00928599      -0.00656619       0.01137297
In       7.16535815       1.18167558       1.56076379        1      -0.00928599       0.00656619      -0.01137297
In       1.27435830      -0.90110739       5.16824971        2      -0.00928599       0.00656619      -0.01137297
In      -1.47274996      -2.08278297       3.60748593        3      -0.00000000       0.00000000       0.00000000
In      -1.27435830       4.02528185       3.36450675        4       0.00928599      -0.00656619      -0.01137297
In       4.61664155      -2.84360627       5.41122889        5       0.00928599       0.01313238       0.00000000
In      -1.27435830       1.32195967       5.41122889        6       0.00928599       0.01313238      -0.00000000
In      -1.67114163       7.00917222       1.80374296        7      -0.00928599      -0.01313238       0.00000000
In       4.21985822       0.14028409       3.85046510        8      -0.00928599       0.00656619       0.01137297
In      -1.47274996       4.16556594      -0.00000000        9       0.00000000       0.00000000      -0.00000000
In       4.21985822       6.38863301       0.24297917       10      -0.00928599       0.00656619       0.01137297
In      -1.27435830      -2.22306706       6.97199268       11       0.00928599      -0.00656619      -0.01137297
In       4.21985822       2.84360627       1.80374296       12      -0.00928599      -0.01313238      -0.00000000
In       1.67114163       5.06667334       2.04672214       13       0.00928599      -0.00656619       0.01137297
In       4.41824989       0.00000000      -0.00000000       14       0.00000000      -0.00000000       0.00000000
In       1.47274996       2.08278297       3.60748593       15      -0.00000000      -0.00000000      -0.00000000
O        0.86495020       4.16322257       3.93236198       16      -0.01725006       0.00166042      -0.01563569
O       -2.08054973       3.40669707       5.25082029       17      -0.01725006      -0.01437111       0.00637987
O       -0.42936107       2.23913037       0.05813327       18      -0.01773377      -0.01402908       0.00578745
O       -0.86495020      -0.76121226       1.96821042       19       0.01725006      -0.01271069      -0.00925581
O        3.90538137       4.96034147       1.91007714       20      -0.00779919       0.01605208      -0.01504326
O        1.98561848       2.90877838       1.64333436       21       0.00779919       0.02105389       0.00637987
O        1.98561848       6.21712903       0.26674278       22       0.00779919      -0.00500181      -0.02142314
O       -2.25419271       5.90677762       3.66561920       23       0.00731548       0.02139592       0.00578745
O        3.37486099       1.92643558       7.15683858       24       0.01773377       0.01402908      -0.00578745
O        5.19969264      -1.74121168       3.54935265       25      -0.00731548      -0.02139592      -0.00578745
O        6.32036092       3.25269305       1.69740878       26       0.01773377      -0.00200246       0.01504326
O        3.63680714       2.30391351       3.87422870       27       0.00731548      -0.00568588      -0.02142314
O        0.69130721       4.28600670       6.89009580       28       0.00731548      -0.01571004       0.01563569
O        2.25419271      -0.12044075       0.32487605       29      -0.00731548       0.01571004      -0.01563569
O       -3.37486099       0.91287290       5.51756307       30      -0.01773377       0.00200246      -0.01504326
O        5.02604965       0.75886888       1.96415156       31       0.01725006       0.01437111      -0.00637987
O        0.95988144       1.25678757       5.57163749       32      -0.00779919      -0.02105389      -0.00637987
O        3.37486099      -1.01356268       5.57569634       33       0.01773377      -0.01202662      -0.00925581
O        2.08054972       0.00234338       3.28260987       34       0.01725006      -0.00166042       0.01563569
O        0.95988144      -2.05156309       6.94822908       35      -0.00779919       0.00500181       0.02142314
O       -0.69130722       1.86165243       3.34074315       36      -0.00731548       0.00568588       0.02142314
O       -0.95988144      -0.79477552       5.30489471       37       0.00779919      -0.01605208       0.01504326
O       -0.42936107       5.17912863       1.63927551       38      -0.01773377       0.01202662       0.00925581
O        3.81045013       4.92677821       5.24676143       39      -0.01725006       0.01271069       0.00925581
40
Lattice="8.836499778593117 6.925803660560089e-10 6.919043364740119e-15 -2.945499926850678 8.33113188696463 -1.1995869099392929e-09 -2.9454999258712267 -4.165565942789735 7.2149718571896795" Properties=species:S:1:pos:R:3:spacegroup_kinds:I:1:forces:R:3 spacegroup="P 1" unit_cell=conventional occupancy="_JSON {\"0\": {\"In\": 1}, \"1\": {\"In\": 1}, \"2\": {\"In\": 1}, \"3\": {\"In\": 1}, \"4\": {\"In\": 1}, \"5\": {\"In\": 1}, \"6\": {\"In\": 1}, \"7\": {\"In\": 1}, \"8\": {\"In\": 1}, \"9\": {\"In\": 1}, \"10\": {\"In\": 1}, \"11\": {\"In\": 1}, \"12\": {\"In\": 1}, \"13\": {\"In\": 1}, \"14\": {\"In\": 1}, \"15\": {\"In\": 1}, \"16\": {\"O\": 1}, \"17\": {\"O\": 1}, \"18\": {\"O\": 1}, \"19\": {\"O\": 1}, \"20\": {\"O\": 1}, \"21\": {\"O\": 1}, \"22\": {\"O\": 1}, \"23\": {\"O\": 1}, \"24\": {\"O\": 1}, \"25\": {\"O\": 1}, \"26\": {\"O\": 1}, \"27\": {\"O\": 1}, \"28\": {\"O\": 1}, \"29\": {\"O\": 1}, \"30\": {\"O\": 1}, \"31\": {\"O\": 1}, \"32\": {\"O\": 1}, \"33\": {\"O\": 1}, \"34\": {\"O\": 1}, \"35\": {\"O\": 1}, \"36\": {\"O\": 1}, \"37\": {\"O\": 1}, \"38\": {\"O\": 1}, \"39\": {\"O\": 1}}" n_minim_iter=4 energy=-45151.745044117946 stress="-0.024804786781542135 1.1793849011791472e-13 -1.0038767228316892e-13 1.1793849011791472e-13 -0.024804786781718824 1.1743098550949633e-13 -1.0038767228316892e-13 1.1743098550949633e-13 -0.02480478678159844" free_energy=-45151.745044117946 pbc="T T T"
In      -4.21904357       2.98331432       5.65520581        0      -0.00631521       0.00446553      -0.00773453
In       7.16454350       1.18225163       1.55976605        1       0.00631521      -0.00446553       0.00773453
In       1.27354364      -0.90053135       5.16725197        2       0.00631521      -0.00446553       0.00773453
In      -1.47274996      -2.08278297       3.60748593        3       0.00000000      -0.00000000       0.00000000
In      -1.27354365       4.02470581       3.36350901        4      -0.00631521       0.00446553       0.00773453
In       4.61745621      -2.84245418       5.41122889        5      -0.00631521      -0.00893106      -0.00000000
In      -1.27354365       1.32311176       5.41122889        6      -0.00631521      -0.00893106      -0.00000000
In      -1.67195628       7.00802013       1.80374296        7       0.00631521       0.00893106       0.00000000
In       4.21904357       0.14086014       3.85146284        8       0.00631521      -0.00446553      -0.00773453
In      -1.47274996       4.16556594      -0.00000000        9      -0.00000000       0.00000000      -0.00000000
In       4.21904357       6.38920906       0.24397691       10       0.00631521      -0.00446553      -0.00773453
In      -1.27354365      -2.22364311       6.97099494       11      -0.00631521       0.00446553       0.00773453
In       4.21904357       2.84245418       1.80374296       12       0.00631521       0.00893106       0.00000000
In       1.67195628       5.06609729       2.04771988       13      -0.00631521       0.00446553      -0.00773453
In       4.41824989       0.00000000      -0.00000000       14      -0.00000000      -0.00000000       0.00000000
In       1.47274996       2.08278297       3.60748593       15      -0.00000000       0.00000000      -0.00000000
O        0.86338673       4.16296142       3.93177344       16      -0.00674073       0.00924932       0.00069025
O       -2.08211320       3.40631795       5.25134072       17      -0.00674073      -0.00402689      -0.00835527
O       -0.43048587       2.23844106       0.05919096       18       0.00267684      -0.01068612       0.00317886
O       -0.86338673      -0.76185252       1.96814230       19       0.00674073       0.00522243      -0.00766502
O        3.90554509       4.96159239       1.90895134       20      -0.00154968      -0.00338711      -0.01084388
O        1.98545476       2.91037881       1.64385479       21       0.00154968       0.00769752      -0.00835527
O        1.98545476       6.21677952       0.26509655       22       0.00154968      -0.01108463      -0.00248861
O       -2.25391776       5.90806787       3.66667689       23       0.01096725       0.00103829       0.00317886
O        3.37598579       1.92712489       7.15578089       24      -0.00267684       0.01068612      -0.00317886
O        5.19941769      -1.74250192       3.54829496       25      -0.01096725      -0.00103829      -0.00317886
O        6.32148572       3.25326438       1.69853458       26      -0.00267684      -0.00259009       0.01084388
O        3.63708209       2.30418438       3.87258248       27       0.01096725       0.00223383      -0.00248861
O        0.69158216       4.28444559       6.89068434       28       0.01096725      -0.00327212      -0.00069025
O        2.25391776      -0.11887965       0.32428751       29      -0.01096725       0.00327212       0.00069025
O       -3.37598580       0.91230157       5.51643727       30       0.00267684       0.00259009      -0.01084388
O        5.02761312       0.75924800       1.96363114       31       0.00674073       0.00402689       0.00835527
O        0.96004516       1.25518714       5.57111706       32      -0.00154968      -0.00769752       0.00835527
O        3.37598579      -1.01482332       5.57562823       33      -0.00267684      -0.00809603      -0.00766502
O        2.08211320       0.00260453       3.28319841       34       0.00674073      -0.00924932      -0.00069025
O        0.96004516      -2.05121357       6.94987530       35      -0.00154968       0.01108463       0.00248861
O       -0.69158217       1.86138157       3.34238937       36      -0.01096725      -0.00223383       0.00248861
O       -0.96004517      -0.79602644       5.30602051       37       0.00154968       0.00338711       0.01084388
O       -0.43048587       5.18038926       1.63934362       38       0.00267684       0.00809603       0.00766502
O        3.80888665       4.92741847       5.24682955       39      -0.00674073      -0.00522243       0.00766502
40
Lattice="8.836499778593117 6.925803660560089e-10 6.91904336474011e-15 -2.945499926850678 8.33113188696463 -1.1995869099392929e-09 -2.9454999258712267 -4.165565942789735 7.2149718571896795" Properties=species:S:1:pos:R:3:spacegroup_kinds:I:1:forces:R:3 spacegroup="P 1" unit_cell=conventional occupancy="_JSON {\"0\": {\"In\": 1}, \"1\": {\"In\": 1}, \"2\": {\"In\": 1}, \"3\": {\"In\": 1}, \"4\": {\"In\": 1}, \"5\": {\"In\": 1}, \"6\": {\"In\": 1}, \"7\": {\"In\": 1}, \"8\": {\"In\": 1}, \"9\": {\"In\": 1}, \"10\": {\"In\": 1}, \"11\": {\"In\": 1}, \"12\": {\"In\": 1}, \"13\": {\"In\": 1}, \"14\": {\"In\": 1}, \"15\": {\"In\": 1}, \"16\": {\"O\": 1}, \"17\": {\"O\": 1}, \"18\": {\"O\": 1}, \"19\": {\"O\": 1}, \"20\": {\"O\": 1}, \"21\": {\"O\": 1}, \"22\": {\"O\": 1}, \"23\": {\"O\": 1}, \"24\": {\"O\": 1}, \"25\": {\"O\": 1}, \"26\": {\"O\": 1}, \"27\": {\"O\": 1}, \"28\": {\"O\": 1}, \"29\": {\"O\": 1}, \"30\": {\"O\": 1}, \"31\": {\"O\": 1}, \"32\": {\"O\": 1}, \"33\": {\"O\": 1}, \"34\": {\"O\": 1}, \"35\": {\"O\": 1}, \"36\": {\"O\": 1}, \"37\": {\"O\": 1}, \"38\": {\"O\": 1}, \"39\": {\"O\": 1}}" n_minim_iter=5 energy=-45151.74527367749 stress="-0.024780860988377073 -6.240519548290037e-14 1.0594200505067382e-13 -6.240519548290037e-14 -0.024780860988711823 3.260809601175979e-13 1.0594200505067382e-13 3.260809601175979e-13 -0.024780860989166775" free_energy=-45151.74527367749 pbc="T T T"
In      -4.21927210       2.98347592       5.65492591        0      -0.00509366       0.00360176      -0.00623843
In       7.16477203       1.18209003       1.56004594        1       0.00509366      -0.00360176       0.00623843
In       1.27377217      -0.90069294       5.16753187        2       0.00509366      -0.00360176       0.00623843
In      -1.47274996      -2.08278297       3.60748593        3       0.00000000      -0.00000000       0.00000000
In      -1.27377218       4.02486740       3.36378890        4      -0.00509366       0.00360176       0.00623843
In       4.61722768      -2.84277737       5.41122889        5      -0.00509366      -0.00720352      -0.00000000
In      -1.27377218       1.32278857       5.41122889        6      -0.00509366      -0.00720352      -0.00000000
In      -1.67172775       7.00834332       1.80374296        7       0.00509366       0.00720352       0.00000000
In       4.21927210       0.14069855       3.85118295        8       0.00509366      -0.00360176      -0.00623843
In      -1.47274996       4.16556594      -0.00000000        9      -0.00000000       0.00000000       0.00000000
In       4.21927210       6.38904746       0.24369702       10       0.00509366      -0.00360176      -0.00623843
In      -1.27377218      -2.22348151       6.97127483       11      -0.00509366       0.00360176       0.00623843
In       4.21927210       2.84277737       1.80374296       12       0.00509366       0.00720352       0.00000000
In       1.67172775       5.06625889       2.04743999       13      -0.00509366       0.00360176      -0.00623843
In       4.41824989       0.00000000      -0.00000000       14      -0.00000000      -0.00000000       0.00000000
In       1.47274996       2.08278297       3.60748593       15      -0.00000000       0.00000000       0.00000000
O        0.86238128       4.16348156       3.93185122       16      -0.00351025       0.00026919      -0.00116003
O       -2.08311865       3.40612524       5.25085137       17      -0.00351025      -0.00113921       0.00034689
O       -0.43051231       2.23755609       0.05990064       18      -0.00199035      -0.00221394       0.00220839
O       -0.86238128      -0.76152509       1.96773074       19       0.00351025      -0.00087002      -0.00081314
O        3.90569855       4.96167469       1.90783009       20       0.00009603       0.00214503      -0.00302153
O        1.98530130       2.91139099       1.64336544       21      -0.00009603       0.00368923       0.00034689
O        1.98530130       6.21584964       0.26446465       22      -0.00009603      -0.00154420      -0.00336842
O       -2.25309222       5.90838779       3.66738657       23       0.00142388       0.00261450       0.00220839
O        3.37601224       1.92800986       7.15507121       24       0.00199035       0.00221394      -0.00220839
O        5.19859214      -1.74282184       3.54758528       25      -0.00142388      -0.00261450      -0.00220839
O        6.32151216       3.25343650       1.69965583       26       0.00199035       0.00080555       0.00302153
O        3.63790763       2.30463902       3.87195058       27       0.00142388       0.00060527      -0.00336842
O        0.69240771       4.28367103       6.89060656       28       0.00142388      -0.00321977       0.00116003
O        2.25309222      -0.11810508       0.32436530       29      -0.00142388       0.00321977      -0.00116003
O       -3.37601224       0.91212945       5.51531602       30      -0.00199035      -0.00080555      -0.00302153
O        5.02861857       0.75944071       1.96412048       31       0.00351025       0.00113921      -0.00034689
O        0.96019862       1.25417496       5.57160641       32       0.00009603      -0.00368923      -0.00034689
O        3.37601224      -1.01588041       5.57521667       33       0.00199035      -0.00301949      -0.00081314
O        2.08311865       0.00208438       3.28312063       34       0.00351025      -0.00026919       0.00116003
O        0.96019862      -2.05028370       6.95050720       35       0.00009603       0.00154420       0.00336842
O       -0.69240771       1.86092693       3.34302127       36      -0.00142388      -0.00060527       0.00336842
O       -0.96019863      -0.79610874       5.30714176       37      -0.00009603      -0.00214503       0.00302153
O       -0.43051231       5.18144635       1.63975519       38      -0.00199035       0.00301949       0.00081314
O        3.80788120       4.92709103       5.24724111       39      -0.00351025       0.00087002       0.00081314
