40
Lattice="8.27260067970754 6.48384419831858e-10 2.844927025145546e-14 -2.7575335605138185 7.799482718010072 -1.123053417495531e-09 -2.75753355959689 -3.8997413583566436 6.7545501709231095" Properties=species:S:1:pos:R:3:spacegroup_kinds:I:1:forces:R:3 spacegroup="P 1" unit_cell=conventional occupancy="_JSON {\"0\": {\"In\": 1}, \"1\": {\"In\": 1}, \"2\": {\"In\": 1}, \"3\": {\"In\": 1}, \"4\": {\"In\": 1}, \"5\": {\"In\": 1}, \"6\": {\"In\": 1}, \"7\": {\"In\": 1}, \"8\": {\"In\": 1}, \"9\": {\"In\": 1}, \"10\": {\"In\": 1}, \"11\": {\"In\": 1}, \"12\": {\"In\": 1}, \"13\": {\"In\": 1}, \"14\": {\"In\": 1}, \"15\": {\"In\": 1}, \"16\": {\"O\": 1}, \"17\": {\"O\": 1}, \"18\": {\"O\": 1}, \"19\": {\"O\": 1}, \"20\": {\"O\": 1}, \"21\": {\"O\": 1}, \"22\": {\"O\": 1}, \"23\": {\"O\": 1}, \"24\": {\"O\": 1}, \"25\": {\"O\": 1}, \"26\": {\"O\": 1}, \"27\": {\"O\": 1}, \"28\": {\"O\": 1}, \"29\": {\"O\": 1}, \"30\": {\"O\": 1}, \"31\": {\"O\": 1}, \"32\": {\"O\": 1}, \"33\": {\"O\": 1}, \"34\": {\"O\": 1}, \"35\": {\"O\": 1}, \"36\": {\"O\": 1}, \"37\": {\"O\": 1}, \"38\": {\"O\": 1}, \"39\": {\"O\": 1}}" n_minim_iter=5 energy=-45136.89948865524 stress="-0.3394661346976931 -1.4330892610433767e-13 9.898123080258463e-15 -1.4330892610433767e-13 -0.3394661346979716 1.4011696928550772e-13 9.898123080258463e-15 1.4011696928550772e-13 -0.33946613469800263" free_energy=-45136.89948865524 pbc="T T T"
In      -3.93531959       2.78269117       5.31206277        0      -0.00257814       0.00182302      -0.00315757
In       6.69285315       1.11705019       1.44248740        1       0.00257814      -0.00182302       0.00315757
In       1.17778603      -0.83282049       4.81976248        2       0.00257814      -0.00182302       0.00315757
In      -1.37876678      -1.94987068       3.37727508        3      -0.00000000       0.00000000      -0.00000000
In      -1.17778603       3.75762651       3.13112494        4      -0.00257814       0.00182302       0.00315757
In       4.33728109      -2.64057632       5.06591263        5      -0.00257814      -0.00364604      -0.00000000
In      -1.17778603       1.25916504       5.06591263        6      -0.00257814      -0.00364604       0.00000000
In      -1.57974753       6.54031768       1.68863754        7       0.00257814       0.00364604       0.00000000
In       3.93531959       0.14211485       3.62342522        8       0.00257814      -0.00182302      -0.00315757
In      -1.37876678       3.89974136      -0.00000000        9       0.00000000      -0.00000000       0.00000000
In       3.93531959       5.99172689       0.24615014       10       0.00257814      -0.00182302      -0.00315757
In      -1.17778603      -2.09198553       6.50840003       11      -0.00257814       0.00182302       0.00315757
In       3.93531959       2.64057632       1.68863754       12       0.00257814       0.00364604       0.00000000
In       1.57974753       4.73256185       1.93478768       13      -0.00257814       0.00182302      -0.00315757
In       4.13630034       0.00000000      -0.00000000       14       0.00000000      -0.00000000       0.00000000
In       1.37876678       1.94987068       3.37727508       15      -0.00000000       0.00000000      -0.00000000
O        0.78501364       3.88985700       3.72631545       16       0.00606275      -0.00114997       0.00681019
O       -1.97251992       3.23202603       4.89995255       17       0.00606275       0.00647278      -0.00240919
O       -0.37717590       2.10394746       0.09929178       18       0.00703931       0.00578225      -0.00121315
O       -0.78501364      -0.67759969       1.87171783       19      -0.00606275       0.00532281       0.00440100
O        3.70469000       4.63466719       1.77242605       20       0.00408168      -0.00602323       0.00561415
O        1.81037712       2.73223829       1.52267746       21      -0.00408168      -0.00787361      -0.00240919
O        1.81037712       5.80217026       0.24974859       22      -0.00408168       0.00185038       0.00802334
O       -2.10934599       5.50390107       3.47656687       23      -0.00310512      -0.00856414      -0.00121315
O        3.13470946       1.79579391       6.65525838       24      -0.00703931      -0.00578225       0.00121315
O        4.86687954      -1.60415971       3.27798330       25       0.00310512       0.00856414       0.00121315
O        5.89224302       3.08783362       1.60484903       26      -0.00703931       0.00184050      -0.00561415
O        3.40572113       2.20871537       3.62702367       27      -0.00310512       0.00323145       0.00802334
O        0.64818757       3.98660764       6.40550980       28      -0.00310512       0.00533269      -0.00681019
O        2.10934598      -0.08686628       0.34904037       29       0.00310512      -0.00533269       0.00681019
O       -3.13470946       0.81190775       5.14970113       30       0.00703931      -0.00184051       0.00561415
O        4.73005348       0.66771533       1.85459762       31      -0.00606275      -0.00647278       0.00240919
O        0.94715644       1.16750308       5.23187270       32       0.00408168       0.00787361       0.00240919
O        3.13470946      -0.98388616       5.24899292       33      -0.00703931       0.00394174       0.00440100
O        1.97251992       0.00988436       3.02823471       34      -0.00606275       0.00114997      -0.00681019
O        0.94715644      -1.90242890       6.50480158       35       0.00408168      -0.00185038      -0.00802334
O       -0.64818758       1.69102599       3.12752649       36       0.00310512      -0.00323145      -0.00802334
O       -0.94715644      -0.73492583       4.98212412       37      -0.00408168       0.00602323      -0.00561415
O       -0.37717590       4.88362752       1.50555725       38       0.00703931      -0.00394174      -0.00440100
O        3.54254720       4.57734105       4.88283233       39       0.00606275      -0.00532281      -0.00440100
