40
Lattice="9.199049604449863 7.209986114281579e-10 1.167735327022003e-14 -3.066349868829716 8.672947140796902 -1.2488070429460734e-09 -3.0663498678100827 -4.3364735696774535 7.510992550442262" Properties=species:S:1:pos:R:3:spacegroup_kinds:I:1:forces:R:3 spacegroup="P 1" unit_cell=conventional occupancy="_JSON {\"0\": {\"In\": 1}, \"1\": {\"In\": 1}, \"2\": {\"In\": 1}, \"3\": {\"In\": 1}, \"4\": {\"In\": 1}, \"5\": {\"In\": 1}, \"6\": {\"In\": 1}, \"7\": {\"In\": 1}, \"8\": {\"In\": 1}, \"9\": {\"In\": 1}, \"10\": {\"In\": 1}, \"11\": {\"In\": 1}, \"12\": {\"In\": 1}, \"13\": {\"In\": 1}, \"14\": {\"In\": 1}, \"15\": {\"In\": 1}, \"16\": {\"O\": 1}, \"17\": {\"O\": 1}, \"18\": {\"O\": 1}, \"19\": {\"O\": 1}, \"20\": {\"O\": 1}, \"21\": {\"O\": 1}, \"22\": {\"O\": 1}, \"23\": {\"O\": 1}, \"24\": {\"O\": 1}, \"25\": {\"O\": 1}, \"26\": {\"O\": 1}, \"27\": {\"O\": 1}, \"28\": {\"O\": 1}, \"29\": {\"O\": 1}, \"30\": {\"O\": 1}, \"31\": {\"O\": 1}, \"32\": {\"O\": 1}, \"33\": {\"O\": 1}, \"34\": {\"O\": 1}, \"35\": {\"O\": 1}, \"36\": {\"O\": 1}, \"37\": {\"O\": 1}, \"38\": {\"O\": 1}, \"39\": {\"O\": 1}}" n_minim_iter=1 energy=-45149.86959277196 stress="0.0679129554751355 1.2683152300955267e-13 -1.1076421330044349e-13 1.2683152300955267e-13 0.0679129554747523 -1.5177028649838806e-13 -1.1076421330044349e-13 -1.5177028649838806e-13 0.06791295547473956" free_energy=-45149.86959277196 pbc="T T T"
In      -4.37801824       3.09572638       5.90453344        0       0.02076563      -0.01468352       0.02543259
In       7.44436810       1.24074719       1.60645910        1      -0.02076563       0.01468352      -0.02543259
In       1.31166837      -0.92748959       5.36195538        2      -0.02076563       0.01468352      -0.02543259
In      -1.53317494      -2.16823678       3.75549627        3       0.00000000      -0.00000000       0.00000000
In      -1.31166837       4.17984478       3.48420724        4       0.02076563      -0.01468352      -0.02543259
In       4.82103137      -2.93909758       5.63324441        5       0.02076563       0.02936703      -0.00000000
In      -1.31166837       1.39737599       5.63324441        6       0.02076563       0.02936703       0.00000000
In      -1.75468150       7.27557116       1.87774813        7      -0.02076563      -0.02936703      -0.00000000
In       4.37801823       0.15662880       4.02678530        8      -0.02076563       0.01468352       0.02543259
In      -1.53317494       4.33647357      -0.00000000        9       0.00000000      -0.00000000      -0.00000000
In       4.37801823       6.66133915       0.27128903       10      -0.02076563       0.01468352       0.02543259
In      -1.31166837      -2.32486558       7.23970352       11       0.02076563      -0.01468352      -0.02543259
In       4.37801823       2.93909759       1.87774813       12      -0.02076563      -0.02936703      -0.00000000
In       1.75468150       5.26396317       2.14903717       13       0.02076563      -0.01468352       0.02543259
In       4.59952480       0.00000000      -0.00000000       14      -0.00000000      -0.00000000       0.00000000
In       1.53317493       2.16823679       3.75549627       15       0.00000000      -0.00000000       0.00000000
O        0.94971601       4.34460499       4.07434890       16       0.02064356       0.01777804      -0.03750206
O       -2.11663386       3.52442395       5.46677608       17       0.02064356      -0.04136676       0.00335480
O       -0.44136935       2.33983306       0.00755515       18      -0.01535847      -0.01590948      -0.04073851
O       -0.94971601      -0.80391821       2.03013244       19      -0.02064356      -0.02358872      -0.03414727
O        4.02840338       5.14475375       2.02257729       20      -0.04588214       0.00006833       0.00659124
O        2.10429635       2.98901034       1.71127981       21       0.04588214      -0.00567402       0.00335480
O        2.10429635       6.49221698       0.31129748       22       0.04588214       0.00574235       0.00323644
O       -2.35313888       6.14089302       3.76305142       23       0.00988011       0.01978327      -0.04073851
O        3.50771922       1.99664052       7.50343740       24       0.01535847       0.01590948       0.04073851
O        5.41948874      -1.80441945       3.74794112       25      -0.00988011      -0.01978327       0.04073851
O        6.57406909       3.34469627       1.73291898       26       0.01535847      -0.04323532      -0.00659124
O        3.77956086       2.35668841       4.06679375       27       0.00988011      -0.04517221       0.00323644
O        0.71321099       4.51183929       7.19213992       28       0.00988011       0.02538895       0.03750206
O        2.35313888      -0.17536571       0.31885263       29      -0.00988011      -0.02538895      -0.03750206
O       -3.50771922       0.99177731       5.77807356       30      -0.01535847       0.04323532       0.00659124
O        5.18298373       0.81204962       2.04421646       31      -0.02064356       0.04136676      -0.00335480
O        0.96205352       1.34746323       5.79971274       32      -0.04588214       0.00567402      -0.00335480
O        3.50771922      -1.00486321       5.78562871       33       0.01535847       0.02732584      -0.03414727
O        2.11663386      -0.00813141       3.43664364       34      -0.02064356      -0.01777804       0.03750206
O        0.96205352      -2.15574340       7.19969507       35      -0.04588214      -0.00574235      -0.00323644
O       -0.71321099       1.97978517       3.44419879       36      -0.00988011       0.04517221      -0.00323644
O       -0.96205352      -0.80828017       5.48841526       37       0.04588214      -0.00006833      -0.00659124
O       -0.44136935       5.34133678       1.72536383       38      -0.01535847      -0.02732584       0.03414727
O        4.01606588       5.14039178       5.48086010       39       0.02064356       0.02358872       0.03414727
40
Lattice="9.199049604449865 7.209986114281582e-10 1.1677353270220026e-14 -3.0663498688297173 8.672947140796904 -1.2488070429460743e-09 -3.066349867810084 -4.336473569677454 7.510992550442267" Properties=species:S:1:pos:R:3:spacegroup_kinds:I:1:forces:R:3 spacegroup="P 1" unit_cell=conventional occupancy="_JSON {\"0\": {\"In\": 1}, \"1\": {\"In\": 1}, \"2\": {\"In\": 1}, \"3\": {\"In\": 1}, \"4\": {\"In\": 1}, \"5\": {\"In\": 1}, \"6\": {\"In\": 1}, \"7\": {\"In\": 1}, \"8\": {\"In\": 1}, \"9\": {\"In\": 1}, \"10\": {\"In\": 1}, \"11\": {\"In\": 1}, \"12\": {\"In\": 1}, \"13\": {\"In\": 1}, \"14\": {\"In\": 1}, \"15\": {\"In\": 1}, \"16\": {\"O\": 1}, \"17\": {\"O\": 1}, \"18\": {\"O\": 1}, \"19\": {\"O\": 1}, \"20\": {\"O\": 1}, \"21\": {\"O\": 1}, \"22\": {\"O\": 1}, \"23\": {\"O\": 1}, \"24\": {\"O\": 1}, \"25\": {\"O\": 1}, \"26\": {\"O\": 1}, \"27\": {\"O\": 1}, \"28\": {\"O\": 1}, \"29\": {\"O\": 1}, \"30\": {\"O\": 1}, \"31\": {\"O\": 1}, \"32\": {\"O\": 1}, \"33\": {\"O\": 1}, \"34\": {\"O\": 1}, \"35\": {\"O\": 1}, \"36\": {\"O\": 1}, \"37\": {\"O\": 1}, \"38\": {\"O\": 1}, \"39\": {\"O\": 1}}" n_minim_iter=2 energy=-45149.87456854572 stress="0.0671741185568593 -8.868227779690914e-14 2.3949852052319724e-13 -8.868227779690914e-14 0.06717411855728275 3.7188832811615376e-14 2.3949852052319724e-13 3.7188832811615376e-14 0.06717411855703716" free_energy=-45149.87456854572 pbc="T T T"
In      -4.37492695       3.09354051       5.90831948        0      -0.00159417       0.00112725      -0.00195245
In       7.44127681       1.24293306       1.60267306        1       0.00159417      -0.00112725       0.00195245
In       1.30857708      -0.92530372       5.35816934        2       0.00159417      -0.00112725       0.00195245
In      -1.53317494      -2.16823678       3.75549627        3       0.00000000       0.00000000       0.00000000
In      -1.30857708       4.17765891       3.48042120        4      -0.00159417       0.00112725       0.00195245
In       4.82412266      -2.93472584       5.63324441        5      -0.00159417      -0.00225449       0.00000000
In      -1.30857708       1.40174773       5.63324441        6      -0.00159417      -0.00225449       0.00000000
In      -1.75777279       7.27119942       1.87774813        7       0.00159417       0.00225449      -0.00000000
In       4.37492695       0.15881467       4.03057134        8       0.00159417      -0.00112725      -0.00195245
In      -1.53317494       4.33647357      -0.00000000        9      -0.00000000      -0.00000000      -0.00000000
In       4.37492695       6.66352502       0.27507507       10       0.00159417      -0.00112725      -0.00195245
In      -1.30857708      -2.32705145       7.23591748       11      -0.00159417       0.00112725       0.00195245
In       4.37492695       2.93472585       1.87774813       12       0.00159417       0.00225449       0.00000000
In       1.75777279       5.26177730       2.15282320       13      -0.00159417       0.00112725      -0.00195245
In       4.59952480       0.00000000      -0.00000000       14       0.00000000      -0.00000000      -0.00000000
In       1.53317493       2.16823679       3.75549627       15      -0.00000000       0.00000000      -0.00000000
O        0.95278912       4.34725153       4.06876614       16       0.02258033      -0.00138907       0.01136078
O       -2.11356075       3.51826586       5.46727550       17       0.02258033       0.01053326      -0.00447742
O       -0.44365570       2.33746468       0.00149059       18       0.01614800       0.01508160      -0.01235538
O       -0.95278913      -0.80742975       2.02504909       19      -0.02258033       0.00914419       0.00688336
O        4.02157311       5.14476392       2.02355850       20       0.00240407      -0.01627757       0.01923874
O        2.11112662       2.98816568       1.71177922       21      -0.00240407      -0.02480002      -0.00447742
O        2.11112662       6.49307181       0.31177927       22      -0.00240407       0.00852245       0.02371616
O       -2.35166807       6.14383807       3.75698686       23      -0.00883640      -0.02025168      -0.01235538
O        3.51000557       1.99900889       7.50950196       24      -0.01614800      -0.01508160       0.01235538
O        5.41801794      -1.80736449       3.75400568       25       0.00883640       0.02025168       0.01235538
O        6.57635543       3.33826002       1.73193777       26      -0.01614800      -0.00315928      -0.01923874
O        3.78103167       2.34996382       4.06727555       27      -0.00883640      -0.00057423       0.02371616
O        0.71468180       4.51561883       7.19772268       28      -0.00883640       0.02082591      -0.01136078
O        2.35166807      -0.17914526       0.31326986       29       0.00883640      -0.02082591       0.01136078
O       -3.51000557       0.99821356       5.77905477       30       0.01614800       0.00315928       0.01923874
O        5.17991061       0.81820771       2.04371705       31      -0.02258033      -0.01053326       0.00447742
O        0.95522324       1.34830790       5.79921332       32       0.00240407       0.02480002       0.00447742
O        3.51000557      -1.00079533       5.78054536       33      -0.01614800       0.01824087       0.00688336
O        2.11356074      -0.01077795       3.44222641       34      -0.02258033       0.00138907      -0.01136078
O        0.95522324      -2.15659824       7.19921327       35       0.00240407      -0.00852245      -0.02371616
O       -0.71468180       1.98650976       3.44371700       36       0.00883640       0.00057423      -0.02371616
O       -0.95522325      -0.80829035       5.48743405       37      -0.00240407       0.01627757      -0.01923874
O       -0.44365570       5.33726890       1.73044718       38       0.01614800      -0.01824087      -0.00688336
O        4.01913899       5.14390333       5.48594346       39       0.02258033      -0.00914419      -0.00688336
40
Lattice="9.199049604449872 7.209986114281587e-10 1.1677353270220061e-14 -3.066349868829719 8.672947140796905 -1.2488070429460753e-09 -3.066349867810086 -4.336473569677455 7.510992550442274" Properties=species:S:1:pos:R:3:spacegroup_kinds:I:1:forces:R:3 spacegroup="P 1" unit_cell=conventional occupancy="_JSON {\"0\": {\"In\": 1}, \"1\": {\"In\": 1}, \"2\": {\"In\": 1}, \"3\": {\"In\": 1}, \"4\": {\"In\": 1}, \"5\": {\"In\": 1}, \"6\": {\"In\": 1}, \"7\": {\"In\": 1}, \"8\": {\"In\": 1}, \"9\": {\"In\": 1}, \"10\": {\"In\": 1}, \"11\": {\"In\": 1}, \"12\": {\"In\": 1}, \"13\": {\"In\": 1}, \"14\": {\"In\": 1}, \"15\": {\"In\": 1}, \"16\": {\"O\": 1}, \"17\": {\"O\": 1}, \"18\": {\"O\": 1}, \"19\": {\"O\": 1}, \"20\": {\"O\": 1}, \"21\": {\"O\": 1}, \"22\": {\"O\": 1}, \"23\": {\"O\": 1}, \"24\": {\"O\": 1}, \"25\": {\"O\": 1}, \"26\": {\"O\": 1}, \"27\": {\"O\": 1}, \"28\": {\"O\": 1}, \"29\": {\"O\": 1}, \"30\": {\"O\": 1}, \"31\": {\"O\": 1}, \"32\": {\"O\": 1}, \"33\": {\"O\": 1}, \"34\": {\"O\": 1}, \"35\": {\"O\": 1}, \"36\": {\"O\": 1}, \"37\": {\"O\": 1}, \"38\": {\"O\": 1}, \"39\": {\"O\": 1}}" n_minim_iter=3 energy=-45149.87755375352 stress="0.0670368819316555 -2.4858379812435703e-14 -1.1498825854405717e-13 -2.4858379812435703e-14 0.06703688193114193 -8.073198250536229e-14 -1.1498825854405717e-13 -8.073198250536229e-14 0.06703688193138581" free_energy=-45149.87755375352 pbc="T T T"
In      -4.37470887       3.09338631       5.90858657        0       0.00894444      -0.00632468       0.01095466
In       7.44105874       1.24308727       1.60240597        1      -0.00894444       0.00632468      -0.01095466
In       1.30835900      -0.92514952       5.35790225        2      -0.00894444       0.00632468      -0.01095466
In      -1.53317494      -2.16823678       3.75549627        3       0.00000000      -0.00000000       0.00000000
In      -1.30835900       4.17750470       3.48015411        4       0.00894444      -0.00632468      -0.01095466
In       4.82434073      -2.93441743       5.63324441        5       0.00894444       0.01264935      -0.00000000
In      -1.30835900       1.40205614       5.63324441        6       0.00894444       0.01264935      -0.00000000
In      -1.75799087       7.27089101       1.87774813        7      -0.00894444      -0.01264935       0.00000000
In       4.37470887       0.15896887       4.03083843        8      -0.00894444       0.00632468       0.01095466
In      -1.53317494       4.33647357      -0.00000000        9      -0.00000000      -0.00000000      -0.00000000
In       4.37470887       6.66367923       0.27534216       10      -0.00894444       0.00632468       0.01095466
In      -1.30835900      -2.32720565       7.23565039       11       0.00894444      -0.00632468      -0.01095466
In       4.37470887       2.93441744       1.87774813       12      -0.00894444      -0.01264935      -0.00000000
In       1.75799087       5.26162309       2.15309030       13       0.00894444      -0.00632468       0.01095466
In       4.59952480       0.00000000      -0.00000000       14      -0.00000000       0.00000000       0.00000000
In       1.53317493       2.16823679       3.75549627       15       0.00000000       0.00000000      -0.00000000
O        0.96016767       4.34743104       4.07088601       16       0.00961770      -0.00292451      -0.00681264
O       -2.10618220       3.52001197       5.46606009       17       0.00961770      -0.00443766       0.00593902
O       -0.43938069       2.34140532      -0.00352586       18      -0.00373522       0.00500428      -0.01041491
O       -0.96016767      -0.80550413       2.02595356       19      -0.00961770      -0.00736217      -0.00087362
O        4.02075984       5.13994205       2.02947941       20      -0.00738977       0.00134912       0.00954129
O        2.11193989       2.98062708       1.71056382       21       0.00738977      -0.00758844       0.00593902
O        2.11193989       6.49578854       0.31891559       22       0.00738977       0.00893756       0.00360227
O       -2.35395834       6.13849400       3.75197042       23      -0.00596315       0.00185351      -0.01041491
O        3.50573056       1.99506825       7.51451840       24       0.00373522      -0.00500428       0.01041491
O        5.42030820      -1.80202043       3.75902213       25       0.00596315      -0.00185351       0.01041491
O        6.57208042       3.33588597       1.72601686       26       0.00373522      -0.00651744      -0.00954129
O        3.77874140       2.34829148       4.07441187       27      -0.00596315      -0.00994633       0.00360227
O        0.71239153       4.52263523       7.19560281       28      -0.00596315       0.00809282       0.00681264
O        2.35395834      -0.18616166       0.31538974       29       0.00596315      -0.00809282      -0.00681264
O       -3.50573056       1.00058761       5.78497569       30      -0.00373522       0.00651744       0.00954129
O        5.17253206       0.81646160       2.04493245       31      -0.00961770       0.00443766      -0.00593902
O        0.95440997       1.35584649       5.80042872       32      -0.00738977       0.00758844      -0.00593902
O        3.50573056      -0.99448064       5.78144983       33       0.00373522       0.01152171      -0.00087362
O        2.10618219      -0.01095747       3.44010653       34      -0.00961770       0.00292451       0.00681264
O        0.95440997      -2.15931497       7.19207695       35      -0.00738977      -0.00893756      -0.00360227
O       -0.71239153       1.98818209       3.43658068       36       0.00596315       0.00994633      -0.00360227
O       -0.95440998      -0.80346848       5.48151313       37       0.00738977      -0.00134912      -0.00954129
O       -0.43938069       5.33095422       1.72954271       38      -0.00373522      -0.01152171       0.00087362
O        4.02651754       5.14197771       5.48503899       39       0.00961770       0.00736217       0.00087362
40
Lattice="9.199049604449877 7.209986114281592e-10 1.1677353270220072e-14 -3.0663498688297213 8.672947140796913 -1.2488070429460761e-09 -3.066349867810088 -4.336473569677459 7.510992550442278" Properties=species:S:1:pos:R:3:spacegroup_kinds:I:1:forces:R:3 spacegroup="P 1" unit_cell=conventional occupancy="_JSON {\"0\": {\"In\": 1}, \"1\": {\"In\": 1}, \"2\": {\"In\": 1}, \"3\": {\"In\": 1}, \"4\": {\"In\": 1}, \"5\": {\"In\": 1}, \"6\": {\"In\": 1}, \"7\": {\"In\": 1}, \"8\": {\"In\": 1}, \"9\": {\"In\": 1}, \"10\": {\"In\": 1}, \"11\": {\"In\": 1}, \"12\": {\"In\": 1}, \"13\": {\"In\": 1}, \"14\": {\"In\": 1}, \"15\": {\"In\": 1}, \"16\": {\"O\": 1}, \"17\": {\"O\": 1}, \"18\": {\"O\": 1}, \"19\": {\"O\": 1}, \"20\": {\"O\": 1}, \"21\": {\"O\": 1}, \"22\": {\"O\": 1}, \"23\": {\"O\": 1}, \"24\": {\"O\": 1}, \"25\": {\"O\": 1}, \"26\": {\"O\": 1}, \"27\": {\"O\": 1}, \"28\": {\"O\": 1}, \"29\": {\"O\": 1}, \"30\": {\"O\": 1}, \"31\": {\"O\": 1}, \"32\": {\"O\": 1}, \"33\": {\"O\": 1}, \"34\": {\"O\": 1}, \"35\": {\"O\": 1}, \"36\": {\"O\": 1}, \"37\": {\"O\": 1}, \"38\": {\"O\": 1}, \"39\": {\"O\": 1}}" n_minim_iter=4 energy=-45149.87867859376 stress="0.06665615814242681 -1.0014451298329039e-13 -1.264730965734711e-14 -1.0014451298329039e-13 0.06665615814243561 2.59522948868549e-13 -1.264730965734711e-14 2.59522948868549e-13 0.06665615814241507" free_energy=-45149.87867859376 pbc="T T T"
In      -4.37335645       3.09243000       5.91024294        0       0.00756667      -0.00535044       0.00926724
In       7.43970631       1.24404357       1.60074960        1      -0.00756667       0.00535044      -0.00926724
In       1.30700658      -0.92419321       5.35624588        2      -0.00756667       0.00535044      -0.00926724
In      -1.53317494      -2.16823678       3.75549627        3       0.00000000       0.00000000      -0.00000000
In      -1.30700658       4.17654839       3.47849774        4       0.00756667      -0.00535044      -0.00926724
In       4.82569316      -2.93250482       5.63324441        5       0.00756667       0.01070088      -0.00000000
In      -1.30700658       1.40396875       5.63324441        6       0.00756667       0.01070088      -0.00000000
In      -1.75934329       7.26897839       1.87774813        7      -0.00756667      -0.01070088       0.00000000
In       4.37335645       0.15992518       4.03249481        8      -0.00756667       0.00535044       0.00926724
In      -1.53317494       4.33647357      -0.00000000        9       0.00000000      -0.00000000      -0.00000000
In       4.37335645       6.66463554       0.27699853       10      -0.00756667       0.00535044       0.00926724
In      -1.30700658      -2.32816196       7.23399401       11       0.00756667      -0.00535044      -0.00926724
In       4.37335645       2.93250482       1.87774813       12      -0.00756667      -0.01070088       0.00000000
In       1.75934329       5.26066679       2.15474667       13       0.00756667      -0.00535044       0.00926724
In       4.59952480       0.00000000      -0.00000000       14       0.00000000      -0.00000000      -0.00000000
In       1.53317493       2.16823679       3.75549627       15      -0.00000000       0.00000000       0.00000000
O        0.96680696       4.34836442       4.07049020       16       0.00065606      -0.00989822      -0.00244503
O       -2.09954291       3.51920250       5.46544967       17       0.00065606       0.00283165       0.00979462
O       -0.43705077       2.34364304      -0.00941416       18      -0.00644374       0.00785196       0.00109919
O       -0.96680697      -0.80538022       2.02494733       19      -0.00065606      -0.00706657       0.00734959
O        4.01778357       5.13641853       2.03436149       20       0.00245102       0.00770118       0.00625041
O        2.11491616       2.97463732       1.70995340       21      -0.00245102      -0.00156242       0.00979462
O        2.11491616       6.49825478       0.32440809       22      -0.00245102       0.00926360      -0.00354422
O       -2.35529144       6.13555143       3.74608211       23      -0.00955081       0.00345790       0.00109919
O        3.50340064       1.99283053       7.52040671       24       0.00644374      -0.00785196      -0.00109919
O        5.42164130      -1.79907785       3.76491043       25       0.00955081      -0.00345790      -0.00109919
O        6.56975050       3.33190541       1.72113478       26       0.00644374       0.00487790      -0.00625041
O        3.77740830       2.34466335       4.07990436       27      -0.00955081      -0.00077703      -0.00354422
O        0.71105843       4.52920594       7.19599862       28      -0.00955081      -0.00268087       0.00244503
O        2.35529144      -0.19273236       0.31499393       29       0.00955081       0.00268087      -0.00244503
O       -3.50340064       1.00456817       5.78985776       30      -0.00644374      -0.00487790       0.00625041
O        5.16589277       0.81727107       2.04554287       31      -0.00065606      -0.00283165      -0.00979462
O        0.95143370       1.36183625       5.80103915       32       0.00245102       0.00156242      -0.00979462
O        3.50340064      -0.98826236       5.78044360       33       0.00644374       0.00297406       0.00734959
O        2.09954290      -0.01189084       3.44050234       34      -0.00065606       0.00989822       0.00244503
O        0.95143370      -2.16178121       7.18658446       35       0.00245102      -0.00926360       0.00354422
O       -0.71105843       1.99181022       3.43108818       36       0.00955081       0.00077703       0.00354422
O       -0.95143371      -0.79994495       5.47663106       37      -0.00245102      -0.00770118      -0.00625041
O       -0.43705077       5.32473594       1.73054894       38      -0.00644374      -0.00297406      -0.00734959
O        4.03315683       5.14185380       5.48604522       39       0.00065606       0.00706657      -0.00734959
40
Lattice="9.19904960444988 7.209986114281595e-10 1.167735327022009e-14 -3.0663498688297226 8.67294714079692 -1.248807042946077e-09 -3.0663498678100893 -4.336473569677462 7.510992550442283" Properties=species:S:1:pos:R:3:spacegroup_kinds:I:1:forces:R:3 spacegroup="P 1" unit_cell=conventional occupancy="_JSON {\"0\": {\"In\": 1}, \"1\": {\"In\": 1}, \"2\": {\"In\": 1}, \"3\": {\"In\": 1}, \"4\": {\"In\": 1}, \"5\": {\"In\": 1}, \"6\": {\"In\": 1}, \"7\": {\"In\": 1}, \"8\": {\"In\": 1}, \"9\": {\"In\": 1}, \"10\": {\"In\": 1}, \"11\": {\"In\": 1}, \"12\": {\"In\": 1}, \"13\": {\"In\": 1}, \"14\": {\"In\": 1}, \"15\": {\"In\": 1}, \"16\": {\"O\": 1}, \"17\": {\"O\": 1}, \"18\": {\"O\": 1}, \"19\": {\"O\": 1}, \"20\": {\"O\": 1}, \"21\": {\"O\": 1}, \"22\": {\"O\": 1}, \"23\": {\"O\": 1}, \"24\": {\"O\": 1}, \"25\": {\"O\": 1}, \"26\": {\"O\": 1}, \"27\": {\"O\": 1}, \"28\": {\"O\": 1}, \"29\": {\"O\": 1}, \"30\": {\"O\": 1}, \"31\": {\"O\": 1}, \"32\": {\"O\": 1}, \"33\": {\"O\": 1}, \"34\": {\"O\": 1}, \"35\": {\"O\": 1}, \"36\": {\"O\": 1}, \"37\": {\"O\": 1}, \"38\": {\"O\": 1}, \"39\": {\"O\": 1}}" n_minim_iter=5 energy=-45149.87879448937 stress="0.06651322456966124 6.876391607152413e-14 1.2307655623481545e-13 6.876391607152413e-14 0.06651322456922562 -1.748855609938401e-13 1.2307655623481545e-13 -1.748855609938401e-13 0.0665132245695361" free_energy=-45149.87879448937 pbc="T T T"
In      -4.37263020       3.09191647       5.91113241        0       0.00420160      -0.00297098       0.00514588
In       7.43898007       1.24455711       1.59986013        1      -0.00420160       0.00297098      -0.00514588
In       1.30628033      -0.92367968       5.35535641        2      -0.00420160       0.00297098      -0.00514588
In      -1.53317494      -2.16823678       3.75549627        3      -0.00000000      -0.00000000      -0.00000000
In      -1.30628033       4.17603486       3.47760827        4       0.00420160      -0.00297098      -0.00514588
In       4.82641940      -2.93147775       5.63324441        5       0.00420160       0.00594195      -0.00000000
In      -1.30628033       1.40499582       5.63324441        6       0.00420160       0.00594195      -0.00000000
In      -1.76006954       7.26795132       1.87774813        7      -0.00420160      -0.00594195       0.00000000
In       4.37263020       0.16043872       4.03338427        8      -0.00420160       0.00297098       0.00514588
In      -1.53317494       4.33647357      -0.00000000        9       0.00000000       0.00000000      -0.00000000
In       4.37263020       6.66514907       0.27788800       10      -0.00420160       0.00297098       0.00514588
In      -1.30628033      -2.32867550       7.23310455       11       0.00420160      -0.00297098      -0.00514588
In       4.37263020       2.93147775       1.87774813       12      -0.00420160      -0.00594195      -0.00000000
In       1.76006954       5.26015325       2.15563614       13       0.00420160      -0.00297098       0.00514588
In       4.59952480       0.00000000      -0.00000000       14       0.00000000      -0.00000000      -0.00000000
In       1.53317493       2.16823679       3.75549627       15      -0.00000000      -0.00000000      -0.00000000
O        0.96872331       4.34846012       4.07003496       16      -0.00131973      -0.00992987       0.00247326
O       -2.09762656       3.51876040       5.46559441       17      -0.00131973       0.00710685       0.00736289
O       -0.43673857       2.34433524      -0.01123411       18      -0.00310148       0.00836674       0.00518069
O       -0.96872332      -0.80572662       2.02463682       19       0.00131973      -0.00282303       0.00983615
O        4.01672797       5.13571418       2.03587092       20       0.00714031       0.00581410       0.00465546
O        2.11597177       2.97297793       1.71009813       21      -0.00714031      -0.00112470       0.00736289
O        2.11597177       6.49920982       0.32577279       22      -0.00714031       0.00693880      -0.00270743
O       -2.35583999       6.13502635       3.74426217       23      -0.00892206       0.00013519       0.00518069
O        3.50308844       1.99213833       7.52222665       24       0.00310148      -0.00836674      -0.00518069
O        5.42218985      -1.79855278       3.76673038       25       0.00892206      -0.00013519      -0.00518069
O        6.56943831       3.33067539       1.71962534       26       0.00310148       0.00866998      -0.00465546
O        3.77685975       2.34334977       4.08126907       27      -0.00892206       0.00441901      -0.00270743
O        0.71050988       4.53104460       7.19645386       28      -0.00892206      -0.00455421      -0.00247326
O        2.35583999      -0.19457102       0.31453869       29       0.00892206       0.00455421       0.00247326
O       -3.50308844       1.00579818       5.79136720       30      -0.00310148      -0.00866998       0.00465546
O        5.16397642       0.81771318       2.04539814       31       0.00131973      -0.00710685      -0.00736289
O        0.95037810       1.36349564       5.80089441       32       0.00714031       0.00112470      -0.00736289
O        3.50308844      -0.98634014       5.78013310       33       0.00310148      -0.00030324       0.00983615
O        2.09762655      -0.01198655       3.44095758       34       0.00131973       0.00992987      -0.00247326
O        0.95037810      -2.16273624       7.18521975       35       0.00714031      -0.00693880       0.00270743
O       -0.71050988       1.99312380       3.42972348       36       0.00892206      -0.00441901       0.00270743
O       -0.95037810      -0.79924061       5.47512162       37      -0.00714031      -0.00581410      -0.00465546
O       -0.43673857       5.32281372       1.73085945       38      -0.00310148       0.00030324      -0.00983615
O        4.03507318       5.14220019       5.48635572       39      -0.00131973       0.00282303      -0.00983615
40