40
Lattice="9.599502734966977 7.523859576499687e-10 3.657728013003633e-14 -3.1998342456983497 9.050497972967817 -1.3031932709462262e-09 -3.199834244634345 -4.525248985731514 7.837961162358477" Properties=species:S:1:pos:R:3:spacegroup_kinds:I:1:forces:R:3 spacegroup="P 1" unit_cell=conventional occupancy="_JSON {\"0\": {\"In\": 1}, \"1\": {\"In\": 1}, \"2\": {\"In\": 1}, \"3\": {\"In\": 1}, \"4\": {\"In\": 1}, \"5\": {\"In\": 1}, \"6\": {\"In\": 1}, \"7\": {\"In\": 1}, \"8\": {\"In\": 1}, \"9\": {\"In\": 1}, \"10\": {\"In\": 1}, \"11\": {\"In\": 1}, \"12\": {\"In\": 1}, \"13\": {\"In\": 1}, \"14\": {\"In\": 1}, \"15\": {\"In\": 1}, \"16\": {\"O\": 1}, \"17\": {\"O\": 1}, \"18\": {\"O\": 1}, \"19\": {\"O\": 1}, \"20\": {\"O\": 1}, \"21\": {\"O\": 1}, \"22\": {\"O\": 1}, \"23\": {\"O\": 1}, \"24\": {\"O\": 1}, \"25\": {\"O\": 1}, \"26\": {\"O\": 1}, \"27\": {\"O\": 1}, \"28\": {\"O\": 1}, \"29\": {\"O\": 1}, \"30\": {\"O\": 1}, \"31\": {\"O\": 1}, \"32\": {\"O\": 1}, \"33\": {\"O\": 1}, \"34\": {\"O\": 1}, \"35\": {\"O\": 1}, \"36\": {\"O\": 1}, \"37\": {\"O\": 1}, \"38\": {\"O\": 1}, \"39\": {\"O\": 1}}" n_minim_iter=5 energy=-45142.47187490927 stress="0.10696169206843516 2.3097233906598443e-14 3.272305479349836e-14 2.3097233906598443e-14 0.10696169206806883 1.2081751694061914e-13 3.272305479349836e-14 1.2081751694061914e-13 0.10696169206836184" free_energy=-45142.47187490927 pbc="T T T"
In      -4.53827981       3.20904843       6.19870682        0      -0.00511273       0.00361525      -0.00626180
In       7.73811405       1.31620056       1.63925434        1       0.00511273      -0.00361525       0.00626180
In       1.33844556      -0.94642393       5.55823492        2       0.00511273      -0.00361525       0.00626180
In      -1.59991712      -2.26262449       3.91898058        3       0.00000000       0.00000000       0.00000000
In      -1.33844557       4.34036068       3.59874463        4      -0.00511273       0.00361525       0.00626180
In       5.06122292      -3.02416011       5.87847087        5      -0.00511273      -0.00723050       0.00000000
In      -1.33844557       1.50108887       5.87847087        6      -0.00511273      -0.00723050       0.00000000
In      -1.86138868       7.54940910       1.95949029        7       0.00511273       0.00723050       0.00000000
In       4.53827981       0.18488831       4.23921653        8       0.00511273      -0.00361525      -0.00626180
In      -1.59991712       4.52524899      -0.00000000        9      -0.00000000      -0.00000000      -0.00000000
In       4.53827981       6.97276179       0.32023595       10       0.00511273      -0.00361525      -0.00626180
In      -1.33844557      -2.44751280       7.51772521       11      -0.00511273       0.00361525       0.00626180
In       4.53827981       3.02416012       1.95949029       12       0.00511273       0.00723050      -0.00000000
In       1.86138868       5.47167292       2.27972624       13      -0.00511273       0.00361525      -0.00626180
In       4.79975137       0.00000000      -0.00000000       14      -0.00000000       0.00000000       0.00000000
In       1.59991712       2.26262450       3.91898058       15       0.00000000       0.00000000       0.00000000
O        1.15675750       4.55194965       4.20639823       16       0.00390909       0.00742883      -0.00511167
O       -2.04307675       3.62949740       5.71163859       17       0.00390909      -0.00814125      -0.00387772
O       -0.43376324       2.49154090      -0.15532411       18       0.00063135      -0.00582354      -0.00789211
O       -1.15675750      -0.86905093       2.08007566       19      -0.00390909      -0.00071242      -0.00898939
O        4.10294854       5.30462350       2.23539976       20      -0.00897868      -0.00384409      -0.00109728
O        2.29671995       2.97902326       1.79265801       21       0.00897868      -0.00097178      -0.00387772
O        2.29671995       6.85084923       0.44274175       22       0.00897868      -0.00287232       0.00278044
O       -2.49363504       6.36631575       3.76365647       23       0.00570094       0.00134593      -0.00789211
O        3.63359748       2.03370809       7.99328526       24      -0.00063135       0.00582354       0.00789211
O        5.69346928      -1.84106676       4.07430468       25      -0.00570094      -0.00134593       0.00789211
O        6.83343173       3.37388033       1.68358081       26      -0.00063135      -0.00974654       0.00109728
O        3.90603345       2.33888874       4.36172233       27       0.00570094      -0.00750774       0.00278044
O        0.70619921       4.87054247       7.55054351       28       0.00570094       0.00616180       0.00511167
O        2.49363503      -0.34529348       0.28741765       29      -0.00570094      -0.00616180      -0.00511167
O       -3.63359749       1.15136867       6.15438035       30       0.00063135       0.00974654      -0.00109728
O        5.24291099       0.89575159       2.12632256       31      -0.00390909       0.00814125       0.00387772
O        0.90311429       1.54622573       6.04530315       32      -0.00897868       0.00097178       0.00387772
O        3.63359748      -0.88233942       5.99905624       33      -0.00063135       0.00392300      -0.00898939
O        2.04307674      -0.02670066       3.63156293       34      -0.00390909      -0.00742883       0.00511167
O        0.90311430      -2.32560024       7.39521941       35      -0.00897868       0.00287232      -0.00278044
O       -0.70619921       2.18636025       3.47623882       36      -0.00570094       0.00750774      -0.00278044
O       -0.90311430      -0.77937451       5.60256139       37       0.00897868       0.00384409       0.00109728
O       -0.43376324       5.40758841       1.83890492       38       0.00063135      -0.00392300       0.00898939
O        4.35659174       5.39429992       5.75788550       39       0.00390909       0.00071242       0.00898939
