40
Lattice="8.603851424213909 6.743454355986663e-10 1.9784622163490873e-14 -2.867950475373749 8.111788914952804 -1.1680152627351344e-09 -2.8679504744200948 -4.055894456802051 7.0250152712648015" Properties=species:S:1:pos:R:3:spacegroup_kinds:I:1:forces:R:3 spacegroup="P 1" unit_cell=conventional occupancy="_JSON {\"0\": {\"In\": 1}, \"1\": {\"In\": 1}, \"2\": {\"In\": 1}, \"3\": {\"In\": 1}, \"4\": {\"In\": 1}, \"5\": {\"In\": 1}, \"6\": {\"In\": 1}, \"7\": {\"In\": 1}, \"8\": {\"In\": 1}, \"9\": {\"In\": 1}, \"10\": {\"In\": 1}, \"11\": {\"In\": 1}, \"12\": {\"In\": 1}, \"13\": {\"In\": 1}, \"14\": {\"In\": 1}, \"15\": {\"In\": 1}, \"16\": {\"O\": 1}, \"17\": {\"O\": 1}, \"18\": {\"O\": 1}, \"19\": {\"O\": 1}, \"20\": {\"O\": 1}, \"21\": {\"O\": 1}, \"22\": {\"O\": 1}, \"23\": {\"O\": 1}, \"24\": {\"O\": 1}, \"25\": {\"O\": 1}, \"26\": {\"O\": 1}, \"27\": {\"O\": 1}, \"28\": {\"O\": 1}, \"29\": {\"O\": 1}, \"30\": {\"O\": 1}, \"31\": {\"O\": 1}, \"32\": {\"O\": 1}, \"33\": {\"O\": 1}, \"34\": {\"O\": 1}, \"35\": {\"O\": 1}, \"36\": {\"O\": 1}, \"37\": {\"O\": 1}, \"38\": {\"O\": 1}, \"39\": {\"O\": 1}}" n_minim_iter=1 energy=-45148.899066384874 stress="-0.12303830275402419 1.0429221444845154e-13 2.0534157965668216e-14 1.0429221444845154e-13 -0.1230383027539166 -1.5579070287321974e-13 2.0534157965668216e-14 -1.5579070287321974e-13 -0.12303830275403083" free_energy=-45148.899066384874 pbc="T T T"
In      -4.10425312       2.90214521       5.51085994        0      -0.00483846       0.00342131      -0.00592588
In       6.97220359       1.15374925       1.51415532        1       0.00483846      -0.00342131       0.00592588
In       1.23630264      -0.87419798       5.02666296        2       0.00483846      -0.00342131       0.00592588
In      -1.43397524      -2.02794723       3.51250763        3      -0.00000000       0.00000000       0.00000000
In      -1.23630265       3.91611883       3.27040914        4      -0.00483846       0.00342131       0.00592588
In       4.49959830      -2.76236958       5.26876145        5      -0.00483846      -0.00684261      -0.00000000
In      -1.23630265       1.29352488       5.26876145        6      -0.00483846      -0.00684261      -0.00000000
In      -1.63164783       6.81826404       1.75625381        7       0.00483846       0.00684261       0.00000000
In       4.10425312       0.13977563       3.75460613        8       0.00483846      -0.00342131      -0.00592588
In      -1.43397524       4.05589446      -0.00000000        9       0.00000000      -0.00000000      -0.00000000
In       4.10425312       6.22361732       0.24209849       10       0.00483846      -0.00342131      -0.00592588
In      -1.23630265      -2.16772286       6.78291678       11      -0.00483846       0.00342131       0.00592588
In       4.10425312       2.76236958       1.75625382       12       0.00483846       0.00684261       0.00000000
In       1.63164783       4.93009244       1.99835231       13      -0.00483846       0.00342131      -0.00592588
In       4.30192571       0.00000000      -0.00000000       14      -0.00000000       0.00000000       0.00000000
In       1.43397524       2.02794723       3.51250763       15       0.00000000       0.00000000      -0.00000000
O        0.83075426       4.05149411       3.84224118       16      -0.02342365      -0.01799726       0.09048664
O       -2.03719621       3.32967864       5.10770549       17      -0.02342365       0.08736236      -0.02965724
O       -0.41191344       2.18043017       0.07324696       18       0.05759016       0.03007694       0.06956401
O       -0.83075427      -0.73061616       1.92493140       19       0.02342365       0.06936510       0.06082940
O        3.81831653       4.82879978       1.85168443       20       0.09017390      -0.02920230      -0.00873461
O        1.91758442       2.83874135       1.59519785       21      -0.09017390      -0.00703676      -0.02965724
O        1.91758442       6.04595288       0.25648658       22      -0.09017390      -0.02216554       0.02092263
O       -2.19303376       5.74538734       3.58575460       23      -0.00916009      -0.06432217       0.06956401
O        3.27986391       1.87546429       6.95176830       24      -0.05759016      -0.03007694      -0.06956401
O        5.06098423      -1.68949288       3.43926067       25       0.00916009       0.06432217      -0.06956401
O        6.14781438       3.18159605       1.66082320       26      -0.05759016       0.07528267       0.00873461
O        3.54286719       2.26060813       3.76899421       27      -0.00916009       0.09240529       0.02092263
O        0.67491672       4.16168790       6.69528172       28      -0.00916009      -0.02808311      -0.09048664
O        2.19303376      -0.10579344       0.32973354       29       0.00916009       0.02808311       0.09048664
O       -3.27986391       0.87429841       5.36419207       30       0.05759016      -0.07528267      -0.00873461
O        4.90514668       0.72621582       1.91730978       31       0.02342365      -0.08736236       0.02965724
O        0.95036605       1.21715311       5.42981741       32       0.09017390       0.00703676       0.02965724
O        3.27986391      -1.00116587       5.43743903       33      -0.05759016      -0.04520573       0.06082940
O        2.03719621       0.00440035       3.18277409       34       0.02342365       0.01799726      -0.09048664
O        0.95036606      -1.99005842       6.76852869       35       0.09017390       0.02216554      -0.02092263
O       -0.67491672       1.79528633       3.25602105       36       0.00916009      -0.09240529      -0.02092263
O       -0.95036606      -0.77290531       5.17333083       37      -0.09017390       0.02920230       0.00873461
O       -0.41191344       5.05706033       1.58757623       38       0.05759016       0.04520573      -0.06082940
O        3.69870474       4.78651062       5.10008387       39      -0.02342365      -0.06936510      -0.06082940
40
Lattice="8.603851424213909 6.743454355986664e-10 1.9784622163490873e-14 -2.867950475373749 8.111788914952806 -1.1680152627351344e-09 -2.8679504744200948 -4.055894456802052 7.025015271264804" Properties=species:S:1:pos:R:3:spacegroup_kinds:I:1:forces:R:3 spacegroup="P 1" unit_cell=conventional occupancy="_JSON {\"0\": {\"In\": 1}, \"1\": {\"In\": 1}, \"2\": {\"In\": 1}, \"3\": {\"In\": 1}, \"4\": {\"In\": 1}, \"5\": {\"In\": 1}, \"6\": {\"In\": 1}, \"7\": {\"In\": 1}, \"8\": {\"In\": 1}, \"9\": {\"In\": 1}, \"10\": {\"In\": 1}, \"11\": {\"In\": 1}, \"12\": {\"In\": 1}, \"13\": {\"In\": 1}, \"14\": {\"In\": 1}, \"15\": {\"In\": 1}, \"16\": {\"O\": 1}, \"17\": {\"O\": 1}, \"18\": {\"O\": 1}, \"19\": {\"O\": 1}, \"20\": {\"O\": 1}, \"21\": {\"O\": 1}, \"22\": {\"O\": 1}, \"23\": {\"O\": 1}, \"24\": {\"O\": 1}, \"25\": {\"O\": 1}, \"26\": {\"O\": 1}, \"27\": {\"O\": 1}, \"28\": {\"O\": 1}, \"29\": {\"O\": 1}, \"30\": {\"O\": 1}, \"31\": {\"O\": 1}, \"32\": {\"O\": 1}, \"33\": {\"O\": 1}, \"34\": {\"O\": 1}, \"35\": {\"O\": 1}, \"36\": {\"O\": 1}, \"37\": {\"O\": 1}, \"38\": {\"O\": 1}, \"39\": {\"O\": 1}}" n_minim_iter=2 energy=-45148.90510849484 stress="-0.12210992211346022 -5.535442434314691e-14 8.572265113456433e-14 -5.535442434314691e-14 -0.12210992211412673 1.0046752726934723e-14 8.572265113456433e-14 1.0046752726934723e-14 -0.12210992211404077" free_energy=-45148.90510849484 pbc="T T T"
In      -4.10452191       2.90233528       5.51053075        0       0.02659745      -0.01880724       0.03257509
In       6.97247238       1.15355919       1.51448452        1      -0.02659745       0.01880724      -0.03257509
In       1.23657143      -0.87438804       5.02699215        2      -0.02659745       0.01880724      -0.03257509
In      -1.43397524      -2.02794723       3.51250763        3       0.00000000       0.00000000      -0.00000000
In      -1.23657143       3.91630889       3.27073833        4       0.02659745      -0.01880724      -0.03257509
In       4.49932952      -2.76274970       5.26876145        5       0.02659745       0.03761447       0.00000000
In      -1.23657143       1.29314475       5.26876145        6       0.02659745       0.03761447      -0.00000000
In      -1.63137904       6.81864416       1.75625381        7      -0.02659745      -0.03761447       0.00000000
In       4.10452191       0.13958557       3.75427693        8      -0.02659745       0.01880724       0.03257509
In      -1.43397524       4.05589446      -0.00000000        9      -0.00000000       0.00000000      -0.00000000
In       4.10452191       6.22342726       0.24176929       10      -0.02659745       0.01880724       0.03257509
In      -1.23657143      -2.16753280       6.78324597       11       0.02659745      -0.01880724      -0.03257509
In       4.10452191       2.76274971       1.75625382       12      -0.02659745      -0.03761447       0.00000000
In       1.63137904       4.93028250       1.99802311       13       0.02659745      -0.01880724       0.03257509
In       4.30192571       0.00000000      -0.00000000       14      -0.00000000       0.00000000      -0.00000000
In       1.43397524       2.02794723       3.51250763       15      -0.00000000       0.00000000       0.00000000
O        0.82945303       4.05049433       3.84726791       16      -0.03237224      -0.01543414      -0.00932831
O       -2.03849745       3.33453182       5.10605796       17      -0.03237224      -0.00036148       0.01803051
O       -0.40871417       2.18210101       0.07711140       18      -0.02568300      -0.00509148       0.02622312
O       -0.82945303      -0.72676277       1.92831061       19       0.03237224      -0.01579562       0.00870221
O        3.82332589       4.82717752       1.85119921       20       0.01044994       0.03093555      -0.01752092
O        1.91257505       2.83835045       1.59355033       21      -0.01044994       0.03064133       0.01803051
O        1.91257505       6.04472153       0.25764888       22      -0.01044994       0.00029422      -0.03555143
O       -2.19354262       5.74181410       3.58961903       23      -0.00376070       0.02591133       0.02622312
O        3.27666464       1.87379345       6.94790387       24       0.02568300       0.00509148      -0.02622312
O        5.06149309      -1.68591964       3.43539623       25       0.00376070      -0.02591133      -0.02622312
O        6.14461512       3.18577817       1.66130842       26       0.02568300       0.02016415       0.01752092
O        3.54235833       2.26574146       3.77015651       27      -0.00376070       0.00975423      -0.03555143
O        0.67440785       4.16012782       6.69025499       28      -0.00376070      -0.03566556       0.00932831
O        2.19354262      -0.10423336       0.33476028       29       0.00376070       0.03566556      -0.00932831
O       -3.27666465       0.87011629       5.36370684       30      -0.02568300      -0.02016415      -0.01752092
O        4.90644792       0.72136264       1.91895730       31       0.03237224       0.00036148      -0.01803051
O        0.95537542       1.21754401       5.43146494       32       0.01044994      -0.03064133      -0.01803051
O        3.27666465      -1.00367715       5.44081824       33       0.02568300      -0.02525563       0.00870221
O        2.03849744       0.00540014       3.17774735       34       0.03237224       0.01543414       0.00932831
O        0.95537542      -1.98882707       6.76736639       35       0.01044994      -0.00029422       0.03555143
O       -0.67440785       1.79015300       3.25485875       36       0.00376070      -0.00975423       0.03555143
O       -0.95537542      -0.77128306       5.17381606       37      -0.01044994      -0.03093555       0.01752092
O       -0.40871417       5.05957161       1.58419702       38      -0.02568300       0.02525563      -0.00870221
O        3.69740350       4.78265723       5.09670466       39      -0.03237224       0.01579562      -0.00870221
40
Lattice="8.60385142421391 6.743454355986667e-10 1.978462216349089e-14 -2.86795047537375 8.111788914952808 -1.1680152627351352e-09 -2.867950474420096 -4.0558944568020525 7.025015271264808" Properties=species:S:1:pos:R:3:spacegroup_kinds:I:1:forces:R:3 spacegroup="P 1" unit_cell=conventional occupancy="_JSON {\"0\": {\"In\": 1}, \"1\": {\"In\": 1}, \"2\": {\"In\": 1}, \"3\": {\"In\": 1}, \"4\": {\"In\": 1}, \"5\": {\"In\": 1}, \"6\": {\"In\": 1}, \"7\": {\"In\": 1}, \"8\": {\"In\": 1}, \"9\": {\"In\": 1}, \"10\": {\"In\": 1}, \"11\": {\"In\": 1}, \"12\": {\"In\": 1}, \"13\": {\"In\": 1}, \"14\": {\"In\": 1}, \"15\": {\"In\": 1}, \"16\": {\"O\": 1}, \"17\": {\"O\": 1}, \"18\": {\"O\": 1}, \"19\": {\"O\": 1}, \"20\": {\"O\": 1}, \"21\": {\"O\": 1}, \"22\": {\"O\": 1}, \"23\": {\"O\": 1}, \"24\": {\"O\": 1}, \"25\": {\"O\": 1}, \"26\": {\"O\": 1}, \"27\": {\"O\": 1}, \"28\": {\"O\": 1}, \"29\": {\"O\": 1}, \"30\": {\"O\": 1}, \"31\": {\"O\": 1}, \"32\": {\"O\": 1}, \"33\": {\"O\": 1}, \"34\": {\"O\": 1}, \"35\": {\"O\": 1}, \"36\": {\"O\": 1}, \"37\": {\"O\": 1}, \"38\": {\"O\": 1}, \"39\": {\"O\": 1}}" n_minim_iter=3 energy=-45148.906736193545 stress="-0.12187321953398718 -1.079399386584031e-13 -2.242706166922958e-13 -1.079399386584031e-13 -0.12187321953395604 -6.197253369526102e-14 -2.242706166922958e-13 -6.197253369526102e-14 -0.121873219533493" free_energy=-45148.906736193545 pbc="T T T"
In      -4.10311146       2.90133794       5.51225819        0      -0.00284056       0.00200858      -0.00347896
In       6.97106193       1.15455652       1.51275708        1       0.00284056      -0.00200858       0.00347896
In       1.23516098      -0.87339070       5.02526471        2       0.00284056      -0.00200858       0.00347896
In      -1.43397524      -2.02794723       3.51250763        3       0.00000000      -0.00000000      -0.00000000
In      -1.23516098       3.91531155       3.26901089        4      -0.00284056       0.00200858       0.00347896
In       4.50073997      -2.76075503       5.26876145        5      -0.00284056      -0.00401716      -0.00000000
In      -1.23516098       1.29513943       5.26876145        6      -0.00284056      -0.00401716      -0.00000000
In      -1.63278949       6.81664949       1.75625381        7       0.00284056       0.00401716      -0.00000000
In       4.10311146       0.14058291       3.75600437        8       0.00284056      -0.00200858      -0.00347896
In      -1.43397524       4.05589446      -0.00000000        9       0.00000000       0.00000000      -0.00000000
In       4.10311146       6.22442460       0.24349674       10       0.00284056      -0.00200858      -0.00347896
In      -1.23516098      -2.16853013       6.78151853       11      -0.00284056       0.00200858       0.00347896
In       4.10311146       2.76075503       1.75625382       12       0.00284056       0.00401716       0.00000000
In       1.63278949       4.92928517       1.99975055       13      -0.00284056       0.00200858      -0.00347896
In       4.30192571       0.00000000      -0.00000000       14      -0.00000000      -0.00000000       0.00000000
In       1.43397524       2.02794723       3.51250763       15       0.00000000      -0.00000000      -0.00000000
O        0.82729966       4.04936592       3.84809597       16      -0.01019881       0.01427733       0.00019591
O       -2.04065081       3.33581314       5.10662116       17      -0.01019881      -0.00696900      -0.01246249
O       -0.40928779       2.18226528       0.07960938       18       0.00349075      -0.01664899       0.00430374
O       -0.82729967      -0.72660986       1.92970186       19       0.01019881       0.00730833      -0.01226658
O        3.82525172       4.82846682       1.85009248       20      -0.00317084      -0.00482356      -0.01657032
O        1.91064922       2.83995355       1.59411353       21       0.00317084       0.01193853      -0.01246249
O        1.91064922       6.04440773       0.25597895       22       0.00317084      -0.01676209      -0.00410783
O       -2.19388870       5.74230016       3.59211702       23       0.01686040       0.00225855       0.00430374
O        3.27723826       1.87362918       6.94540588       24      -0.00349075       0.01664899      -0.00430374
O        5.06183918      -1.68640569       3.43289825       25      -0.01686040      -0.00225855      -0.00430374
O        6.14518874       3.18802362       1.66241515       26      -0.00349075      -0.00459735       0.01657032
O        3.54201225       2.26766175       3.76848658       27       0.01686040       0.00259787      -0.00410783
O        0.67406177       4.15772148       6.68942693       28       0.01686040      -0.00485642      -0.00019591
O        2.19388870      -0.10182701       0.33558833       29      -0.01686040       0.00485642       0.00019591
O       -3.27723827       0.86787084       5.36260011       30       0.00349075       0.00459735      -0.01657032
O        4.90860128       0.72008132       1.91839410       31       0.01019881       0.00696900       0.01246249
O        0.95730125       1.21594091       5.43090174       32      -0.00317084      -0.01193853       0.01246249
O        3.27723826      -1.00575834       5.44220950       33      -0.00349075      -0.01205164      -0.01226658
O        2.04065081       0.00652854       3.17691930       34       0.01019881      -0.01427733      -0.00019591
O        0.95730125      -1.98851326       6.76903632       35      -0.00317084       0.01676209       0.00410783
O       -0.67406177       1.78823271       3.25652868       36      -0.01686040      -0.00259787       0.00410783
O       -0.95730125      -0.77257236       5.17492279       37       0.00317084       0.00482356       0.01657032
O       -0.40928779       5.06165280       1.58280577       38       0.00349075       0.01205164       0.01226658
O        3.69525014       4.78250432       5.09531340       39      -0.01019881      -0.00730833       0.01226658
40
Lattice="8.603851424213916 6.743454355986671e-10 1.9784622163490902e-14 -2.8679504753737532 8.11178891495281 -1.1680152627351362e-09 -2.867950474420099 -4.055894456802053 7.025015271264812" Properties=species:S:1:pos:R:3:spacegroup_kinds:I:1:forces:R:3 spacegroup="P 1" unit_cell=conventional occupancy="_JSON {\"0\": {\"In\": 1}, \"1\": {\"In\": 1}, \"2\": {\"In\": 1}, \"3\": {\"In\": 1}, \"4\": {\"In\": 1}, \"5\": {\"In\": 1}, \"6\": {\"In\": 1}, \"7\": {\"In\": 1}, \"8\": {\"In\": 1}, \"9\": {\"In\": 1}, \"10\": {\"In\": 1}, \"11\": {\"In\": 1}, \"12\": {\"In\": 1}, \"13\": {\"In\": 1}, \"14\": {\"In\": 1}, \"15\": {\"In\": 1}, \"16\": {\"O\": 1}, \"17\": {\"O\": 1}, \"18\": {\"O\": 1}, \"19\": {\"O\": 1}, \"20\": {\"O\": 1}, \"21\": {\"O\": 1}, \"22\": {\"O\": 1}, \"23\": {\"O\": 1}, \"24\": {\"O\": 1}, \"25\": {\"O\": 1}, \"26\": {\"O\": 1}, \"27\": {\"O\": 1}, \"28\": {\"O\": 1}, \"29\": {\"O\": 1}, \"30\": {\"O\": 1}, \"31\": {\"O\": 1}, \"32\": {\"O\": 1}, \"33\": {\"O\": 1}, \"34\": {\"O\": 1}, \"35\": {\"O\": 1}, \"36\": {\"O\": 1}, \"37\": {\"O\": 1}, \"38\": {\"O\": 1}, \"39\": {\"O\": 1}}" n_minim_iter=4 energy=-45148.90701235052 stress="-0.12182347226339128 2.3152372080608067e-14 -9.808503733980411e-14 2.3152372080608067e-14 -0.12182347226377879 -1.194868007006197e-13 -9.808503733980411e-14 -1.194868007006197e-13 -0.12182347226372547" free_energy=-45148.90701235052 pbc="T T T"
In      -4.10307449       2.90131179       5.51230347        0      -0.00346844       0.00245255      -0.00424795
In       6.97102496       1.15458267       1.51271180        1       0.00346844      -0.00245255       0.00424795
In       1.23512401      -0.87336456       5.02521943        2       0.00346844      -0.00245255       0.00424795
In      -1.43397524      -2.02794723       3.51250763        3      -0.00000000      -0.00000000       0.00000000
In      -1.23512401       3.91528541       3.26896561        4      -0.00346844       0.00245255       0.00424795
In       4.50077694      -2.76070274       5.26876145        5      -0.00346844      -0.00490511       0.00000000
In      -1.23512401       1.29519172       5.26876145        6      -0.00346844      -0.00490511       0.00000000
In      -1.63282647       6.81659720       1.75625381        7       0.00346844       0.00490511      -0.00000000
In       4.10307448       0.14060905       3.75604965        8       0.00346844      -0.00245255      -0.00424795
In      -1.43397524       4.05589446      -0.00000000        9       0.00000000      -0.00000000       0.00000000
In       4.10307448       6.22445074       0.24354202       10       0.00346844      -0.00245255      -0.00424795
In      -1.23512401      -2.16855628       6.78147325       11      -0.00346844       0.00245255       0.00424795
In       4.10307448       2.76070274       1.75625382       12       0.00346844       0.00490511       0.00000000
In       1.63282646       4.92925902       1.99979583       13      -0.00346844       0.00245255      -0.00424795
In       4.30192571       0.00000000      -0.00000000       14      -0.00000000       0.00000000       0.00000000
In       1.43397524       2.02794723       3.51250763       15       0.00000000      -0.00000000      -0.00000000
O        0.82619205       4.05018471       3.84828981       16      -0.00275036      -0.00272623      -0.00240636
O       -2.04175842       3.33557162       5.10581515       17      -0.00275036      -0.00072085       0.00356416
O       -0.40911274       2.18111679       0.08037430       18      -0.00416673       0.00028067       0.00182948
O       -0.82619206      -0.72603259       1.92908969       19       0.00275036      -0.00344708       0.00115780
O        3.82539322       4.82833118       1.84871539       20       0.00023716       0.00450333      -0.00067168
O        1.91050773       2.84107832       1.59330751       21      -0.00023716       0.00283335       0.00356416
O        1.91050773       6.04314731       0.25540787       22      -0.00023716       0.00166998      -0.00423584
O       -2.19274754       5.74251795       3.59288194       23      -0.00165352       0.00383487       0.00182948
O        3.27706321       1.87477767       6.94464097       24       0.00416673      -0.00028067      -0.00182948
O        5.06069801      -1.68662349       3.43213333       25       0.00165352      -0.00383487      -0.00182948
O        6.14501369       3.18811181       1.66379224       26       0.00416673       0.00172471       0.00067168
O        3.54315341       2.26821529       3.76791551       27      -0.00165352      -0.00033306      -0.00423584
O        0.67520293       4.15695014       6.68923309       28      -0.00165352      -0.00350181       0.00240636
O        2.19274754      -0.10105568       0.33578218       29       0.00165352       0.00350181      -0.00240636
O       -3.27706322       0.86778265       5.36122303       30      -0.00416673      -0.00172471      -0.00067168
O        4.90970889       0.72032284       1.91920012       31       0.00275036       0.00072085      -0.00356416
O        0.95744274       1.21481614       5.43170775       32       0.00023716      -0.00283335      -0.00356416
O        3.27706321      -1.00699502       5.44159733       33       0.00416673      -0.00144404       0.00115780
O        2.04175842       0.00570975       3.17672545       34       0.00275036       0.00272623       0.00240636
O        0.95744274      -1.98725285       6.76960739       35       0.00023716      -0.00166998       0.00423584
O       -0.67520294       1.78767917       3.25709976       36       0.00165352       0.00033306       0.00423584
O       -0.95744274      -0.77243672       5.17629988       37      -0.00023716      -0.00450333       0.00067168
O       -0.40911274       5.06288948       1.58341794       38      -0.00416673       0.00144404      -0.00115780
O        3.69414253       4.78192705       5.09592557       39      -0.00275036       0.00344708      -0.00115780
