40
Lattice="9.19904960444988 7.209986114281595e-10 1.1677353270220162e-14 -3.0663498688297226 8.67294714079692 -1.248807042946077e-09 -3.0663498678100893 -4.336473569677462 7.510992550442283" Properties=species:S:1:pos:R:3:spacegroup_kinds:I:1:forces:R:3 spacegroup="P 1" unit_cell=conventional occupancy="_JSON {\"0\": {\"In\": 1}, \"1\": {\"In\": 1}, \"2\": {\"In\": 1}, \"3\": {\"In\": 1}, \"4\": {\"In\": 1}, \"5\": {\"In\": 1}, \"6\": {\"In\": 1}, \"7\": {\"In\": 1}, \"8\": {\"In\": 1}, \"9\": {\"In\": 1}, \"10\": {\"In\": 1}, \"11\": {\"In\": 1}, \"12\": {\"In\": 1}, \"13\": {\"In\": 1}, \"14\": {\"In\": 1}, \"15\": {\"In\": 1}, \"16\": {\"O\": 1}, \"17\": {\"O\": 1}, \"18\": {\"O\": 1}, \"19\": {\"O\": 1}, \"20\": {\"O\": 1}, \"21\": {\"O\": 1}, \"22\": {\"O\": 1}, \"23\": {\"O\": 1}, \"24\": {\"O\": 1}, \"25\": {\"O\": 1}, \"26\": {\"O\": 1}, \"27\": {\"O\": 1}, \"28\": {\"O\": 1}, \"29\": {\"O\": 1}, \"30\": {\"O\": 1}, \"31\": {\"O\": 1}, \"32\": {\"O\": 1}, \"33\": {\"O\": 1}, \"34\": {\"O\": 1}, \"35\": {\"O\": 1}, \"36\": {\"O\": 1}, \"37\": {\"O\": 1}, \"38\": {\"O\": 1}, \"39\": {\"O\": 1}}" n_minim_iter=6 energy=-45149.87897492358 stress="0.06657235759311576 -2.385819474478446e-13 3.905048726126533e-14 -2.385819474478446e-13 0.06657235759331152 1.1609095769466676e-13 3.905048726126533e-14 1.1609095769466676e-13 0.06657235759326505" free_energy=-45149.87897492358 pbc="T T T"
In      -4.37222700       3.09163136       5.91162623        0       0.00115159      -0.00081430       0.00141041
In       7.43857686       1.24484222       1.59936631        1      -0.00115159       0.00081430      -0.00141041
In       1.30587713      -0.92339457       5.35486259        2      -0.00115159       0.00081430      -0.00141041
In      -1.53317494      -2.16823678       3.75549627        3       0.00000000      -0.00000000       0.00000000
In      -1.30587713       4.17574975       3.47711445        4       0.00115159      -0.00081430      -0.00141041
In       4.82682261      -2.93090753       5.63324441        5       0.00115159       0.00162860      -0.00000000
In      -1.30587713       1.40556604       5.63324441        6       0.00115159       0.00162860       0.00000000
In      -1.76047274       7.26738111       1.87774813        7      -0.00115159      -0.00162860       0.00000000
In       4.37222699       0.16072382       4.03387810        8      -0.00115159       0.00081430       0.00141041
In      -1.53317494       4.33647357      -0.00000000        9       0.00000000      -0.00000000       0.00000000
In       4.37222699       6.66543418       0.27838182       10      -0.00115159       0.00081430       0.00141041
In      -1.30587713      -2.32896060       7.23261072       11       0.00115159      -0.00081430      -0.00141041
In       4.37222699       2.93090754       1.87774813       12      -0.00115159      -0.00162860      -0.00000000
In       1.76047274       5.25986814       2.15612996       13       0.00115159      -0.00081430       0.00141041
In       4.59952480       0.00000000      -0.00000000       14       0.00000000      -0.00000000      -0.00000000
In       1.53317493       2.16823679       3.75549627       15       0.00000000      -0.00000000      -0.00000000
O        0.96834921       4.34732078       4.07031574       16      -0.00023168       0.00112505       0.00177022
O       -2.09800066       3.51957324       5.46644072       17      -0.00023168       0.00097053      -0.00185943
O       -0.43717111       2.34518940      -0.01045936       18       0.00189851      -0.00053573       0.00074950
O       -0.96834922      -0.80605313       2.02576392       19       0.00023168       0.00209558      -0.00008921
O        4.01761902       5.13648799       2.03622328       20       0.00099225      -0.00166285      -0.00083871
O        2.11508071       2.97305969       1.71094445       21      -0.00099225      -0.00010508      -0.00185943
O        2.11508071       6.49990187       0.32527883       22      -0.00099225      -0.00155777       0.00102072
O       -2.35678948       6.13514943       3.74503691       23       0.00113793      -0.00161135       0.00074950
O        3.50352097       1.99128417       7.52145190       24      -0.00189851       0.00053573      -0.00074950
O        5.42313934      -1.79867586       3.76595563       25      -0.00113793       0.00161135      -0.00074950
O        6.56987084       3.33177342       1.71927299       26      -0.00189851       0.00038122       0.00083871
O        3.77591026       2.34395918       4.08077510       27       0.00113793       0.00145476       0.00102072
O        0.70956039       4.53031211       7.19617307       28       0.00113793       0.00015659      -0.00177022
O        2.35678947      -0.19383853       0.31481947       29      -0.00113793      -0.00015659       0.00177022
O       -3.50352098       1.00470016       5.79171955       30       0.00189851      -0.00038122      -0.00083871
O        5.16435052       0.81690034       2.04455182       31       0.00023168      -0.00097053       0.00185943
O        0.95126915       1.36341388       5.80004810       32       0.00099225       0.00010508       0.00185943
O        3.50352097      -0.98658401       5.78126019       33      -0.00189851      -0.00091695      -0.00008921
O        2.09800065      -0.01084720       3.44067680       34       0.00023168      -0.00112505      -0.00177022
O        0.95126915      -2.16342829       7.18571372       35       0.00099225       0.00155777      -0.00102072
O       -0.70956039       1.99251439       3.43021744       36      -0.00113793      -0.00145476      -0.00102072
O       -0.95126916      -0.80001442       5.47476927       37      -0.00099225       0.00166285       0.00083871
O       -0.43717111       5.32305759       1.72973235       38       0.00189851       0.00091695       0.00008921
O        4.03469908       5.14252670       5.48522863       39      -0.00023168      -0.00209558       0.00008921
