40
Lattice="8.760319265557055 6.866095485460411e-10 6.8593934709528e-15 -2.9201064224996944 8.259308210483862 -1.1892451288585187e-09 -2.920106421528687 -4.129654104555321 7.152770728757244" Properties=species:S:1:pos:R:3:spacegroup_kinds:I:1:forces:R:3 spacegroup="P 1" unit_cell=conventional occupancy="_JSON {\"0\": {\"In\": 1}, \"1\": {\"In\": 1}, \"2\": {\"In\": 1}, \"3\": {\"In\": 1}, \"4\": {\"In\": 1}, \"5\": {\"In\": 1}, \"6\": {\"In\": 1}, \"7\": {\"In\": 1}, \"8\": {\"In\": 1}, \"9\": {\"In\": 1}, \"10\": {\"In\": 1}, \"11\": {\"In\": 1}, \"12\": {\"In\": 1}, \"13\": {\"In\": 1}, \"14\": {\"In\": 1}, \"15\": {\"In\": 1}, \"16\": {\"O\": 1}, \"17\": {\"O\": 1}, \"18\": {\"O\": 1}, \"19\": {\"O\": 1}, \"20\": {\"O\": 1}, \"21\": {\"O\": 1}, \"22\": {\"O\": 1}, \"23\": {\"O\": 1}, \"24\": {\"O\": 1}, \"25\": {\"O\": 1}, \"26\": {\"O\": 1}, \"27\": {\"O\": 1}, \"28\": {\"O\": 1}, \"29\": {\"O\": 1}, \"30\": {\"O\": 1}, \"31\": {\"O\": 1}, \"32\": {\"O\": 1}, \"33\": {\"O\": 1}, \"34\": {\"O\": 1}, \"35\": {\"O\": 1}, \"36\": {\"O\": 1}, \"37\": {\"O\": 1}, \"38\": {\"O\": 1}, \"39\": {\"O\": 1}}" n_minim_iter=5 energy=-45151.74527367749 stress="-0.024780860988377073 -6.240519548290037e-14 1.0594200505067382e-13 -6.240519548290037e-14 -0.024780860988711823 3.260809601175979e-13 1.0594200505067382e-13 3.260809601175979e-13 -0.024780860989166775" free_energy=-45151.74527367749 pbc="T T T"
In      -4.18289726       2.95775502       5.60617413        0      -0.00509366       0.00360176      -0.00623843
In       7.10300368       1.17189909       1.54659660        1       0.00509366      -0.00360176       0.00623843
In       1.26279083      -0.89292796       5.12298196        2       0.00509366      -0.00360176       0.00623843
In      -1.46005321      -2.06482705       3.57638536        3       0.00000000      -0.00000000       0.00000000
In      -1.26279084       3.99016854       3.33478928        4      -0.00509366       0.00360176       0.00623843
In       4.57742201      -2.81826945       5.36457804        5      -0.00509366      -0.00720352      -0.00000000
In      -1.26279084       1.31138466       5.36457804        6      -0.00509366      -0.00720352      -0.00000000
In      -1.65731559       6.94792356       1.78819268        7       0.00509366       0.00720352       0.00000000
In       4.18289725       0.13948557       3.81798145        8       0.00509366      -0.00360176      -0.00623843
In      -1.46005321       4.12965411      -0.00000000        9      -0.00000000       0.00000000       0.00000000
In       4.18289725       6.33396672       0.24159608       10       0.00509366      -0.00360176      -0.00623843
In      -1.26279084      -2.20431261       6.91117464       11      -0.00509366       0.00360176       0.00623843
In       4.18289725       2.81826945       1.78819268       12       0.00509366       0.00720352       0.00000000
In       1.65731559       5.02258207       2.02978876       13      -0.00509366       0.00360176      -0.00623843
In       4.38015963       0.00000000      -0.00000000       14      -0.00000000      -0.00000000       0.00000000
In       1.46005321       2.06482705       3.57638536       15      -0.00000000       0.00000000       0.00000000
O        0.85494659       4.12758770       3.89795427       16      -0.00351025       0.00026919      -0.00116003
O       -2.06515984       3.37676063       5.20558316       17      -0.00351025      -0.00113921       0.00034689
O       -0.42680082       2.21826586       0.05938423       18      -0.00199035      -0.00221394       0.00220839
O       -0.85494659      -0.75495989       1.95076670       19       0.00351025      -0.00087002      -0.00081314
O        3.87202706       4.91889950       1.89138246       20       0.00009603       0.00214503      -0.00302153
O        1.96818578       2.88629154       1.62919779       21      -0.00009603       0.00368923       0.00034689
O        1.96818578       6.16226207       0.26218467       22      -0.00009603      -0.00154420      -0.00336842
O       -2.23366804       5.85745088       3.63576960       23       0.00142388       0.00261450       0.00220839
O        3.34690724       1.91138825       7.09338649       24       0.00199035       0.00221394      -0.00220839
O        5.15377446      -1.72779677       3.51700113       25      -0.00142388      -0.00261450      -0.00220839
O        6.26701366       3.22538824       1.68500290       26       0.00199035       0.00080555       0.00302153
O        3.60654480       2.28477045       3.83857003       27       0.00142388       0.00060527      -0.00336842
O        0.68643838       4.24674099       6.83120182       28       0.00142388      -0.00321977       0.00116003
O        2.23366804      -0.11708688       0.32156890       29      -0.00142388       0.00321977      -0.00116003
O       -3.34690724       0.90426587       5.46776783       30      -0.00199035      -0.00080555      -0.00302153
O        4.98526625       0.75289348       1.94718757       31       0.00351025       0.00113921      -0.00034689
O        0.95192064       1.24336257       5.52357293       32       0.00009603      -0.00368923      -0.00034689
O        3.34690724      -1.00712238       5.52715206       33       0.00199035      -0.00301949      -0.00081314
O        2.06515983       0.00206641       3.25481646       34       0.00351025      -0.00026919       0.00116003
O        0.95192064      -2.03260796       6.89058606       35       0.00009603       0.00154420       0.00336842
O       -0.68643838       1.84488366       3.31420069       36      -0.00142388      -0.00060527       0.00336842
O       -0.95192064      -0.78924539       5.26138826       37      -0.00009603      -0.00214503       0.00302153
O       -0.42680082       5.13677649       1.62561866       38      -0.00199035       0.00301949       0.00081314
O        3.77505301       4.88461400       5.20200403       39      -0.00351025       0.00087002       0.00081314
