40
Lattice="9.599502734966986 7.523864334877322e-10 2.799910998425545e-14 -3.1998342456983546 9.05049797296782 -1.303188398932663e-09 -3.1998342446343435 -4.525248985731518 7.837961162358485" Properties=species:S:1:pos:R:3:spacegroup_kinds:I:1:forces:R:3 spacegroup="P 1" unit_cell=conventional occupancy="_JSON {\"0\": {\"In\": 1}, \"1\": {\"In\": 1}, \"2\": {\"In\": 1}, \"3\": {\"In\": 1}, \"4\": {\"In\": 1}, \"5\": {\"In\": 1}, \"6\": {\"In\": 1}, \"7\": {\"In\": 1}, \"8\": {\"In\": 1}, \"9\": {\"In\": 1}, \"10\": {\"In\": 1}, \"11\": {\"In\": 1}, \"12\": {\"In\": 1}, \"13\": {\"In\": 1}, \"14\": {\"In\": 1}, \"15\": {\"In\": 1}, \"16\": {\"O\": 1}, \"17\": {\"O\": 1}, \"18\": {\"O\": 1}, \"19\": {\"O\": 1}, \"20\": {\"O\": 1}, \"21\": {\"O\": 1}, \"22\": {\"O\": 1}, \"23\": {\"O\": 1}, \"24\": {\"O\": 1}, \"25\": {\"O\": 1}, \"26\": {\"O\": 1}, \"27\": {\"O\": 1}, \"28\": {\"O\": 1}, \"29\": {\"O\": 1}, \"30\": {\"O\": 1}, \"31\": {\"O\": 1}, \"32\": {\"O\": 1}, \"33\": {\"O\": 1}, \"34\": {\"O\": 1}, \"35\": {\"O\": 1}, \"36\": {\"O\": 1}, \"37\": {\"O\": 1}, \"38\": {\"O\": 1}, \"39\": {\"O\": 1}}" n_minim_iter=7 energy=-45143.90164807015 stress="0.10292124830866395 -4.306657160306365e-14 1.4542188641518408e-13 -4.306657160306365e-14 0.10292124830870857 -1.6474263254383666e-13 1.4542188641518408e-13 -1.6474263254383666e-13 0.10292124830872519" free_energy=-45143.90164807015 pbc="T T T"
In      -4.54352354       3.21275630       6.19228459        0       0.00041269      -0.00029182       0.00050544
In       7.74335778       1.31249269       1.64567656        1      -0.00041269       0.00029182      -0.00050544
In       1.34368929      -0.95013181       5.56465715        2      -0.00041269       0.00029182      -0.00050544
In      -1.59991712      -2.26262449       3.91898058        3       0.00000000      -0.00000000      -0.00000000
In      -1.34368929       4.34406855       3.60516685        4       0.00041269      -0.00029182      -0.00050544
In       5.05597920      -3.03157586       5.87847087        5       0.00041269       0.00058364       0.00000000
In      -1.34368929       1.49367312       5.87847087        6       0.00041269       0.00058364       0.00000000
In      -1.85614496       7.55682485       1.95949029        7      -0.00041269      -0.00058364       0.00000000
In       4.54352353       0.18118044       4.23279430        8      -0.00041269       0.00029182       0.00050544
In      -1.59991712       4.52524899      -0.00000000        9      -0.00000000      -0.00000000      -0.00000000
In       4.54352353       6.96905392       0.31381372       10      -0.00041269       0.00029182       0.00050544
In      -1.34368929      -2.44380493       7.52414744       11       0.00041269      -0.00029182      -0.00050544
In       4.54352353       3.03157587       1.95949029       12      -0.00041269      -0.00058364       0.00000000
In       1.85614495       5.47538080       2.27330401       13       0.00041269      -0.00029182       0.00050544
In       4.79975137       0.00000000      -0.00000000       14       0.00000000      -0.00000000       0.00000000
In       1.59991712       2.26262450       3.91898058       15       0.00000000      -0.00000000      -0.00000000
O        1.13578659       4.55072139       4.21277482       16      -0.00008052       0.00041057      -0.00013092
O       -2.06404765       3.63563381       5.70951400       17      -0.00008052      -0.00031867      -0.00029011
O       -0.43612609       2.48451944      -0.13465857       18       0.00005981      -0.00041789      -0.00011824
O       -1.13578660      -0.86414277       2.08432766       19       0.00008052       0.00009190      -0.00042103
O        4.11572431       5.31164660       2.21898623       20      -0.00027361      -0.00016017      -0.00030279
O        2.28394417       2.99674935       1.79053342       21       0.00027361       0.00018213      -0.00029011
O        2.28394417       6.84014624       0.42845281       22       0.00027361      -0.00034231      -0.00001268
O       -2.48780275       6.37088395       3.78432201       23       0.00041393       0.00008291      -0.00011824
O        3.63596033       2.04072956       7.97261973       24      -0.00005981       0.00041789       0.00011824
O        5.68763699      -1.84563496       4.05363915       25      -0.00041393      -0.00008291       0.00011824
O        6.83579457       3.38826647       1.69999435       26      -0.00005981      -0.00031135       0.00030279
O        3.91186574       2.35450152       4.34743339       27       0.00041393      -0.00014386      -0.00001268
O        0.71203149       4.85036150       7.54416692       28       0.00041393       0.00006095       0.00013092
O        2.48780275      -0.32511251       0.29379424       29      -0.00041393      -0.00006095      -0.00013092
O       -3.63596033       1.13698252       6.13796681       30       0.00005981       0.00031135      -0.00030279
O        5.26388189       0.88961518       2.12844716       31       0.00008052       0.00031867       0.00029011
O        0.91589007       1.52849965       6.04742774       32      -0.00027361      -0.00018213       0.00029011
O        3.63596033      -0.90374703       6.00330824       33      -0.00005981      -0.00010655      -0.00042103
O        2.06404765      -0.02547240       3.62518634       34       0.00008052      -0.00041057       0.00013092
O        0.91589007      -2.31489725       7.40950835       35      -0.00027361       0.00034231       0.00001268
O       -0.71203150       2.17074747       3.49052777       36      -0.00041393       0.00014386       0.00001268
O       -0.91589007      -0.78639761       5.61897493       37       0.00027361       0.00016017       0.00030279
O       -0.43612609       5.42899602       1.83465292       38       0.00005981       0.00010655       0.00042103
O        4.33562084       5.38939176       5.75363350       39      -0.00008052      -0.00009190       0.00042103
