40
Lattice="9.05750325335717 7.099013813300409e-10 6.864496995808179e-15 -3.019167751788362 8.539495961187459 -1.2295892146455324e-09 -3.0191677507844115 -4.269747979883827 7.395420438722678" Properties=species:S:1:pos:R:3:spacegroup_kinds:I:1:forces:R:3 spacegroup="P 1" unit_cell=conventional occupancy="_JSON {\"0\": {\"In\": 1}, \"1\": {\"In\": 1}, \"2\": {\"In\": 1}, \"3\": {\"In\": 1}, \"4\": {\"In\": 1}, \"5\": {\"In\": 1}, \"6\": {\"In\": 1}, \"7\": {\"In\": 1}, \"8\": {\"In\": 1}, \"9\": {\"In\": 1}, \"10\": {\"In\": 1}, \"11\": {\"In\": 1}, \"12\": {\"In\": 1}, \"13\": {\"In\": 1}, \"14\": {\"In\": 1}, \"15\": {\"In\": 1}, \"16\": {\"O\": 1}, \"17\": {\"O\": 1}, \"18\": {\"O\": 1}, \"19\": {\"O\": 1}, \"20\": {\"O\": 1}, \"21\": {\"O\": 1}, \"22\": {\"O\": 1}, \"23\": {\"O\": 1}, \"24\": {\"O\": 1}, \"25\": {\"O\": 1}, \"26\": {\"O\": 1}, \"27\": {\"O\": 1}, \"28\": {\"O\": 1}, \"29\": {\"O\": 1}, \"30\": {\"O\": 1}, \"31\": {\"O\": 1}, \"32\": {\"O\": 1}, \"33\": {\"O\": 1}, \"34\": {\"O\": 1}, \"35\": {\"O\": 1}, \"36\": {\"O\": 1}, \"37\": {\"O\": 1}, \"38\": {\"O\": 1}, \"39\": {\"O\": 1}}" n_minim_iter=7 energy=-45151.761278020545 stress="0.021298267040680493 -4.175186139197822e-14 4.4743489104560336e-14 -4.175186139197822e-14 0.021298267040712627 -6.310984448481413e-14 4.4743489104560336e-14 -6.310984448481413e-14 0.021298267040764044" free_energy=-45151.761278020545 pbc="T T T"
In      -4.32262718       3.05655899       5.79901519        0       0.00409472      -0.00289540       0.00501498
In       7.34179493       1.21318899       1.59640525        1      -0.00409472       0.00289540      -0.00501498
In       1.30345943      -0.92168500       5.29411547        2      -0.00409472       0.00289540      -0.00501498
In      -1.50958388      -2.13487399       3.69771022        3       0.00000000       0.00000000       0.00000000
In      -1.30345943       4.12399599       3.44526035        4       0.00409472      -0.00289540      -0.00501498
In       4.73487607      -2.91080699       5.54656533        5       0.00409472       0.00579081      -0.00000000
In      -1.30345943       1.35894099       5.54656533        6       0.00409472       0.00579081       0.00000000
In      -1.71570833       7.18055498       1.84885511        7      -0.00409472      -0.00579081       0.00000000
In       4.32262718       0.14575200       3.95016008        8      -0.00409472       0.00289540       0.00501498
In      -1.50958388       4.26974798      -0.00000000        9       0.00000000      -0.00000000      -0.00000000
In       4.32262718       6.55037397       0.25244986       10      -0.00409472       0.00289540       0.00501498
In      -1.30345943      -2.28062598       7.14297057       11       0.00409472      -0.00289540      -0.00501498
In       4.32262718       2.91080700       1.84885511       12      -0.00409472      -0.00579081       0.00000000
In       1.71570832       5.19143298       2.10130497       13       0.00409472      -0.00289540       0.00501498
In       4.52875163       0.00000000      -0.00000000       14      -0.00000000       0.00000000       0.00000000
In       1.50958387       2.13487399       3.69771022       15       0.00000000       0.00000000       0.00000000
O        0.89984986       4.27193690       4.01913923       16      -0.00073370       0.00476129       0.00372099
O       -2.11931789       3.47958222       5.38395516       17      -0.00073370       0.00084182      -0.00598389
O       -0.44296174       2.29421942       0.04164332       18       0.00503810      -0.00323945       0.00108509
O       -0.89984987      -0.78797684       2.00767396       19       0.00073370       0.00560311      -0.00226290
O        3.98702087       5.08176761       1.96603064       20       0.00103825      -0.00497664      -0.00334799
O        2.05131463       2.97312532       1.68624494       21      -0.00103825       0.00041113      -0.00598389
O        2.05131463       6.37839028       0.27978569       22      -0.00103825      -0.00538777       0.00263590
O       -2.31066473       6.05751050       3.73935353       23       0.00473355      -0.00367015       0.00108509
O        3.46212949       1.97552856       7.35377712       24      -0.00503810       0.00323945      -0.00108509
O        5.32983248      -1.78776251       3.65606690       25      -0.00473355       0.00367015      -0.00108509
O        6.48129724       3.31804787       1.73167958       26      -0.00503810      -0.00068001       0.00334799
O        3.72767077       2.34449390       3.97749591       27       0.00473355       0.00277479       0.00263590
O        0.70850302       4.40723955       7.07399142       28       0.00473355       0.00089536      -0.00372099
O        2.31066472      -0.13749156       0.32142901       29      -0.00473355      -0.00089536       0.00372099
O       -3.46212949       0.95170011       5.66374086       30       0.00503810       0.00068001      -0.00334799
O        5.13848563       0.79016576       2.01146527       31       0.00073370      -0.00084182       0.00598389
O        0.96785312       1.29662267       5.70917549       32       0.00103825      -0.00041113       0.00598389
O        3.46212949      -1.02382845       5.70538418       33      -0.00503810      -0.00255944      -0.00226290
O        2.11931788      -0.00218891       3.37628120       34       0.00073370      -0.00476129      -0.00372099
O        0.96785312      -2.10864229       7.11563474       35       0.00103825       0.00538777      -0.00263590
O       -0.70850303       1.92525408       3.41792452       36      -0.00473355      -0.00277479      -0.00263590
O       -0.96785312      -0.81201962       5.42938979       37      -0.00103825       0.00497664       0.00334799
O       -0.44296174       5.29357643       1.69003626       38       0.00503810       0.00255944       0.00226290
O        3.91901762       5.05772483       5.38774648       39      -0.00073370      -0.00560311       0.00226290
