40
Lattice="8.836499778593117 6.925785994833018e-10 6.60384968456626e-15 -2.945499926850678 8.33113188696463 -1.199585572520164e-09 -2.945499925871226 -4.165565942789733 7.214971857189678" Properties=species:S:1:pos:R:3:spacegroup_kinds:I:1:forces:R:3 spacegroup="P 1" unit_cell=conventional occupancy="_JSON {\"0\": {\"In\": 1}, \"1\": {\"In\": 1}, \"2\": {\"In\": 1}, \"3\": {\"In\": 1}, \"4\": {\"In\": 1}, \"5\": {\"In\": 1}, \"6\": {\"In\": 1}, \"7\": {\"In\": 1}, \"8\": {\"In\": 1}, \"9\": {\"In\": 1}, \"10\": {\"In\": 1}, \"11\": {\"In\": 1}, \"12\": {\"In\": 1}, \"13\": {\"In\": 1}, \"14\": {\"In\": 1}, \"15\": {\"In\": 1}, \"16\": {\"O\": 1}, \"17\": {\"O\": 1}, \"18\": {\"O\": 1}, \"19\": {\"O\": 1}, \"20\": {\"O\": 1}, \"21\": {\"O\": 1}, \"22\": {\"O\": 1}, \"23\": {\"O\": 1}, \"24\": {\"O\": 1}, \"25\": {\"O\": 1}, \"26\": {\"O\": 1}, \"27\": {\"O\": 1}, \"28\": {\"O\": 1}, \"29\": {\"O\": 1}, \"30\": {\"O\": 1}, \"31\": {\"O\": 1}, \"32\": {\"O\": 1}, \"33\": {\"O\": 1}, \"34\": {\"O\": 1}, \"35\": {\"O\": 1}, \"36\": {\"O\": 1}, \"37\": {\"O\": 1}, \"38\": {\"O\": 1}, \"39\": {\"O\": 1}}" n_minim_iter=1 energy=-45151.90977927063 stress="1.2901312597638285e-05 -1.9086994883843987e-13 2.3888676160767675e-13 -1.9086994883843987e-13 1.2901312363550973e-05 3.4335245184713e-13 2.3888676160767675e-13 3.4335245184713e-13 1.2901312101445515e-05" free_energy=-45151.90977927063 pbc="T T T"
In      -4.21967578       2.98376136       5.65443151        0       0.00344652      -0.00243706       0.00422111
In       7.16517570       1.18180459       1.56054034        1      -0.00344652       0.00243706      -0.00422111
In       1.27417585      -0.90097838       5.16802627        2      -0.00344652       0.00243706      -0.00422111
In      -1.47274996      -2.08278297       3.60748593        3       0.00000000       0.00000000       0.00000000
In      -1.27417585       4.02515285       3.36428330        4       0.00344652      -0.00243706      -0.00422111
In       4.61682400      -2.84334826       5.41122889        5       0.00344652       0.00487412      -0.00000000
In      -1.27417585       1.32221769       5.41122889        6       0.00344652       0.00487412      -0.00000000
In      -1.67132408       7.00891420       1.80374296        7      -0.00344652      -0.00487412       0.00000000
In       4.21967578       0.14041310       3.85068855        8      -0.00344652       0.00243706       0.00422111
In      -1.47274996       4.16556594      -0.00000000        9       0.00000000       0.00000000      -0.00000000
In       4.21967578       6.38876202       0.24320262       10      -0.00344652       0.00243706       0.00422111
In      -1.27417585      -2.22319607       6.97176923       11       0.00344652      -0.00243706      -0.00422111
In       4.21967578       2.84334826       1.80374296       12      -0.00344652      -0.00487412       0.00000000
In       1.67132407       5.06654433       2.04694558       13       0.00344652      -0.00243706       0.00422111
In       4.41824989       0.00000000      -0.00000000       14      -0.00000000      -0.00000000       0.00000000
In       1.47274996       2.08278297       3.60748593       15      -0.00000000      -0.00000000       0.00000000
O        0.86749794       4.16531261       3.92642188       16      -0.00059942       0.00180094      -0.00184549
O       -2.07800198       3.40050777       5.25198031       17      -0.00059942      -0.00249871      -0.00063692
O       -0.43237664       2.23687493       0.05247966       18      -0.00085767      -0.00231610      -0.00095321
O       -0.86749795      -0.76531152       1.96343034       19       0.00059942      -0.00069777      -0.00248241
O        3.89869679       4.96117661       1.91095068       20      -0.00215600       0.00014744      -0.00152920
O        1.99230306       2.90843944       1.64449438       21       0.00215600       0.00139804      -0.00063692
O        1.99230306       6.21830311       0.26645629       22       0.00215600      -0.00125061      -0.00089228
O       -2.25307145       5.91037254       3.65996558       23       0.00189775       0.00158065      -0.00095321
O        3.37787656       1.92869102       7.16249220       24       0.00085767       0.00231610       0.00095321
O        5.19857138      -1.74480660       3.55500627       25      -0.00189775      -0.00158065       0.00095321
O        6.32337649       3.24666915       1.69653524       26       0.00085767      -0.00198355       0.00152920
O        3.63792840       2.29721988       3.87394222       27       0.00189775      -0.00161583      -0.00089228
O        0.69242847       4.28910542       6.89603590       28       0.00189775       0.00003517       0.00184549
O        2.25307145      -0.12353947       0.31893595       29      -0.00189775      -0.00003517      -0.00184549
O       -3.37787656       0.91889679       5.51843661       30      -0.00085767       0.00198355      -0.00152920
O        5.02350190       0.76505818       1.96299154       31       0.00059942       0.00249871       0.00063692
O        0.95319687       1.25712651       5.57047747       32      -0.00215600      -0.00139804       0.00063692
O        3.37787656      -1.00979422       5.57091627       33       0.00085767      -0.00033255      -0.00248241
O        2.07800198       0.00025334       3.28854997       34       0.00059942      -0.00180094       0.00184549
O        0.95319687      -2.05273716       6.94851556       35      -0.00215600       0.00125061       0.00089228
O       -0.69242848       1.86834607       3.34102963       36      -0.00189775       0.00161583       0.00089228
O       -0.95319687      -0.79561066       5.30402117       37       0.00215600      -0.00014744       0.00152920
O       -0.43237664       5.17536017       1.64405558       38      -0.00085767       0.00033255       0.00248241
O        3.81299787       4.93087746       5.25154151       39      -0.00059942       0.00069777       0.00248241
