40
Lattice="8.3578912353651 6.550682220503536e-10 2.458490421108167e-14 -2.785963745739305 7.879895425043344 -1.1346336996852253e-09 -2.785963744812919 -3.939947711866592 6.8241896180087185" Properties=species:S:1:pos:R:3:spacegroup_kinds:I:1:forces:R:3 spacegroup="P 1" unit_cell=conventional occupancy="_JSON {\"0\": {\"In\": 1}, \"1\": {\"In\": 1}, \"2\": {\"In\": 1}, \"3\": {\"In\": 1}, \"4\": {\"In\": 1}, \"5\": {\"In\": 1}, \"6\": {\"In\": 1}, \"7\": {\"In\": 1}, \"8\": {\"In\": 1}, \"9\": {\"In\": 1}, \"10\": {\"In\": 1}, \"11\": {\"In\": 1}, \"12\": {\"In\": 1}, \"13\": {\"In\": 1}, \"14\": {\"In\": 1}, \"15\": {\"In\": 1}, \"16\": {\"O\": 1}, \"17\": {\"O\": 1}, \"18\": {\"O\": 1}, \"19\": {\"O\": 1}, \"20\": {\"O\": 1}, \"21\": {\"O\": 1}, \"22\": {\"O\": 1}, \"23\": {\"O\": 1}, \"24\": {\"O\": 1}, \"25\": {\"O\": 1}, \"26\": {\"O\": 1}, \"27\": {\"O\": 1}, \"28\": {\"O\": 1}, \"29\": {\"O\": 1}, \"30\": {\"O\": 1}, \"31\": {\"O\": 1}, \"32\": {\"O\": 1}, \"33\": {\"O\": 1}, \"34\": {\"O\": 1}, \"35\": {\"O\": 1}, \"36\": {\"O\": 1}, \"37\": {\"O\": 1}, \"38\": {\"O\": 1}, \"39\": {\"O\": 1}}" n_minim_iter=4 energy=-45144.36982563018 stress="-0.21518492150394933 -1.7612444799527071e-13 -2.564897718453833e-13 -1.7612444799527071e-13 -0.21518492150412216 -1.1010421355334866e-13 -2.564897718453833e-13 -1.1010421355334866e-13 -0.21518492150414173" free_energy=-45144.36982563018 pbc="T T T"
In      -3.98405813       2.81715452       5.35682966        0      -0.00171799       0.00121480      -0.00210410
In       6.77002188       1.12279319       1.46735995        1       0.00171799      -0.00121480       0.00210410
In       1.19809439      -0.84718066       4.87945476        2       0.00171799      -0.00121480       0.00210410
In      -1.39298187      -1.96997385       3.41209481        3      -0.00000000       0.00000000       0.00000000
In      -1.19809439       3.80214145       3.17340736        4      -0.00171799       0.00121480       0.00210410
In       4.37383310      -2.67934826       5.11814221        5      -0.00171799      -0.00242960       0.00000000
In      -1.19809439       1.26059945       5.11814221        6      -0.00171799      -0.00242960      -0.00000000
In      -1.58786936       6.61929597       1.70604740        7       0.00171799       0.00242960      -0.00000000
In       3.98405813       0.13780626       3.65078225        8       0.00171799      -0.00121480      -0.00210410
In      -1.39298187       3.93994771      -0.00000000        9       0.00000000       0.00000000       0.00000000
In       3.98405813       6.04772783       0.23868745       10       0.00171799      -0.00121480      -0.00210410
In      -1.19809439      -2.10778012       6.58550217       11      -0.00171799       0.00121480       0.00210410
In       3.98405813       2.67934826       1.70604740       12       0.00171799       0.00242960       0.00000000
In       1.58786936       4.78712838       1.94473485       13      -0.00171799       0.00121480      -0.00210410
In       4.17894562       0.00000000      -0.00000000       14      -0.00000000       0.00000000       0.00000000
In       1.39298187       1.96997386       3.41209481       15       0.00000000       0.00000000      -0.00000000
O        0.79437755       3.93206845       3.74929063       16      -0.00208089      -0.00108669      -0.00160562
O       -1.99158620       3.25092057       4.95636794       17      -0.00208089      -0.00084716       0.00174391
O       -0.39225715       2.12002415       0.09094837       18      -0.00251688      -0.00053887       0.00120993
O       -0.79437755      -0.69690641       1.88146896       19       0.00208089      -0.00193385       0.00013829
O        3.72885937       4.68936319       1.79052058       20      -0.00010508       0.00263240      -0.00107164
O        1.84306812       2.76401914       1.54427313       21       0.00010508       0.00224427       0.00174391
O        1.84306812       5.86529176       0.24624745       22       0.00010508       0.00038813      -0.00281555
O       -2.12953032       5.57307044       3.50304318       23      -0.00033091       0.00255256       0.00120993
O        3.17822089       1.81992356       6.73324124       24       0.00251688       0.00053887      -0.00120993
O        4.91549406      -1.63312272       3.32114643       25       0.00033091      -0.00255256      -0.00120993
O        5.96418463       3.10874954       1.62157422       26       0.00251688       0.00077840       0.00107164
O        3.44239717       2.21716303       3.65834226       27      -0.00033091      -0.00022845      -0.00281555
O        0.65643342       4.02960968       6.48699379       28      -0.00033091      -0.00232411       0.00160562
O        2.12953032      -0.08966196       0.33719582       29       0.00033091       0.00232411      -0.00160562
O       -3.17822089       0.83119818       5.20261539       30      -0.00251688      -0.00077840      -0.00107164
O        4.77754994       0.68902715       1.86782167       31       0.00208089       0.00084716      -0.00174391
O        0.94289562       1.17592857       5.27991648       32      -0.00010508      -0.00224427      -0.00174391
O        3.17822089      -0.98872538       5.29356377       33       0.00251688      -0.00131727       0.00013829
O        1.99158619       0.00787926       3.07489898       34       0.00208089       0.00108669       0.00160562
O        0.94289562      -1.92534405       6.57794216       35      -0.00010508      -0.00038813       0.00281555
O       -0.65643343       1.72278469       3.16584736       36       0.00033091       0.00022845       0.00281555
O       -0.94289563      -0.74941547       5.03366903       37       0.00010508      -0.00263240       0.00107164
O       -0.39225715       4.92867310       1.53062585       38      -0.00251688       0.00131727      -0.00013829
O        3.58034129       4.63685412       4.94272066       39      -0.00208089       0.00193385      -0.00013829
