40
Lattice="9.199049604449865 7.209970713295672e-10 8.529117288054201e-15 -3.0663498688297213 8.672947140796904 -1.2488053195588577e-09 -3.066349867810082 -4.336473569677455 7.510992550442268" Properties=species:S:1:pos:R:3:spacegroup_kinds:I:1:forces:R:3 spacegroup="P 1" unit_cell=conventional occupancy="_JSON {\"0\": {\"In\": 1}, \"1\": {\"In\": 1}, \"2\": {\"In\": 1}, \"3\": {\"In\": 1}, \"4\": {\"In\": 1}, \"5\": {\"In\": 1}, \"6\": {\"In\": 1}, \"7\": {\"In\": 1}, \"8\": {\"In\": 1}, \"9\": {\"In\": 1}, \"10\": {\"In\": 1}, \"11\": {\"In\": 1}, \"12\": {\"In\": 1}, \"13\": {\"In\": 1}, \"14\": {\"In\": 1}, \"15\": {\"In\": 1}, \"16\": {\"O\": 1}, \"17\": {\"O\": 1}, \"18\": {\"O\": 1}, \"19\": {\"O\": 1}, \"20\": {\"O\": 1}, \"21\": {\"O\": 1}, \"22\": {\"O\": 1}, \"23\": {\"O\": 1}, \"24\": {\"O\": 1}, \"25\": {\"O\": 1}, \"26\": {\"O\": 1}, \"27\": {\"O\": 1}, \"28\": {\"O\": 1}, \"29\": {\"O\": 1}, \"30\": {\"O\": 1}, \"31\": {\"O\": 1}, \"32\": {\"O\": 1}, \"33\": {\"O\": 1}, \"34\": {\"O\": 1}, \"35\": {\"O\": 1}, \"36\": {\"O\": 1}, \"37\": {\"O\": 1}, \"38\": {\"O\": 1}, \"39\": {\"O\": 1}}" n_minim_iter=6 energy=-45150.703298220054 stress="0.05404685956918326 1.879095067881307e-13 -1.0188346536178123e-13 1.879095067881307e-13 0.05404685956941142 -1.0674083938041487e-13 -1.0188346536178123e-13 -1.0674083938041487e-13 0.054046859569311045" free_energy=-45150.703298220054 pbc="T T T"
In      -4.37801824       3.09572638       5.90453344        0       0.00133507      -0.00094404       0.00163512
In       7.44436810       1.24074719       1.60645910        1      -0.00133507       0.00094404      -0.00163512
In       1.31166837      -0.92748959       5.36195538        2      -0.00133507       0.00094404      -0.00163512
In      -1.53317494      -2.16823678       3.75549627        3      -0.00000000       0.00000000       0.00000000
In      -1.31166837       4.17984478       3.48420724        4       0.00133507      -0.00094404      -0.00163512
In       4.82103137      -2.93909758       5.63324441        5       0.00133507       0.00188808      -0.00000000
In      -1.31166837       1.39737599       5.63324441        6       0.00133507       0.00188808      -0.00000000
In      -1.75468150       7.27557116       1.87774813        7      -0.00133507      -0.00188808      -0.00000000
In       4.37801823       0.15662880       4.02678530        8      -0.00133507       0.00094404       0.00163512
In      -1.53317494       4.33647357      -0.00000000        9      -0.00000000      -0.00000000      -0.00000000
In       4.37801823       6.66133915       0.27128903       10      -0.00133507       0.00094404       0.00163512
In      -1.31166837      -2.32486558       7.23970352       11       0.00133507      -0.00094404      -0.00163512
In       4.37801823       2.93909759       1.87774813       12      -0.00133507      -0.00188808      -0.00000000
In       1.75468150       5.26396317       2.14903717       13       0.00133507      -0.00094404       0.00163512
In       4.59952480       0.00000000      -0.00000000       14      -0.00000000       0.00000000      -0.00000000
In       1.53317493       2.16823679       3.75549627       15      -0.00000000       0.00000000      -0.00000000
O        0.94971601       4.34460499       4.07434890       16      -0.00059320       0.00062502       0.00098550
O       -2.11663386       3.52442395       5.46677608       17      -0.00059320       0.00054096      -0.00103404
O       -0.44136935       2.33983306       0.00755515       18       0.00090156      -0.00051600       0.00079667
O       -0.94971601      -0.80391821       2.03013244       19       0.00059320       0.00116598      -0.00004853
O        4.02840338       5.14475375       2.02257729       20       0.00070776      -0.00070602      -0.00084520
O        2.10429635       2.98901034       1.71127981       21      -0.00070776       0.00037895      -0.00103404
O        2.10429635       6.49221698       0.31129748       22      -0.00070776      -0.00108498       0.00018883
O       -2.35313888       6.14089302       3.76305142       23       0.00078701      -0.00067800       0.00079667
O        3.50771922       1.99664052       7.50343740       24      -0.00090156       0.00051600      -0.00079667
O        5.41948874      -1.80441945       3.74794112       25      -0.00078701       0.00067800      -0.00079667
O        6.57406909       3.34469627       1.73291898       26      -0.00090156       0.00043194       0.00084520
O        3.77956086       2.35668841       4.06679375       27       0.00078701       0.00102894       0.00018883
O        0.71321099       4.51183929       7.19213992       28       0.00078701      -0.00035093      -0.00098550
O        2.35313888      -0.17536571       0.31885263       29      -0.00078701       0.00035093       0.00098550
O       -3.50771922       0.99177731       5.77807356       30       0.00090156      -0.00043194      -0.00084520
O        5.18298373       0.81204962       2.04421646       31       0.00059320      -0.00054096       0.00103404
O        0.96205352       1.34746323       5.79971274       32       0.00070776      -0.00037895       0.00103404
O        3.50771922      -1.00486321       5.78562871       33      -0.00090156      -0.00094794      -0.00004853
O        2.11663386      -0.00813141       3.43664364       34       0.00059320      -0.00062502      -0.00098550
O        0.96205352      -2.15574340       7.19969507       35       0.00070776       0.00108498      -0.00018883
O       -0.71321099       1.97978517       3.44419879       36      -0.00078701      -0.00102894      -0.00018883
O       -0.96205352      -0.80828017       5.48841526       37      -0.00070776       0.00070602       0.00084520
O       -0.44136935       5.34133678       1.72536383       38       0.00090156       0.00094794       0.00004853
O        4.01606588       5.14039178       5.48086010       39      -0.00059320      -0.00116598       0.00004853
