40
Lattice="9.53507460085774 7.473371842262006e-10 2.441483029733573e-14 -3.1783582009905116 8.989754545599052 -1.2944417865230237e-09 -3.178358199933637 -4.494877272052182 7.7853558111383565" Properties=species:S:1:pos:R:3:spacegroup_kinds:I:1:forces:R:3 spacegroup="P 1" unit_cell=conventional occupancy="_JSON {\"0\": {\"In\": 1}, \"1\": {\"In\": 1}, \"2\": {\"In\": 1}, \"3\": {\"In\": 1}, \"4\": {\"In\": 1}, \"5\": {\"In\": 1}, \"6\": {\"In\": 1}, \"7\": {\"In\": 1}, \"8\": {\"In\": 1}, \"9\": {\"In\": 1}, \"10\": {\"In\": 1}, \"11\": {\"In\": 1}, \"12\": {\"In\": 1}, \"13\": {\"In\": 1}, \"14\": {\"In\": 1}, \"15\": {\"In\": 1}, \"16\": {\"O\": 1}, \"17\": {\"O\": 1}, \"18\": {\"O\": 1}, \"19\": {\"O\": 1}, \"20\": {\"O\": 1}, \"21\": {\"O\": 1}, \"22\": {\"O\": 1}, \"23\": {\"O\": 1}, \"24\": {\"O\": 1}, \"25\": {\"O\": 1}, \"26\": {\"O\": 1}, \"27\": {\"O\": 1}, \"28\": {\"O\": 1}, \"29\": {\"O\": 1}, \"30\": {\"O\": 1}, \"31\": {\"O\": 1}, \"32\": {\"O\": 1}, \"33\": {\"O\": 1}, \"34\": {\"O\": 1}, \"35\": {\"O\": 1}, \"36\": {\"O\": 1}, \"37\": {\"O\": 1}, \"38\": {\"O\": 1}, \"39\": {\"O\": 1}}" n_minim_iter=6 energy=-45145.26818362693 stress="0.09763174195795203 -4.0869572251249915e-14 -1.2167949133559447e-13 -4.0869572251249915e-14 0.09763174195785457 3.5392466457917756e-14 -1.2167949133559447e-13 3.5392466457917756e-14 0.0976317419579897" free_energy=-45145.26818362693 pbc="T T T"
In      -4.51479625       3.19244304       6.14856016        0      -0.00543508       0.00384318      -0.00665659
In       7.69315445       1.30243423       1.63679564        1       0.00543508      -0.00384318       0.00665659
In       1.33643805      -0.94500440       5.52947355        2       0.00543508      -0.00384318       0.00665659
In      -1.58917910      -2.24743863       3.89267790        3       0.00000000      -0.00000000      -0.00000000
In      -1.33643805       4.31616236       3.58313459        4      -0.00543508       0.00384318       0.00665659
In       5.02027835      -3.01372813       5.83901686        5      -0.00543508      -0.00768637       0.00000000
In      -1.33643805       1.48114915       5.83901686        6      -0.00543508      -0.00768637      -0.00000000
In      -1.84192016       7.50860540       1.94633895        7       0.00543508       0.00768637      -0.00000000
In       4.51479625       0.17871491       4.20222121        8       0.00543508      -0.00384318      -0.00665659
In      -1.58917910       4.49487727      -0.00000000        9      -0.00000000      -0.00000000       0.00000000
In       4.51479625       6.92103082       0.30954330       10       0.00543508      -0.00384318      -0.00665659
In      -1.33643805      -2.42615355       7.47581250       11      -0.00543508       0.00384318       0.00665659
In       4.51479625       3.01372813       1.94633895       12       0.00543508       0.00768637       0.00000000
In       1.84192015       5.43988168       2.25588226       13      -0.00543508       0.00384318      -0.00665659
In       4.76753730       0.00000000      -0.00000000       14       0.00000000      -0.00000000       0.00000000
In       1.58917910       2.24743864       3.89267790       15       0.00000000       0.00000000      -0.00000000
O        1.10681255       4.51603348       4.19010380       16       0.00295393       0.00320083       0.00329914
O       -2.07154565       3.61815824       5.67198210       17       0.00295393       0.00125673      -0.00442157
O       -0.43769486       2.46285126      -0.11232334       18       0.00518727      -0.00032248      -0.00168630
O       -1.10681255      -0.85556283       2.07673009       19      -0.00295393       0.00445756      -0.00112243
O        4.10174751       5.28559020       2.18905342       20       0.00020021      -0.00543114       0.00056387
O        2.25496888       2.99445786       1.77930419       21      -0.00020021      -0.00320390      -0.00442157
O        2.25496888       6.78600962       0.40974922       22      -0.00020021      -0.00222724       0.00498545
O       -2.46789673       6.33402816       3.78035457       23       0.00203313      -0.00478311      -0.00168630
O        3.61605306       2.03202601       7.89767914       24      -0.00518727       0.00032248       0.00168630
O        5.64625492      -1.83915089       4.00500124       25      -0.00203313       0.00478311       0.00168630
O        6.79441126       3.38158941       1.70362448       26      -0.00518727      -0.00162162      -0.00056387
O        3.88881967       2.35430765       4.30242713       27       0.00203313       0.00093117       0.00498545
O        0.71046147       4.79629601       7.48792991       28       0.00203313       0.00385194      -0.00329914
O        2.46789672      -0.30141873       0.29742589       29      -0.00203313      -0.00385194       0.00329914
O       -3.61605306       1.11328787       6.08173133       30       0.00518727       0.00162162       0.00056387
O        5.24990385       0.87671904       2.11337371       31      -0.00295393      -0.00125673       0.00442157
O        0.92338931       1.50041941       6.00605161       32       0.00020021       0.00320390       0.00442157
O        3.61605306      -0.91873814       5.96940800       33      -0.00518727       0.00129914      -0.00112243
O        2.07154565      -0.02115620       3.59525201       34      -0.00295393      -0.00320083      -0.00329914
O        0.92338931      -2.29113234       7.37560658       35       0.00020021       0.00222724      -0.00498545
O       -0.71046148       2.14056962       3.48292867       36      -0.00203313      -0.00093117      -0.00498545
O       -0.92338932      -0.79071293       5.59630238       37      -0.00020021       0.00543114      -0.00056387
O       -0.43769486       5.41361542       1.81594781       38       0.00518727      -0.00129914       0.00112243
O        4.28517075       5.35044011       5.70862572       39       0.00295393      -0.00445756       0.00112243
