40
Lattice="9.268217988103334 7.264198571778016e-10 1.1765156215718009e-14 -3.0894059967193184 8.738159718295206 -1.2581969221585824e-09 -3.0894059956920183 -4.369079858421184 7.56746829920832" Properties=species:S:1:pos:R:3:spacegroup_kinds:I:1:forces:R:3 spacegroup="P 1" unit_cell=conventional occupancy="_JSON {\"0\": {\"In\": 1}, \"1\": {\"In\": 1}, \"2\": {\"In\": 1}, \"3\": {\"In\": 1}, \"4\": {\"In\": 1}, \"5\": {\"In\": 1}, \"6\": {\"In\": 1}, \"7\": {\"In\": 1}, \"8\": {\"In\": 1}, \"9\": {\"In\": 1}, \"10\": {\"In\": 1}, \"11\": {\"In\": 1}, \"12\": {\"In\": 1}, \"13\": {\"In\": 1}, \"14\": {\"In\": 1}, \"15\": {\"In\": 1}, \"16\": {\"O\": 1}, \"17\": {\"O\": 1}, \"18\": {\"O\": 1}, \"19\": {\"O\": 1}, \"20\": {\"O\": 1}, \"21\": {\"O\": 1}, \"22\": {\"O\": 1}, \"23\": {\"O\": 1}, \"24\": {\"O\": 1}, \"25\": {\"O\": 1}, \"26\": {\"O\": 1}, \"27\": {\"O\": 1}, \"28\": {\"O\": 1}, \"29\": {\"O\": 1}, \"30\": {\"O\": 1}, \"31\": {\"O\": 1}, \"32\": {\"O\": 1}, \"33\": {\"O\": 1}, \"34\": {\"O\": 1}, \"35\": {\"O\": 1}, \"36\": {\"O\": 1}, \"37\": {\"O\": 1}, \"38\": {\"O\": 1}, \"39\": {\"O\": 1}}" n_minim_iter=6 energy=-45149.87897492358 stress="0.06657235759311576 -2.385819474478446e-13 3.905048726126533e-14 -2.385819474478446e-13 0.06657235759331152 1.1609095769466676e-13 3.905048726126533e-14 1.1609095769466676e-13 0.06657235759326505" free_energy=-45149.87897492358 pbc="T T T"
In      -4.40510212       3.11487758       5.95607622        0       0.00115159      -0.00081430       0.00141041
In       7.49450811       1.25420228       1.61139207        1      -0.00115159       0.00081430      -0.00141041
In       1.31569612      -0.93033765       5.39512622        2      -0.00115159       0.00081430      -0.00141041
In      -1.54470300      -2.18453993       3.78373415        3       0.00000000      -0.00000000       0.00000000
In      -1.31569612       4.20714755       3.50325915        4       0.00115159      -0.00081430      -0.00141041
In       4.86311587      -2.95294526       5.67560122        5       0.00115159       0.00162860      -0.00000000
In      -1.31569612       1.41613460       5.67560122        6       0.00115159       0.00162860       0.00000000
In      -1.77370988       7.32202512       1.89186707        7      -0.00115159      -0.00162860       0.00000000
In       4.40510211       0.16193232       4.06420915        8      -0.00115159       0.00081430       0.00141041
In      -1.54470300       4.36907986      -0.00000000        9       0.00000000      -0.00000000       0.00000000
In       4.40510211       6.71555211       0.28047500       10      -0.00115159       0.00081430       0.00141041
In      -1.31569612      -2.34647224       7.28699330       11       0.00115159      -0.00081430      -0.00141041
In       4.40510211       2.95294526       1.89186707       12      -0.00115159      -0.00162860      -0.00000000
In       1.77370987       5.29941751       2.17234207       13       0.00115159      -0.00081430       0.00141041
In       4.63410899       0.00000000      -0.00000000       14       0.00000000      -0.00000000      -0.00000000
In       1.54470300       2.18453993       3.78373415       15       0.00000000      -0.00000000      -0.00000000
O        0.97563031       4.38000863       4.10092077       16      -0.00023168       0.00112505       0.00177022
O       -2.11377569       3.54603719       5.50754332       17      -0.00023168       0.00097053      -0.00185943
O       -0.44045823       2.36282307      -0.01053801       18       0.00189851      -0.00053573       0.00074950
O       -0.97563031      -0.81211391       2.04099580       19       0.00023168       0.00209558      -0.00008921
O        4.04782782       5.17510965       2.05153380       20       0.00099225      -0.00166285      -0.00083871
O        2.13098417       2.99541437       1.72380917       21      -0.00099225      -0.00010508      -0.00185943
O        2.13098417       6.54877515       0.32772462       22      -0.00099225      -0.00155777       0.00102072
O       -2.37451036       6.18128011       3.77319614       23       0.00113793      -0.00161135       0.00074950
O        3.52986423       2.00625679       7.57800630       24      -0.00189851       0.00053573      -0.00074950
O        5.46391636      -1.81220024       3.79427215       25      -0.00113793       0.00161135      -0.00074950
O        6.61927022       3.35682529       1.73220034       26      -0.00189851       0.00038122       0.00083871
O        3.80430163       2.36158360       4.11145877       27       0.00113793       0.00145476       0.00102072
O        0.71489563       4.56437588       7.25028167       28       0.00113793       0.00015659      -0.00177022
O        2.37451036      -0.19529602       0.31718662       29      -0.00113793      -0.00015659       0.00177022
O       -3.52986423       1.01225458       5.83526795       30       0.00189851      -0.00038122      -0.00083871
O        5.20318168       0.82304267       2.05992497       31       0.00023168      -0.00097053       0.00185943
O        0.95842182       1.37366550       5.84365912       32       0.00099225       0.00010508       0.00185943
O        3.52986423      -0.99400222       5.82472995       33      -0.00189851      -0.00091695      -0.00008921
O        2.11377569      -0.01092876       3.46654752       34       0.00023168      -0.00112505      -0.00177022
O        0.95842182      -2.17969528       7.23974367       35       0.00099225       0.00155777      -0.00102072
O       -0.71489563       2.00749627       3.45600952       36      -0.00113793      -0.00145476      -0.00102072
O       -0.95842182      -0.80602979       5.51593449       37      -0.00099225       0.00166285       0.00083871
O       -0.44045823       5.36308208       1.74273835       38       0.00189851       0.00091695       0.00008921
O        4.06503630       5.18119377       5.52647250       39      -0.00023168      -0.00209558       0.00008921
