40
Lattice="8.185514205112709 6.415588137750009e-10 2.814978200744143e-14 -2.728504735642439 7.717376802364833 -1.111230924582115e-09 -2.7285047347351634 -3.8586884005408497 6.683444362165469" Properties=species:S:1:pos:R:3:spacegroup_kinds:I:1:forces:R:3 spacegroup="P 1" unit_cell=conventional occupancy="_JSON {\"0\": {\"In\": 1}, \"1\": {\"In\": 1}, \"2\": {\"In\": 1}, \"3\": {\"In\": 1}, \"4\": {\"In\": 1}, \"5\": {\"In\": 1}, \"6\": {\"In\": 1}, \"7\": {\"In\": 1}, \"8\": {\"In\": 1}, \"9\": {\"In\": 1}, \"10\": {\"In\": 1}, \"11\": {\"In\": 1}, \"12\": {\"In\": 1}, \"13\": {\"In\": 1}, \"14\": {\"In\": 1}, \"15\": {\"In\": 1}, \"16\": {\"O\": 1}, \"17\": {\"O\": 1}, \"18\": {\"O\": 1}, \"19\": {\"O\": 1}, \"20\": {\"O\": 1}, \"21\": {\"O\": 1}, \"22\": {\"O\": 1}, \"23\": {\"O\": 1}, \"24\": {\"O\": 1}, \"25\": {\"O\": 1}, \"26\": {\"O\": 1}, \"27\": {\"O\": 1}, \"28\": {\"O\": 1}, \"29\": {\"O\": 1}, \"30\": {\"O\": 1}, \"31\": {\"O\": 1}, \"32\": {\"O\": 1}, \"33\": {\"O\": 1}, \"34\": {\"O\": 1}, \"35\": {\"O\": 1}, \"36\": {\"O\": 1}, \"37\": {\"O\": 1}, \"38\": {\"O\": 1}, \"39\": {\"O\": 1}}" n_minim_iter=5 energy=-45136.89948865524 stress="-0.3394661346976931 -1.4330892610433767e-13 9.898123080258463e-15 -1.4330892610433767e-13 -0.3394661346979716 1.4011696928550772e-13 9.898123080258463e-15 1.4011696928550772e-13 -0.33946613469800263" free_energy=-45136.89948865524 pbc="T T T"
In      -3.89389210       2.75339751       5.25614216        0      -0.00257814       0.00182302      -0.00315757
In       6.62239683       1.10529090       1.42730219        1       0.00257814      -0.00182302       0.00315757
In       1.16538736      -0.82405330       4.76902437        2       0.00257814      -0.00182302       0.00315757
In      -1.36425237      -1.92934420       3.34172218        3      -0.00000000       0.00000000      -0.00000000
In      -1.16538736       3.71806961       3.09816328        4      -0.00257814       0.00182302       0.00315757
In       4.29162211      -2.61277871       5.01258327        5      -0.00257814      -0.00364604      -0.00000000
In      -1.16538736       1.24590969       5.01258327        6      -0.00257814      -0.00364604       0.00000000
In      -1.56311737       6.47146712       1.67086109        7       0.00257814       0.00364604       0.00000000
In       3.89389210       0.14061880       3.58528107        8       0.00257814      -0.00182302      -0.00315757
In      -1.36425237       3.85868840      -0.00000000        9       0.00000000      -0.00000000       0.00000000
In       3.89389210       5.92865140       0.24355889       10       0.00257814      -0.00182302      -0.00315757
In      -1.16538736      -2.06996299       6.43988546       11      -0.00257814       0.00182302       0.00315757
In       3.89389210       2.61277872       1.67086109       12       0.00257814       0.00364604       0.00000000
In       1.56311737       4.68274171       1.91441998       13      -0.00257814       0.00182302      -0.00315757
In       4.09275710       0.00000000      -0.00000000       14       0.00000000      -0.00000000       0.00000000
In       1.36425237       1.92934420       3.34172218       15      -0.00000000       0.00000000      -0.00000000
O        0.77674972       3.84890810       3.68708817       16       0.00606275      -0.00114997       0.00681019
O       -1.95175501       3.19800218       4.84837027       17       0.00606275       0.00647278      -0.00240919
O       -0.37320534       2.08179900       0.09824653       18       0.00703931       0.00578225      -0.00121315
O       -0.77674973      -0.67046653       1.85201408       19      -0.00606275       0.00532281       0.00440100
O        3.66569037       4.58587760       1.75376755       20       0.00408168      -0.00602323       0.00561415
O        1.79131910       2.70347575       1.50664809       21      -0.00408168      -0.00787361      -0.00240919
O        1.79131910       5.74109025       0.24711946       22      -0.00408168       0.00185038       0.00802334
O       -2.08714069       5.44596097       3.43996871       23      -0.00310512      -0.00856414      -0.00121315
O        3.10171007       1.77688941       6.58519783       24      -0.00703931      -0.00578225       0.00121315
O        4.81564543      -1.58727256       3.24347565       25       0.00310512       0.00856414       0.00121315
O        5.83021480       3.05532769       1.58795463       26      -0.00703931       0.00184050      -0.00561415
O        3.36986878       2.18546401       3.58884164       27      -0.00310512       0.00323145       0.00802334
O        0.64136404       3.94464023       6.33807837       28      -0.00310512       0.00533269      -0.00681019
O        2.08714069      -0.08595183       0.34536599       29       0.00310512      -0.00533269       0.00681019
O       -3.10171007       0.80336072       5.09548973       30       0.00703931      -0.00184051       0.00561415
O        4.68025974       0.66068623       1.83507409       31      -0.00606275      -0.00647278       0.00240919
O        0.93718563       1.15521266       5.17679627       32       0.00408168       0.00787361       0.00240919
O        3.10171007      -0.97352869       5.19373626       33      -0.00703931       0.00394174       0.00440100
O        1.95175501       0.00978031       2.99635619       34      -0.00606275       0.00114997      -0.00681019
O        0.93718563      -1.88240184       6.43632490       35       0.00408168      -0.00185038      -0.00802334
O       -0.64136404       1.67322440       3.09460272       36       0.00310512      -0.00323145      -0.00802334
O       -0.93718564      -0.72718919       4.92967681       37      -0.00408168       0.00602323      -0.00561415
O       -0.37320534       4.83221710       1.48970810       38       0.00703931      -0.00394174      -0.00440100
O        3.50525446       4.52915494       4.83143028       39       0.00606275      -0.00532281      -0.00440100
