20
Lattice="5.866013443518402 -2.167973843244179e-60 1.4522830765357213e-43 1.917104658870375e-60 5.892613903547008 1.0530117264117907e-17 -2.1163072320036593e-43 -1.5275509859202574e-17 8.54811770110394" Properties=species:S:1:pos:R:3:spacegroup_kinds:I:1:forces:R:3 spacegroup="P 1" unit_cell=conventional occupancy="_JSON {\"0\": {\"In\": 1}, \"1\": {\"In\": 1}, \"2\": {\"In\": 1}, \"3\": {\"In\": 1}, \"4\": {\"In\": 1}, \"5\": {\"In\": 1}, \"6\": {\"In\": 1}, \"7\": {\"In\": 1}, \"8\": {\"O\": 1}, \"9\": {\"O\": 1}, \"10\": {\"O\": 1}, \"11\": {\"O\": 1}, \"12\": {\"O\": 1}, \"13\": {\"O\": 1}, \"14\": {\"O\": 1}, \"15\": {\"O\": 1}, \"16\": {\"O\": 1}, \"17\": {\"O\": 1}, \"18\": {\"O\": 1}, \"19\": {\"O\": 1}}" n_minim_iter=1 energy=-22573.252596875976 stress="0.0892961143571029 -1.5633686292850732e-13 -4.7546231178588434e-14 -1.5633686292850732e-13 0.08597323232800083 -3.767841519399466e-13 -4.7546231178588434e-14 -3.767841519399466e-13 0.08534679053178904" free_energy=-22573.252596875976 pbc="T T T"
In       1.44861472       3.09696236       0.99923780        0       0.00135892       0.02505803       0.01097319
In       1.48439200       0.15065540       3.27482105        1      -0.00135892       0.02505803      -0.01097319
In       1.48439200       2.79565155       5.27329665        2      -0.00135892      -0.02505803       0.01097319
In       1.44861472       5.74195850       7.54887990        3       0.00135892      -0.02505803      -0.01097319
In       4.41739872       2.79565155       7.54887990        4      -0.00135892      -0.02505803      -0.01097319
In       4.38162144       5.74195850       5.27329665        5       0.00135892      -0.02505803       0.01097319
In       4.38162144       3.09696236       3.27482105        6       0.00135892       0.02505803      -0.01097319
In       4.41739872       0.15065540       0.99923780        7      -0.00135892       0.02505803       0.01097319
O        2.29568107       3.52744006       7.24561471        8       0.02052517      -0.03609166      -0.03899636
O        0.63732565       0.58113311       5.57656184        9      -0.02052517      -0.03609166       0.03899636
O        0.63732565       2.36517384       2.97155586       10      -0.02052517       0.03609166      -0.03899636
O        2.29568107       5.31148079       1.30250299       11       0.02052517       0.03609166       0.03899636
O        3.57033237       2.36517384       1.30250299       12      -0.02052517       0.03609166       0.03899636
O        5.22868780       5.31148079       2.97155586       13       0.02052517       0.03609166      -0.03899636
O        5.22868780       3.52744006       5.57656184       14       0.02052517      -0.03609166       0.03899636
O        3.57033237       0.58113311       7.24561471       15      -0.02052517      -0.03609166      -0.03899636
O        5.59878081       4.41946043      -0.00000000       16      -0.04610353      -0.00000000      -0.00000000
O        3.20023935       1.47315348       4.27405885       17       0.04610353      -0.00000000       0.00000000
O        0.26723263       1.47315348      -0.00000000       18       0.04610353      -0.00000000      -0.00000000
O        2.66577409       4.41946043       4.27405885       19      -0.04610353      -0.00000000       0.00000000
20
Lattice="5.848069158783271 -2.076833983910789e-60 1.4464727480793997e-43 1.919928670426628e-60 5.899311631836625 1.401152640098646e-17 -2.1223561818986566e-43 -1.0258725481007739e-17 8.564612042291719" Properties=species:S:1:pos:R:3:spacegroup_kinds:I:1:forces:R:3 spacegroup="P 1" unit_cell=conventional occupancy="_JSON {\"0\": {\"In\": 1}, \"1\": {\"In\": 1}, \"2\": {\"In\": 1}, \"3\": {\"In\": 1}, \"4\": {\"In\": 1}, \"5\": {\"In\": 1}, \"6\": {\"In\": 1}, \"7\": {\"In\": 1}, \"8\": {\"O\": 1}, \"9\": {\"O\": 1}, \"10\": {\"O\": 1}, \"11\": {\"O\": 1}, \"12\": {\"O\": 1}, \"13\": {\"O\": 1}, \"14\": {\"O\": 1}, \"15\": {\"O\": 1}, \"16\": {\"O\": 1}, \"17\": {\"O\": 1}, \"18\": {\"O\": 1}, \"19\": {\"O\": 1}}" n_minim_iter=2 energy=-22573.25435666265 stress="0.08599437489231783 -2.799483693563485e-13 3.2436785062634196e-14 -2.799483693563485e-13 0.08627842961994506 -5.291854914167059e-13 3.2436785062634196e-14 -5.291854914167059e-13 0.0862083684822878" free_energy=-22573.25435666265 pbc="T T T"
In       1.44418916       3.10058976       1.00121294        0      -0.01442677       0.03346936       0.02451775
In       1.47984541       0.15093395       3.28109308        1       0.01442677       0.03346936      -0.02451775
In       1.47984541       2.79872187       5.28351896        2       0.01442677      -0.03346936       0.02451775
In       1.44418916       5.74837768       7.56339910        3      -0.01442677      -0.03346936      -0.02451775
In       4.40387999       2.79872187       7.56339910        4       0.01442677      -0.03346936      -0.02451775
In       4.36822374       5.74837768       5.28351896        5      -0.01442677      -0.03346936       0.02451775
In       4.36822374       3.10058976       3.28109308        6      -0.01442677       0.03346936      -0.02451775
In       4.40387999       0.15093395       1.00121294        7       0.01442677       0.03346936       0.02451775
O        2.28874605       3.53129491       7.25942863        8       0.01491759      -0.03508666      -0.06115981
O        0.63528853       0.58163909       5.58748943        9      -0.01491759      -0.03508666       0.06115981
O        0.63528853       2.36801672       2.97712261       10      -0.01491759       0.03508666      -0.06115981
O        2.28874605       5.31767254       1.30518341       11       0.01491759       0.03508666       0.06115981
O        3.55932311       2.36801672       1.30518341       12      -0.01491759       0.03508666       0.06115981
O        5.21278063       5.31767254       2.97712261       13       0.01491759       0.03508666      -0.06115981
O        5.21278063       3.53129491       5.58748943       14       0.01491759      -0.03508666       0.06115981
O        3.55932311       0.58163909       7.25942863       15      -0.01491759      -0.03508666      -0.06115981
O        5.58145740       4.42448372      -0.00000000       16      -0.05244495      -0.00000000       0.00000000
O        3.19064634       1.47482791       4.28230602       17       0.05244495      -0.00000000      -0.00000000
O        0.26661176       1.47482791      -0.00000000       18       0.05244495       0.00000000       0.00000000
O        2.65742282       4.42448372       4.28230602       19      -0.05244495      -0.00000000       0.00000000
20
Lattice="5.833052995907736 -2.0035140505624085e-60 1.4370742981173332e-43 1.9105187386963578e-60 5.88633318821969 1.6886520882370162e-17 -2.1408048979038675e-43 -6.162802732680362e-18 8.605592362597493" Properties=species:S:1:pos:R:3:spacegroup_kinds:I:1:forces:R:3 spacegroup="P 1" unit_cell=conventional occupancy="_JSON {\"0\": {\"In\": 1}, \"1\": {\"In\": 1}, \"2\": {\"In\": 1}, \"3\": {\"In\": 1}, \"4\": {\"In\": 1}, \"5\": {\"In\": 1}, \"6\": {\"In\": 1}, \"7\": {\"In\": 1}, \"8\": {\"O\": 1}, \"9\": {\"O\": 1}, \"10\": {\"O\": 1}, \"11\": {\"O\": 1}, \"12\": {\"O\": 1}, \"13\": {\"O\": 1}, \"14\": {\"O\": 1}, \"15\": {\"O\": 1}, \"16\": {\"O\": 1}, \"17\": {\"O\": 1}, \"18\": {\"O\": 1}, \"19\": {\"O\": 1}}" n_minim_iter=3 energy=-22573.260858135553 stress="0.08402892672168089 3.4027766796601616e-13 -1.6711910159930109e-15 3.4027766796601616e-13 0.08207775414571036 1.267044060128823e-13 -1.6711910159930109e-15 1.267044060128823e-13 0.0846805358666282" free_energy=-22573.260858135553 pbc="T T T"
In       1.43779893       3.10051163       1.01086251        0      -0.01156618       0.01375568       0.03834907
In       1.47872756       0.15734503       3.29193367        1       0.01156618       0.01375568      -0.03834907
In       1.47872756       2.78582156       5.31365870        2       0.01156618      -0.01375568       0.03834907
In       1.43779893       5.72898816       7.59472985        3      -0.01156618      -0.01375568      -0.03834907
In       4.39525406       2.78582156       7.59472985        4       0.01156618      -0.01375568      -0.03834907
In       4.35432543       5.72898816       5.31365870        5      -0.01156618      -0.01375568       0.03834907
In       4.35432543       3.10051163       3.29193367        6      -0.01156618       0.01375568      -0.03834907
In       4.39525406       0.15734503       1.01086251        7       0.01156618       0.01375568       0.03834907
O        2.28600310       3.51629482       7.28184966        8      -0.01200166       0.00291857      -0.01761457
O        0.63052339       0.57312822       5.62653888        9       0.01200166       0.00291857       0.01761457
O        0.63052339       2.37003837       2.97905348       10       0.01200166      -0.00291857      -0.01761457
O        2.28600310       5.31320497       1.32374270       11      -0.01200166      -0.00291857       0.01761457
O        3.54704989       2.37003837       1.32374270       12       0.01200166      -0.00291857       0.01761457
O        5.20252960       5.31320497       2.97905348       13      -0.01200166      -0.00291857      -0.01761457
O        5.20252960       3.51629482       5.62653888       14      -0.01200166       0.00291857       0.01761457
O        3.54704989       0.57312822       7.28184966       15       0.01200166       0.00291857      -0.01761457
O        5.55653669       4.41474989      -0.00000000       16       0.04170648      -0.00000000      -0.00000000
O        3.19304280       1.47158330       4.30279618       17      -0.04170648       0.00000000      -0.00000000
O        0.27651630       1.47158330      -0.00000000       18      -0.04170648       0.00000000       0.00000000
O        2.64001019       4.41474989       4.30279618       19       0.04170648      -0.00000000       0.00000000
20
Lattice="5.828446258059445 -1.7279433088251588e-60 1.4403025472355456e-43 1.912729038503348e-60 5.898623773715419 2.8121581341702473e-17 -2.131677091510065e-43 1.0076258043378862e-17 8.594449029848622" Properties=species:S:1:pos:R:3:spacegroup_kinds:I:1:forces:R:3 spacegroup="P 1" unit_cell=conventional occupancy="_JSON {\"0\": {\"In\": 1}, \"1\": {\"In\": 1}, \"2\": {\"In\": 1}, \"3\": {\"In\": 1}, \"4\": {\"In\": 1}, \"5\": {\"In\": 1}, \"6\": {\"In\": 1}, \"7\": {\"In\": 1}, \"8\": {\"O\": 1}, \"9\": {\"O\": 1}, \"10\": {\"O\": 1}, \"11\": {\"O\": 1}, \"12\": {\"O\": 1}, \"13\": {\"O\": 1}, \"14\": {\"O\": 1}, \"15\": {\"O\": 1}, \"16\": {\"O\": 1}, \"17\": {\"O\": 1}, \"18\": {\"O\": 1}, \"19\": {\"O\": 1}}" n_minim_iter=4 energy=-22573.261803164118 stress="0.08344083947414338 5.612361508961414e-13 -1.1958196669441908e-13 5.612361508961414e-13 0.08335921087247283 -3.3280365680985905e-13 -1.1958196669441908e-13 -3.3280365680985905e-13 0.08328432046714106" free_energy=-22573.261803164118 pbc="T T T"
In       1.43624270       3.10795286       1.01041052        0      -0.01178159       0.02293730       0.02323483
In       1.47798043       0.15864098       3.28681400        1       0.01178159       0.02293730      -0.02323483
In       1.47798043       2.79067091       5.30763503        2       0.01178159      -0.02293730       0.02323483
In       1.43624270       5.73998280       7.58403851        3      -0.01178159      -0.02293730      -0.02323483
In       4.39220356       2.79067091       7.58403851        4       0.01178159      -0.02293730      -0.02323483
In       4.35046583       5.73998280       5.30763503        5      -0.01178159      -0.02293730       0.02323483
In       4.35046583       3.10795286       3.28681400        6      -0.01178159       0.02293730      -0.02323483
In       4.39220356       0.15864098       1.01041052        7       0.01178159       0.02293730       0.02323483
O        2.28454222       3.52270020       7.27069717        8      -0.00823204       0.00767480       0.00110458
O        0.62968090       0.57338832       5.62097637        9       0.00823204       0.00767480      -0.00110458
O        0.62968090       2.37592357       2.97347266       10       0.00823204      -0.00767480       0.00110458
O        2.28454222       5.32523546       1.32375186       11      -0.00823204      -0.00767480      -0.00110458
O        3.54390403       2.37592357       1.32375186       12       0.00823204      -0.00767480      -0.00110458
O        5.19876535       5.32523546       2.97347266       13      -0.00823204      -0.00767480       0.00110458
O        5.19876535       3.52270020       5.62097637       14      -0.00823204       0.00767480      -0.00110458
O        3.54390403       0.57338832       7.27069717       15       0.00823204       0.00767480       0.00110458
O        5.55098216       4.42396783      -0.00000000       16       0.05006221       0.00000000       0.00000000
O        3.19168722       1.47465594       4.29722451       17      -0.05006221      -0.00000000       0.00000000
O        0.27746409       1.47465594      -0.00000000       18      -0.05006221      -0.00000000       0.00000000
O        2.63675903       4.42396783       4.29722451       19       0.05006221       0.00000000       0.00000000
20
Lattice="5.823708516678461 -1.8887140418189925e-60 1.966007998989183e-43 1.7349472261654772e-60 5.901414967859316 2.226846095588685e-17 -2.74064658020562e-43 1.576322478423432e-18 8.597372615890713" Properties=species:S:1:pos:R:3:spacegroup_kinds:I:1:forces:R:3 spacegroup="P 1" unit_cell=conventional occupancy="_JSON {\"0\": {\"In\": 1}, \"1\": {\"In\": 1}, \"2\": {\"In\": 1}, \"3\": {\"In\": 1}, \"4\": {\"In\": 1}, \"5\": {\"In\": 1}, \"6\": {\"In\": 1}, \"7\": {\"In\": 1}, \"8\": {\"O\": 1}, \"9\": {\"O\": 1}, \"10\": {\"O\": 1}, \"11\": {\"O\": 1}, \"12\": {\"O\": 1}, \"13\": {\"O\": 1}, \"14\": {\"O\": 1}, \"15\": {\"O\": 1}, \"16\": {\"O\": 1}, \"17\": {\"O\": 1}, \"18\": {\"O\": 1}, \"19\": {\"O\": 1}}" n_minim_iter=5 energy=-22573.262932700283 stress="0.08291750463183142 -2.799991789947913e-13 -1.7474910066477435e-13 -2.799991789947913e-13 0.08362789102469655 -1.3142596860839457e-13 -1.7474910066477435e-13 -1.3142596860839457e-13 0.08312648179786292" free_energy=-22573.262932700283 pbc="T T T"
In       1.43413160       3.11126254       1.01265662        0      -0.01276492       0.01864636       0.01279740
In       1.47772265       0.16055506       3.28602969        1       0.01276492       0.01864636      -0.01279740
In       1.47772265       2.79015243       5.31134292        2       0.01276492      -0.01864636       0.01279740
In       1.43413160       5.74085991       7.58471600        3      -0.01276492      -0.01864636      -0.01279740
In       4.38957691       2.79015243       7.58471600        4       0.01276492      -0.01864636      -0.01279740
In       4.34598586       5.74085991       5.31134292        5      -0.01276492      -0.01864636       0.01279740
In       4.34598586       3.11126254       3.28602969        6      -0.01276492       0.01864636      -0.01279740
In       4.38957691       0.16055506       1.01265662        7       0.01276492       0.01864636       0.01279740
O        2.28211494       3.52480709       7.27296067        8       0.00231815       0.00287669      -0.00231461
O        0.62973932       0.57409961       5.62309825        9      -0.00231815       0.00287669       0.00231461
O        0.62973932       2.37660787       2.97427436       10      -0.00231815      -0.00287669      -0.00231461
O        2.28211494       5.32731536       1.32441194       11       0.00231815      -0.00287669       0.00231461
O        3.54159358       2.37660787       1.32441194       12      -0.00231815      -0.00287669       0.00231461
O        5.19396920       5.32731536       2.97427436       13       0.00231815      -0.00287669      -0.00231461
O        5.19396920       3.52480709       5.62309825       14       0.00231815       0.00287669       0.00231461
O        3.54159358       0.57409961       7.27296067       15      -0.00231815       0.00287669      -0.00231461
O        5.54995971       4.42606123      -0.00000000       16       0.01732148       0.00000000       0.00000000
O        3.18560306       1.47535374       4.29868631       17      -0.01732148      -0.00000000       0.00000000
O        0.27374880       1.47535374      -0.00000000       18      -0.01732148       0.00000000      -0.00000000
O        2.63810546       4.42606123       4.29868631       19       0.01732148       0.00000000       0.00000000
20
Lattice="5.818612530651722 -1.9380812316364098e-60 2.1746431386647953e-43 1.772842603602656e-60 5.899442087975888 2.077925583027874e-17 -2.5906855415353885e-43 -6.236235121969772e-19 8.607779896155442" Properties=species:S:1:pos:R:3:spacegroup_kinds:I:1:forces:R:3 spacegroup="P 1" unit_cell=conventional occupancy="_JSON {\"0\": {\"In\": 1}, \"1\": {\"In\": 1}, \"2\": {\"In\": 1}, \"3\": {\"In\": 1}, \"4\": {\"In\": 1}, \"5\": {\"In\": 1}, \"6\": {\"In\": 1}, \"7\": {\"In\": 1}, \"8\": {\"O\": 1}, \"9\": {\"O\": 1}, \"10\": {\"O\": 1}, \"11\": {\"O\": 1}, \"12\": {\"O\": 1}, \"13\": {\"O\": 1}, \"14\": {\"O\": 1}, \"15\": {\"O\": 1}, \"16\": {\"O\": 1}, \"17\": {\"O\": 1}, \"18\": {\"O\": 1}, \"19\": {\"O\": 1}}" n_minim_iter=6 energy=-22573.263679883978 stress="0.08249757609054324 -2.6013263126845427e-13 -1.1932671286924074e-12 -2.6013263126845427e-13 0.0828593973625716 -1.7196317234701013e-13 -1.1932671286924074e-12 -1.7196317234701013e-13 0.08256809642248814" free_energy=-22573.263679883978 pbc="T T T"
In       1.43111605       3.11375438       1.01713811        0      -0.00925017       0.00706571       0.00145408
In       1.47819021       0.16403334       3.28675184        1       0.00925017       0.00706571      -0.00145408
In       1.47819021       2.78568771       5.32102805        2       0.00925017      -0.00706571       0.00145408
In       1.43111605       5.73540875       7.59064179        3      -0.00925017      -0.00706571      -0.00145408
In       4.38749648       2.78568771       7.59064179        4       0.00925017      -0.00706571      -0.00145408
In       4.34042232       5.73540875       5.32102805        5      -0.00925017      -0.00706571       0.00145408
In       4.34042232       3.11375438       3.28675184        6      -0.00925017       0.00706571      -0.00145408
In       4.38749648       0.16403334       1.01713811        7       0.00925017       0.00706571       0.00145408
O        2.28003801       3.52301069       7.27946633        8       0.01110919       0.00274849       0.00200976
O        0.62926826       0.57328965       5.63220352        9      -0.01110919       0.00274849      -0.00200976
O        0.62926826       2.37643139       2.97557638       10      -0.01110919      -0.00274849       0.00200976
O        2.28003801       5.32615244       1.32831357       11       0.01110919      -0.00274849      -0.00200976
O        3.53857452       2.37643139       1.32831357       12      -0.01110919      -0.00274849      -0.00200976
O        5.18934427       5.32615244       2.97557638       13       0.01110919      -0.00274849       0.00200976
O        5.18934427       3.52301069       5.63220352       14       0.01110919       0.00274849      -0.00200976
O        3.53857452       0.57328965       7.27946633       15      -0.01110919       0.00274849       0.00200976
O        5.54768747       4.42458157      -0.00000000       16      -0.00612443       0.00000000       0.00000000
O        3.18023133       1.47486052       4.30388995       17       0.00612443      -0.00000000       0.00000000
O        0.27092506       1.47486052      -0.00000000       18       0.00612443       0.00000000       0.00000000
O        2.63838120       4.42458157       4.30388995       19      -0.00612443       0.00000000       0.00000000
20
Lattice="5.81692056461491 -1.9371999960597507e-60 2.097965839606859e-43 1.7544948497447924e-60 5.897840370504427 2.0790944694785263e-17 -2.6652807532096713e-43 -6.234541964108056e-19 8.61262199318384" Properties=species:S:1:pos:R:3:spacegroup_kinds:I:1:forces:R:3 spacegroup="P 1" unit_cell=conventional occupancy="_JSON {\"0\": {\"In\": 1}, \"1\": {\"In\": 1}, \"2\": {\"In\": 1}, \"3\": {\"In\": 1}, \"4\": {\"In\": 1}, \"5\": {\"In\": 1}, \"6\": {\"In\": 1}, \"7\": {\"In\": 1}, \"8\": {\"O\": 1}, \"9\": {\"O\": 1}, \"10\": {\"O\": 1}, \"11\": {\"O\": 1}, \"12\": {\"O\": 1}, \"13\": {\"O\": 1}, \"14\": {\"O\": 1}, \"15\": {\"O\": 1}, \"16\": {\"O\": 1}, \"17\": {\"O\": 1}, \"18\": {\"O\": 1}, \"19\": {\"O\": 1}}" n_minim_iter=7 energy=-22573.263774723386 stress="0.08234645721221105 -3.9234268221117565e-13 2.6519978270923116e-13 -3.9234268221117565e-13 0.08238481899660248 3.9890327870046484e-13 2.6519978270923116e-13 3.9890327870046484e-13 0.08233396569580735" free_energy=-22573.263774723386 pbc="T T T"
In       1.43001620       3.11416797       1.01876407        0      -0.00715157       0.00271593      -0.00019325
In       1.47844409       0.16524778       3.28754692        1       0.00715157       0.00271593       0.00019325
In       1.47844409       2.78367240       5.32507507        2       0.00715157      -0.00271593      -0.00019325
In       1.43001620       5.73259259       7.59385792        3      -0.00715157      -0.00271593       0.00019325
In       4.38690437       2.78367240       7.59385792        4       0.00715157      -0.00271593       0.00019325
In       4.33847648       5.73259259       5.32507507        5      -0.00715157      -0.00271593      -0.00019325
In       4.33847648       3.11416797       3.28754692        6      -0.00715157       0.00271593       0.00019325
In       4.38690437       0.16524778       1.01876407        7       0.00715157       0.00271593      -0.00019325
O        2.27967030       3.52161001       7.28245468        8       0.01093147       0.00415471       0.00440022
O        0.62878998       0.57268983       5.63647831        9      -0.01093147       0.00415471      -0.00440022
O        0.62878998       2.37623036       2.97614369       10      -0.01093147      -0.00415471       0.00440022
O        2.27967030       5.32515054       1.33016731       11       0.01093147      -0.00415471      -0.00440022
O        3.53725026       2.37623036       1.33016731       12      -0.01093147      -0.00415471      -0.00440022
O        5.18813059       5.32515054       2.97614369       13       0.01093147      -0.00415471       0.00440022
O        5.18813059       3.52161001       5.63647831       14       0.01093147       0.00415471      -0.00440022
O        3.53725026       0.57268983       7.28245468       15      -0.01093147       0.00415471       0.00440022
O        5.54611637       4.42338028      -0.00000000       16      -0.00620296       0.00000000      -0.00000000
O        3.17926447       1.47446009       4.30631100       17       0.00620296       0.00000000       0.00000000
O        0.27080419       1.47446009      -0.00000000       18       0.00620296       0.00000000      -0.00000000
O        2.63765609       4.42338028       4.30631100       19      -0.00620296       0.00000000       0.00000000
20
Lattice="5.8151203985995 -1.9998193263580238e-60 2.0767873163333068e-43 1.747026624458064e-60 5.896576745377247 1.9041982414967282e-17 -2.696978679174892e-43 -3.176253912959484e-18 8.617134411548417" Properties=species:S:1:pos:R:3:spacegroup_kinds:I:1:forces:R:3 spacegroup="P 1" unit_cell=conventional occupancy="_JSON {\"0\": {\"In\": 1}, \"1\": {\"In\": 1}, \"2\": {\"In\": 1}, \"3\": {\"In\": 1}, \"4\": {\"In\": 1}, \"5\": {\"In\": 1}, \"6\": {\"In\": 1}, \"7\": {\"In\": 1}, \"8\": {\"O\": 1}, \"9\": {\"O\": 1}, \"10\": {\"O\": 1}, \"11\": {\"O\": 1}, \"12\": {\"O\": 1}, \"13\": {\"O\": 1}, \"14\": {\"O\": 1}, \"15\": {\"O\": 1}, \"16\": {\"O\": 1}, \"17\": {\"O\": 1}, \"18\": {\"O\": 1}, \"19\": {\"O\": 1}}" n_minim_iter=8 energy=-22573.26382988041 stress="0.08215062170335972 3.337718003966848e-13 5.694622542954579e-13 3.337718003966848e-13 0.08192030741937824 4.1305970018291914e-14 5.694622542954579e-13 4.1305970018291914e-14 0.08214556831157965" free_energy=-22573.26382988041 pbc="T T T"
In       1.42871714       3.11467864       1.02018567        0      -0.00369377      -0.00118658       0.00048457
In       1.47884306       0.16639026       3.28838153        1       0.00369377      -0.00118658      -0.00048457
In       1.47884306       2.78189811       5.32875288        2       0.00369377       0.00118658       0.00048457
In       1.42871714       5.73018648       7.59694874        3      -0.00369377       0.00118658      -0.00048457
In       4.38640325       2.78189811       7.59694874        4       0.00369377       0.00118658      -0.00048457
In       4.33627734       5.73018648       5.32875288        5      -0.00369377       0.00118658       0.00048457
In       4.33627734       3.11467864       3.28838153        6      -0.00369377      -0.00118658      -0.00048457
In       4.38640325       0.16639026       1.02018567        7       0.00369377      -0.00118658       0.00048457
O        2.27969240       3.52055959       7.28538264        8       0.00732152       0.00483389       0.00532648
O        0.62786780       0.57227122       5.64031898        9      -0.00732152       0.00483389      -0.00532648
O        0.62786780       2.37601715       2.97681544       10      -0.00732152      -0.00483389       0.00532648
O        2.27969240       5.32430552       1.33175177       11       0.00732152      -0.00483389      -0.00532648
O        3.53542800       2.37601715       1.33175177       12      -0.00732152      -0.00483389      -0.00532648
O        5.18725260       5.32430552       2.97681544       13       0.00732152      -0.00483389       0.00532648
O        5.18725260       3.52055959       5.64031898       14       0.00732152       0.00483389      -0.00532648
O        3.53542800       0.57227122       7.28538264       15      -0.00732152       0.00483389       0.00532648
O        5.54397902       4.42243256      -0.00000000       16      -0.00172754       0.00000000      -0.00000000
O        3.17870158       1.47414419       4.30856721       17       0.00172754      -0.00000000       0.00000000
O        0.27114138       1.47414419      -0.00000000       18       0.00172754      -0.00000000       0.00000000
O        2.63641882       4.42243256       4.30856721       19      -0.00172754       0.00000000       0.00000000
20
Lattice="5.815675558286821 -1.9609150189526853e-60 2.5036148695403485e-43 2.2005021568553035e-60 5.899112836304175 2.005331108881339e-17 -8.503149627723914e-44 -1.694930139353531e-18 8.612607583386072" Properties=species:S:1:pos:R:3:spacegroup_kinds:I:1:forces:R:3 spacegroup="P 1" unit_cell=conventional occupancy="_JSON {\"0\": {\"In\": 1}, \"1\": {\"In\": 1}, \"2\": {\"In\": 1}, \"3\": {\"In\": 1}, \"4\": {\"In\": 1}, \"5\": {\"In\": 1}, \"6\": {\"In\": 1}, \"7\": {\"In\": 1}, \"8\": {\"O\": 1}, \"9\": {\"O\": 1}, \"10\": {\"O\": 1}, \"11\": {\"O\": 1}, \"12\": {\"O\": 1}, \"13\": {\"O\": 1}, \"14\": {\"O\": 1}, \"15\": {\"O\": 1}, \"16\": {\"O\": 1}, \"17\": {\"O\": 1}, \"18\": {\"O\": 1}, \"19\": {\"O\": 1}}" n_minim_iter=9 energy=-22573.263933663202 stress="0.08220525572082268 1.8991115029706407e-13 -4.902580769500114e-13 1.8991115029706407e-13 0.0822780874707598 -7.937297665238552e-13 -4.902580769500114e-13 -7.937297665238552e-13 0.08229251640403705" free_energy=-22573.263933663202 pbc="T T T"
In       1.42820682       3.11584729       1.01937113        0       0.00161510       0.00018039       0.00311454
In       1.47963096       0.16629088       3.28693266        1      -0.00161510       0.00018039      -0.00311454
In       1.47963096       2.78326554       5.32567492        2      -0.00161510      -0.00018039       0.00311454
In       1.42820682       5.73282196       7.59323645        3       0.00161510      -0.00018039      -0.00311454
In       4.38746873       2.78326554       7.59323645        4      -0.00161510      -0.00018039      -0.00311454
In       4.33604460       5.73282196       5.32567492        5       0.00161510      -0.00018039       0.00311454
In       4.33604460       3.11584729       3.28693266        6       0.00161510       0.00018039      -0.00311454
In       4.38746873       0.16629088       1.01937113        7      -0.00161510       0.00018039       0.00311454
O        2.28105998       3.52302712       7.28283826        8       0.00058714      -0.00058082       0.00090492
O        0.62677780       0.57347070       5.63607311        9      -0.00058714      -0.00058082      -0.00090492
O        0.62677780       2.37608572       2.97653447       10      -0.00058714       0.00058082       0.00090492
O        2.28105998       5.32564214       1.32976932       11       0.00058714       0.00058082      -0.00090492
O        3.53461558       2.37608572       1.32976932       12      -0.00058714       0.00058082      -0.00090492
O        5.18889776       5.32564214       2.97653447       13       0.00058714       0.00058082       0.00090492
O        5.18889776       3.52302712       5.63607311       14       0.00058714      -0.00058082      -0.00090492
O        3.53461558       0.57347070       7.28283826       15      -0.00058714      -0.00058082       0.00090492
O        5.54434987       4.42433463      -0.00000000       16       0.00130877       0.00000000       0.00000000
O        3.17916347       1.47477821       4.30630379       17      -0.00130877       0.00000000       0.00000000
O        0.27132569       1.47477821      -0.00000000       18      -0.00130877       0.00000000      -0.00000000
O        2.63651209       4.42433463       4.30630379       19       0.00130877       0.00000000      -0.00000000
