20
Lattice="5.541405294200438 -4.778420661383821e-62 1.1273815521034557e-43 -2.844191203096587e-63 5.638905409745605 2.5298572327495283e-18 -1.6310399279032154e-43 -3.596787563008801e-18 8.017031389835775" Properties=species:S:1:pos:R:3:spacegroup_kinds:I:1:forces:R:3 spacegroup="P 1" unit_cell=conventional occupancy="_JSON {\"0\": {\"In\": 1}, \"1\": {\"In\": 1}, \"2\": {\"In\": 1}, \"3\": {\"In\": 1}, \"4\": {\"In\": 1}, \"5\": {\"In\": 1}, \"6\": {\"In\": 1}, \"7\": {\"In\": 1}, \"8\": {\"O\": 1}, \"9\": {\"O\": 1}, \"10\": {\"O\": 1}, \"11\": {\"O\": 1}, \"12\": {\"O\": 1}, \"13\": {\"O\": 1}, \"14\": {\"O\": 1}, \"15\": {\"O\": 1}, \"16\": {\"O\": 1}, \"17\": {\"O\": 1}, \"18\": {\"O\": 1}, \"19\": {\"O\": 1}}" n_minim_iter=1 energy=-22574.898053562083 stress="-0.019168025377913143 3.111646130081303e-13 3.6312754685672194e-13 3.111646130081303e-13 -0.020159289501545302 4.589333716356483e-13 3.6312754685672194e-13 4.589333716356483e-13 -0.014373784338064357" free_energy=-22574.898053562083 pbc="T T T"
In       1.37483554       2.98001144       0.91919686        0       0.01474293       0.06642989      -0.00815286
In       1.39586711       0.16055873       3.08931884        1      -0.01474293       0.06642989       0.00815286
In       1.39586711       2.65889397       4.92771255        2      -0.01474293      -0.06642989      -0.00815286
In       1.37483554       5.47834668       7.09783453        3       0.01474293      -0.06642989       0.00815286
In       4.16656975       2.65889397       7.09783453        4      -0.01474293      -0.06642989       0.00815286
In       4.14553819       5.47834668       4.92771255        5       0.01474293      -0.06642989      -0.00815286
In       4.14553819       2.98001144       3.08931884        6       0.01474293       0.06642989       0.00815286
In       4.16656975       0.16055873       0.91919686        7      -0.01474293       0.06642989      -0.00815286
O        2.16189266       3.40654337       6.80828964        8      -0.03314130       0.03013094       0.03571395
O        0.60880999       0.58709067       5.21725744        9       0.03314130       0.03013094      -0.03571395
O        0.60880999       2.23236204       2.79977395       10       0.03314130      -0.03013094       0.03571395
O        2.16189266       5.05181474       1.20874175       11      -0.03314130      -0.03013094      -0.03571395
O        3.37951263       2.23236204       1.20874175       12       0.03314130      -0.03013094      -0.03571395
O        4.93259531       5.05181474       2.79977395       13      -0.03314130      -0.03013094       0.03571395
O        4.93259531       3.40654337       5.21725744       14      -0.03314130       0.03013094      -0.03571395
O        3.37951263       0.58709067       6.80828964       15       0.03314130       0.03013094       0.03571395
O        5.30881586       4.22917906      -0.00000000       16       0.03356537      -0.00000000       0.00000000
O        3.00329208       1.40972635       4.00851569       17      -0.03356537       0.00000000      -0.00000000
O        0.23258944       1.40972635      -0.00000000       18      -0.03356537       0.00000000       0.00000000
O        2.53811321       4.22917906       4.00851569       19       0.03356537       0.00000000      -0.00000000
20
Lattice="5.5529925067905515 1.1433294918376522e-60 1.140251627230766e-43 2.12195597915296e-60 5.659933882899867 -4.1877002039301527e-17 -1.6064176663762242e-43 -6.602300939935111e-17 7.9705788686786025" Properties=species:S:1:pos:R:3:spacegroup_kinds:I:1:forces:R:3 spacegroup="P 1" unit_cell=conventional occupancy="_JSON {\"0\": {\"In\": 1}, \"1\": {\"In\": 1}, \"2\": {\"In\": 1}, \"3\": {\"In\": 1}, \"4\": {\"In\": 1}, \"5\": {\"In\": 1}, \"6\": {\"In\": 1}, \"7\": {\"In\": 1}, \"8\": {\"O\": 1}, \"9\": {\"O\": 1}, \"10\": {\"O\": 1}, \"11\": {\"O\": 1}, \"12\": {\"O\": 1}, \"13\": {\"O\": 1}, \"14\": {\"O\": 1}, \"15\": {\"O\": 1}, \"16\": {\"O\": 1}, \"17\": {\"O\": 1}, \"18\": {\"O\": 1}, \"19\": {\"O\": 1}}" n_minim_iter=2 energy=-22574.90245855642 stress="-0.01603246153449329 -1.9560586658557282e-13 2.687606794359461e-13 -1.9560586658557282e-13 -0.016288995910824246 4.084159641659327e-13 2.687606794359461e-13 4.084159641659327e-13 -0.01639689423000288" free_energy=-22574.90245855642 pbc="T T T"
In       1.37780753       2.99156301       0.91381750        0       0.04984622       0.08333598      -0.04491181
In       1.39868872       0.16159607       3.07147193        1      -0.04984622       0.08333598       0.04491181
In       1.39868872       2.66837087       4.89910694        2      -0.04984622      -0.08333598      -0.04491181
In       1.37780753       5.49833781       7.05676136        3       0.04984622      -0.08333598       0.04491181
In       4.17518497       2.66837087       7.05676136        4      -0.04984622      -0.08333598       0.04491181
In       4.15430379       5.49833781       4.89910694        5       0.04984622      -0.08333598      -0.04491181
In       4.15430379       2.99156301       3.07147193        6       0.04984622       0.08333598       0.04491181
In       4.17518497       0.16159607       0.91381750        7      -0.04984622       0.08333598      -0.04491181
O        2.16619478       3.41944591       6.76907441        8      -0.01054893       0.03551862       0.06639404
O        0.61030147       0.58947896       5.18679390        9       0.01054893       0.03551861      -0.06639404
O        0.61030147       2.24048798       2.78378497       10       0.01054893      -0.03551862       0.06639404
O        2.16619478       5.07045492       1.20150446       11      -0.01054893      -0.03551861      -0.06639404
O        3.38679773       2.24048798       1.20150446       12       0.01054893      -0.03551861      -0.06639404
O        4.94269103       5.07045492       2.78378497       13      -0.01054893      -0.03551862       0.06639404
O        4.94269103       3.41944591       5.18679390       14      -0.01054893       0.03551862      -0.06639404
O        3.38679773       0.58947896       6.76907441       15       0.01054893       0.03551861       0.06639404
O        5.32013796       4.24495041      -0.00000000       16       0.02787220      -0.00000000      -0.00000000
O        3.00935080       1.41498347       3.98528943       17      -0.02787220       0.00000000      -0.00000000
O        0.23285454       1.41498347      -0.00000000       18      -0.02787220       0.00000000      -0.00000000
O        2.54364171       4.24495041       3.98528943       19       0.02787220       0.00000000       0.00000000
20
Lattice="5.547867071643852 2.2383478104410254e-60 1.2558555650235908e-43 3.892235729360621e-60 5.677482238589872 -5.280843410318125e-17 -2.3239769141977803e-43 -8.192651238753314e-17 7.953283764904136" Properties=species:S:1:pos:R:3:spacegroup_kinds:I:1:forces:R:3 spacegroup="P 1" unit_cell=conventional occupancy="_JSON {\"0\": {\"In\": 1}, \"1\": {\"In\": 1}, \"2\": {\"In\": 1}, \"3\": {\"In\": 1}, \"4\": {\"In\": 1}, \"5\": {\"In\": 1}, \"6\": {\"In\": 1}, \"7\": {\"In\": 1}, \"8\": {\"O\": 1}, \"9\": {\"O\": 1}, \"10\": {\"O\": 1}, \"11\": {\"O\": 1}, \"12\": {\"O\": 1}, \"13\": {\"O\": 1}, \"14\": {\"O\": 1}, \"15\": {\"O\": 1}, \"16\": {\"O\": 1}, \"17\": {\"O\": 1}, \"18\": {\"O\": 1}, \"19\": {\"O\": 1}}" n_minim_iter=3 energy=-22574.905826290837 stress="-0.01590875613241283 4.719638242605601e-13 8.285965935901743e-14 4.719638242605601e-13 -0.01389576742040643 -3.6895505634139457e-13 8.285965935901743e-14 -3.6895505634139457e-13 -0.015624389428162976" free_energy=-22574.905826290837 pbc="T T T"
In       1.37886405       3.00494738       0.90979467        0       0.00272249       0.02677560      -0.01321866
In       1.39506948       0.16620626       3.06684721        1      -0.00272249       0.02677560       0.01321866
In       1.39506948       2.67253486       4.88643655        2      -0.00272249      -0.02677560      -0.01321866
In       1.37886405       5.51127598       7.04348910        3       0.00272249      -0.02677560       0.01321866
In       4.16900302       2.67253486       7.04348910        4      -0.00272249      -0.02677560       0.01321866
In       4.15279759       5.51127598       4.88643655        5       0.00272249      -0.02677560      -0.01321866
In       4.15279759       3.00494738       3.06684721        6       0.00272249       0.02677560       0.01321866
In       4.16900302       0.16620626       0.90979467        7      -0.00272249       0.02677560      -0.01321866
O        2.16356805       3.43180730       6.75750726        8      -0.00930862       0.00971989       0.00712092
O        0.61036549       0.59306618       5.17241839        9       0.00930862       0.00971989      -0.00712092
O        0.61036549       2.24567494       2.78086538       10       0.00930862      -0.00971989       0.00712092
O        2.16356805       5.08441606       1.19577651       11      -0.00930862      -0.00971989      -0.00712092
O        3.38429902       2.24567494       1.19577651       12       0.00930862      -0.00971989      -0.00712092
O        4.93750158       5.08441606       2.78086538       13      -0.00930862      -0.00971989       0.00712092
O        4.93750158       3.43180730       5.17241839       14      -0.00930862       0.00971989      -0.00712092
O        3.38429902       0.59306618       6.75750726       15       0.00930862       0.00971989       0.00712092
O        5.31664285       4.25811168      -0.00000000       16      -0.02869536       0.00000000      -0.00000000
O        3.00515775       1.41937056       3.97664188       17       0.02869536      -0.00000000      -0.00000000
O        0.23122422       1.41937056      -0.00000000       18       0.02869536      -0.00000000       0.00000000
O        2.54270932       4.25811168       3.97664188       19      -0.02869536       0.00000000      -0.00000000
20
Lattice="5.554868171057705 3.5704629738019645e-60 1.262120040155083e-43 5.614432363461467e-60 5.670666207175122 -7.394071756881778e-17 -2.196554542321365e-43 -1.1185439583059962e-16 7.952807458292887" Properties=species:S:1:pos:R:3:spacegroup_kinds:I:1:forces:R:3 spacegroup="P 1" unit_cell=conventional occupancy="_JSON {\"0\": {\"In\": 1}, \"1\": {\"In\": 1}, \"2\": {\"In\": 1}, \"3\": {\"In\": 1}, \"4\": {\"In\": 1}, \"5\": {\"In\": 1}, \"6\": {\"In\": 1}, \"7\": {\"In\": 1}, \"8\": {\"O\": 1}, \"9\": {\"O\": 1}, \"10\": {\"O\": 1}, \"11\": {\"O\": 1}, \"12\": {\"O\": 1}, \"13\": {\"O\": 1}, \"14\": {\"O\": 1}, \"15\": {\"O\": 1}, \"16\": {\"O\": 1}, \"17\": {\"O\": 1}, \"18\": {\"O\": 1}, \"19\": {\"O\": 1}}" n_minim_iter=4 energy=-22574.90624163125 stress="-0.014757370186541552 7.005606120979152e-13 -5.4037535963165444e-14 7.005606120979152e-13 -0.014900237241415745 3.9677712363035315e-13 -5.4037535963165444e-14 3.9677712363035315e-13 -0.01546689672286679" free_energy=-22574.90624163125 pbc="T T T"
In       1.38085793       3.00194631       0.90945771        0       0.00688942       0.00738847      -0.00019980
In       1.39657616       0.16661320       3.06694602        1      -0.00688942       0.00738847       0.00019980
In       1.39657616       2.66871990       4.88586144        2      -0.00688942      -0.00738847      -0.00019980
In       1.38085793       5.50405300       7.04334975        3       0.00688942      -0.00738847       0.00019980
In       4.17401024       2.66871990       7.04334975        4      -0.00688942      -0.00738847       0.00019980
In       4.15829202       5.50405300       4.88586144        5       0.00688942      -0.00738847      -0.00019980
In       4.15829202       3.00194631       3.06694602        6       0.00688942       0.00738847       0.00019980
In       4.17401024       0.16661320       0.90945771        7      -0.00688942       0.00738847      -0.00019980
O        2.16615968       3.42793751       6.75747246        8      -0.00503956      -0.00031143      -0.00051344
O        0.61127440       0.59260440       5.17173873        9       0.00503956      -0.00031143       0.00051344
O        0.61127440       2.24272870       2.78106873       10       0.00503956       0.00031143      -0.00051344
O        2.16615968       5.07806180       1.19533500       11      -0.00503956       0.00031143       0.00051344
O        3.38870849       2.24272870       1.19533500       12       0.00503956       0.00031143       0.00051344
O        4.94359377       5.07806180       2.78106873       13      -0.00503956       0.00031143      -0.00051344
O        4.94359377       3.42793751       5.17173873       14      -0.00503956      -0.00031143       0.00051344
O        3.38870849       0.59260440       6.75747246       15       0.00503956      -0.00031143      -0.00051344
O        5.32334021       4.25299966      -0.00000000       16      -0.02675560      -0.00000000      -0.00000000
O        3.00896205       1.41766655       3.97640373       17       0.02675560       0.00000000       0.00000000
O        0.23152796       1.41766655      -0.00000000       18       0.02675560       0.00000000      -0.00000000
O        2.54590613       4.25299966       3.97640373       19      -0.02675560      -0.00000000       0.00000000
20
Lattice="5.552539130855659 4.165529504541296e-60 1.2410922281671258e-43 6.51481256673631e-60 5.669092148359588 -8.814847122358442e-17 -2.176706476167504e-43 -1.319301124715398e-16 7.958352375845393" Properties=species:S:1:pos:R:3:spacegroup_kinds:I:1:forces:R:3 spacegroup="P 1" unit_cell=conventional occupancy="_JSON {\"0\": {\"In\": 1}, \"1\": {\"In\": 1}, \"2\": {\"In\": 1}, \"3\": {\"In\": 1}, \"4\": {\"In\": 1}, \"5\": {\"In\": 1}, \"6\": {\"In\": 1}, \"7\": {\"In\": 1}, \"8\": {\"O\": 1}, \"9\": {\"O\": 1}, \"10\": {\"O\": 1}, \"11\": {\"O\": 1}, \"12\": {\"O\": 1}, \"13\": {\"O\": 1}, \"14\": {\"O\": 1}, \"15\": {\"O\": 1}, \"16\": {\"O\": 1}, \"17\": {\"O\": 1}, \"18\": {\"O\": 1}, \"19\": {\"O\": 1}}" n_minim_iter=5 energy=-22574.90633974957 stress="-0.015222554258701265 7.8123078158302e-13 1.9874932201838154e-13 7.8123078158302e-13 -0.015273033014704706 -8.101257012743529e-13 1.9874932201838154e-13 -8.101257012743529e-13 -0.01505800794999502" free_energy=-22574.90633974957 pbc="T T T"
In       1.38035617       3.00125361       0.91010138        0       0.00101515       0.00478598       0.00331783
In       1.39591340       0.16670754       3.06907481        1      -0.00101515       0.00478598      -0.00331783
In       1.39591340       2.66783854       4.88927757        2      -0.00101515      -0.00478598       0.00331783
In       1.38035617       5.50238461       7.04825100        3       0.00101515      -0.00478598      -0.00331783
In       4.17218296       2.66783854       7.04825100        4      -0.00101515      -0.00478598      -0.00331783
In       4.15662573       5.50238461       4.88927757        5       0.00101515      -0.00478598       0.00331783
In       4.15662573       3.00125361       3.06907481        6       0.00101515       0.00478598      -0.00331783
In       4.17218296       0.16670754       0.91010138        7      -0.00101515       0.00478598       0.00331783
O        2.16514171       3.42699580       6.76216917        8      -0.00741125      -0.00117903      -0.00418884
O        0.61112785       0.59244972       5.17535940        9       0.00741125      -0.00117903       0.00418884
O        0.61112785       2.24209635       2.78299298       10       0.00741125       0.00117903      -0.00418884
O        2.16514171       5.07664243       1.19618321       11      -0.00741125       0.00117903       0.00418884
O        3.38739742       2.24209635       1.19618321       12       0.00741125       0.00117903       0.00418884
O        4.94141128       5.07664243       2.78299298       13      -0.00741125       0.00117903      -0.00418884
O        4.94141128       3.42699580       5.17535940       14      -0.00741125      -0.00117903       0.00418884
O        3.38739742       0.59244972       6.76216917       15       0.00741125      -0.00117903      -0.00418884
O        5.32070341       4.25181911      -0.00000000       16      -0.02538256       0.00000000      -0.00000000
O        3.00810529       1.41727304       3.97917619       17       0.02538256      -0.00000000      -0.00000000
O        0.23183572       1.41727304      -0.00000000       18       0.02538256       0.00000000       0.00000000
O        2.54443384       4.25181911       3.97917619       19      -0.02538256       0.00000000       0.00000000
20
Lattice="5.549788898840472 4.942182573784452e-60 1.5777891612753398e-43 7.167507443514629e-60 5.670026567500766 -1.088034356934835e-16 -1.5271912075545167e-43 -1.6127631069374097e-16 7.960984001627996" Properties=species:S:1:pos:R:3:spacegroup_kinds:I:1:forces:R:3 spacegroup="P 1" unit_cell=conventional occupancy="_JSON {\"0\": {\"In\": 1}, \"1\": {\"In\": 1}, \"2\": {\"In\": 1}, \"3\": {\"In\": 1}, \"4\": {\"In\": 1}, \"5\": {\"In\": 1}, \"6\": {\"In\": 1}, \"7\": {\"In\": 1}, \"8\": {\"O\": 1}, \"9\": {\"O\": 1}, \"10\": {\"O\": 1}, \"11\": {\"O\": 1}, \"12\": {\"O\": 1}, \"13\": {\"O\": 1}, \"14\": {\"O\": 1}, \"15\": {\"O\": 1}, \"16\": {\"O\": 1}, \"17\": {\"O\": 1}, \"18\": {\"O\": 1}, \"19\": {\"O\": 1}}" n_minim_iter=6 energy=-22574.90657207319 stress="-0.015416160217256312 -3.5657970273038765e-13 -6.354663778185245e-13 -3.5657970273038765e-13 -0.01537146817955806 -8.334831550702229e-13 -6.354663778185245e-13 -8.334831550702229e-13 -0.014794301596313507" free_energy=-22574.90657207319 pbc="T T T"
In       1.38010489       3.00272553       0.91050394        0      -0.00525012       0.00154479       0.00415559
In       1.39478956       0.16771224       3.06998806        1       0.00525012       0.00154479      -0.00415559
In       1.39478956       2.66730104       4.89099594        2       0.00525012      -0.00154479       0.00415559
In       1.38010489       5.50231433       7.05048006        3      -0.00525012      -0.00154479      -0.00415559
In       4.16968401       2.66730104       7.05048006        4       0.00525012      -0.00154479      -0.00415559
In       4.15499934       5.50231433       4.89099594        5      -0.00525012      -0.00154479       0.00415559
In       4.15499934       3.00272553       3.06998806        6      -0.00525012       0.00154479      -0.00415559
In       4.16968401       0.16771224       0.91050394        7       0.00525012       0.00154479       0.00415559
O        2.16322116       3.42760193       6.76426585        8      -0.00492002      -0.00364120      -0.00459162
O        0.61167329       0.59258865       5.17721015        9       0.00492002      -0.00364120       0.00459162
O        0.61167329       2.24242464       2.78377385       10       0.00492002       0.00364120      -0.00459162
O        2.16322116       5.07743792       1.19671815       11      -0.00492002       0.00364120       0.00459162
O        3.38656773       2.24242464       1.19671815       12       0.00492002       0.00364120       0.00459162
O        4.93811561       5.07743792       2.78377385       13      -0.00492002       0.00364120      -0.00459162
O        4.93811561       3.42760193       5.17721015       14      -0.00492002      -0.00364120       0.00459162
O        3.38656773       0.59258865       6.76426585       15       0.00492002      -0.00364120      -0.00459162
O        5.31517508       4.25251993      -0.00000000       16      -0.00892858      -0.00000000      -0.00000000
O        3.00950827       1.41750664       3.98049200       17       0.00892858      -0.00000000      -0.00000000
O        0.23461382       1.41750664      -0.00000000       18       0.00892858       0.00000000       0.00000000
O        2.54028063       4.25251993       3.98049200       19      -0.00892858      -0.00000000      -0.00000000
