20
Lattice="5.549788898840472 4.942182573784452e-60 1.5777891612753398e-43 7.167507443514629e-60 5.670026567500766 -1.088034356934835e-16 -1.5271912075545167e-43 -1.6127631069374097e-16 7.960984001627996" Properties=species:S:1:pos:R:3:spacegroup_kinds:I:1:forces:R:3 spacegroup="P 1" unit_cell=conventional occupancy="_JSON {\"0\": {\"In\": 1}, \"1\": {\"In\": 1}, \"2\": {\"In\": 1}, \"3\": {\"In\": 1}, \"4\": {\"In\": 1}, \"5\": {\"In\": 1}, \"6\": {\"In\": 1}, \"7\": {\"In\": 1}, \"8\": {\"O\": 1}, \"9\": {\"O\": 1}, \"10\": {\"O\": 1}, \"11\": {\"O\": 1}, \"12\": {\"O\": 1}, \"13\": {\"O\": 1}, \"14\": {\"O\": 1}, \"15\": {\"O\": 1}, \"16\": {\"O\": 1}, \"17\": {\"O\": 1}, \"18\": {\"O\": 1}, \"19\": {\"O\": 1}}" n_minim_iter=6 energy=-22574.90657207319 stress="-0.015416160217256312 -3.5657970273038765e-13 -6.354663778185245e-13 -3.5657970273038765e-13 -0.01537146817955806 -8.334831550702229e-13 -6.354663778185245e-13 -8.334831550702229e-13 -0.014794301596313507" free_energy=-22574.90657207319 pbc="T T T"
In       1.38010489       3.00272553       0.91050394        0      -0.00525012       0.00154479       0.00415559
In       1.39478956       0.16771224       3.06998806        1       0.00525012       0.00154479      -0.00415559
In       1.39478956       2.66730104       4.89099594        2       0.00525012      -0.00154479       0.00415559
In       1.38010489       5.50231433       7.05048006        3      -0.00525012      -0.00154479      -0.00415559
In       4.16968401       2.66730104       7.05048006        4       0.00525012      -0.00154479      -0.00415559
In       4.15499934       5.50231433       4.89099594        5      -0.00525012      -0.00154479       0.00415559
In       4.15499934       3.00272553       3.06998806        6      -0.00525012       0.00154479      -0.00415559
In       4.16968401       0.16771224       0.91050394        7       0.00525012       0.00154479       0.00415559
O        2.16322116       3.42760193       6.76426585        8      -0.00492002      -0.00364120      -0.00459162
O        0.61167329       0.59258865       5.17721015        9       0.00492002      -0.00364120       0.00459162
O        0.61167329       2.24242464       2.78377385       10       0.00492002       0.00364120      -0.00459162
O        2.16322116       5.07743792       1.19671815       11      -0.00492002       0.00364120       0.00459162
O        3.38656773       2.24242464       1.19671815       12       0.00492002       0.00364120       0.00459162
O        4.93811561       5.07743792       2.78377385       13      -0.00492002       0.00364120      -0.00459162
O        4.93811561       3.42760193       5.17721015       14      -0.00492002      -0.00364120       0.00459162
O        3.38656773       0.59258865       6.76426585       15       0.00492002      -0.00364120      -0.00459162
O        5.31517508       4.25251993      -0.00000000       16      -0.00892858      -0.00000000      -0.00000000
O        3.00950827       1.41750664       3.98049200       17       0.00892858      -0.00000000      -0.00000000
O        0.23461382       1.41750664      -0.00000000       18       0.00892858       0.00000000       0.00000000
O        2.54028063       4.25251993       3.98049200       19      -0.00892858      -0.00000000      -0.00000000
