20
Lattice="5.31679692925715 1.6439083112627062e-58 -3.5188807622961995e-43 -1.143099036788615e-58 5.162327765534761 -5.7077680751499336e-18 5.652752993302585e-43 5.55710639069922e-16 7.020843756178639" Properties=species:S:1:pos:R:3:spacegroup_kinds:I:1:forces:R:3 spacegroup="P 1" unit_cell=conventional occupancy="_JSON {\"0\": {\"In\": 1}, \"1\": {\"In\": 1}, \"2\": {\"In\": 1}, \"3\": {\"In\": 1}, \"4\": {\"In\": 1}, \"5\": {\"In\": 1}, \"6\": {\"In\": 1}, \"7\": {\"In\": 1}, \"8\": {\"O\": 1}, \"9\": {\"O\": 1}, \"10\": {\"O\": 1}, \"11\": {\"O\": 1}, \"12\": {\"O\": 1}, \"13\": {\"O\": 1}, \"14\": {\"O\": 1}, \"15\": {\"O\": 1}, \"16\": {\"O\": 1}, \"17\": {\"O\": 1}, \"18\": {\"O\": 1}, \"19\": {\"O\": 1}}" n_minim_iter=13 energy=-22563.877577228657 stress="-0.5301681297425702 -7.330129938657578e-13 4.738514468058397e-13 -7.330129938657578e-13 -0.5302924765858031 3.6353512015168597e-13 4.738514468058397e-13 3.6353512015168597e-13 -0.530279265941805" free_energy=-22563.877577228657 pbc="T T T"
In       1.30149394       2.79575219       0.81467471        0       0.00149547      -0.00181240      -0.00326075
In       1.35690453       0.21458830       2.69574717        1      -0.00149547      -0.00181240       0.00326075
In       1.35690453       2.36657558       4.32509659        2      -0.00149547       0.00181240      -0.00326075
In       1.30149394       4.94773946       6.20616905        3       0.00149547       0.00181240       0.00326075
In       4.01530299       2.36657558       6.20616905        4      -0.00149547       0.00181240       0.00326075
In       3.95989240       4.94773946       4.32509659        5       0.00149547       0.00181240      -0.00326075
In       3.95989240       2.79575219       2.69574717        6       0.00149547      -0.00181240       0.00326075
In       4.01530299       0.21458830       0.81467471        7      -0.00149547      -0.00181240      -0.00326075
O        2.15578833       3.13183419       5.98289395        8      -0.00483361       0.00324073      -0.00205108
O        0.50261014       0.55067031       4.54837169        9       0.00483361       0.00324073       0.00205108
O        0.50261014       2.03049357       2.47247207       10       0.00483361      -0.00324073      -0.00205108
O        2.15578833       4.61165746       1.03794981       11      -0.00483361      -0.00324073       0.00205108
O        3.16100860       2.03049357       1.03794981       12       0.00483361      -0.00324073       0.00205108
O        4.81418679       4.61165746       2.47247207       13      -0.00483361      -0.00324073      -0.00205108
O        4.81418679       3.13183419       4.54837169       14      -0.00483361       0.00324073       0.00205108
O        3.16100860       0.55067031       5.98289395       15       0.00483361       0.00324073      -0.00205108
O        5.06548483       3.87174582       0.00000000       16      -0.00985117      -0.00000000      -0.00000000
O        2.90971056       1.29058194       3.51042188       17       0.00985117       0.00000000       0.00000000
O        0.25131210       1.29058194       0.00000000       18       0.00985117       0.00000000      -0.00000000
O        2.40708637       3.87174582       3.51042188       19      -0.00985117       0.00000000       0.00000000
