20
Lattice="5.424696529203997 1.955628253931404e-59 -3.661473444639584e-44 -1.8046218859832879e-59 5.5372808011615255 2.8385750135806295e-16 5.196065874472196e-44 -3.9463721293420837e-16 7.69828893775829" Properties=species:S:1:pos:R:3:spacegroup_kinds:I:1:forces:R:3 spacegroup="P 1" unit_cell=conventional occupancy="_JSON {\"0\": {\"In\": 1}, \"1\": {\"In\": 1}, \"2\": {\"In\": 1}, \"3\": {\"In\": 1}, \"4\": {\"In\": 1}, \"5\": {\"In\": 1}, \"6\": {\"In\": 1}, \"7\": {\"In\": 1}, \"8\": {\"O\": 1}, \"9\": {\"O\": 1}, \"10\": {\"O\": 1}, \"11\": {\"O\": 1}, \"12\": {\"O\": 1}, \"13\": {\"O\": 1}, \"14\": {\"O\": 1}, \"15\": {\"O\": 1}, \"16\": {\"O\": 1}, \"17\": {\"O\": 1}, \"18\": {\"O\": 1}, \"19\": {\"O\": 1}}" n_minim_iter=1 energy=-22574.06012817997 stress="-0.0859688116142518 2.4144812448864176e-13 5.676558554620041e-13 2.4144812448864176e-13 -0.07990437898156617 2.427435263008374e-13 5.676558554620041e-13 2.427435263008374e-13 -0.0802929084173227" free_energy=-22574.06012817997 pbc="T T T"
In       1.35035331       2.94238946       0.89744104        0       0.05180804       0.01352176       0.09356075
In       1.36199495       0.17374906       2.95170343        1      -0.05180804       0.01352176      -0.09356075
In       1.36199495       2.59489134       4.74658551        2      -0.05180804      -0.01352176       0.09356075
In       1.35035331       5.36353174       6.80084790        3       0.05180804      -0.01352176      -0.09356075
In       4.07434322       2.59489134       6.80084790        4      -0.05180804      -0.01352176      -0.09356075
In       4.06270158       5.36353174       4.74658551        5       0.05180804      -0.01352176       0.09356075
In       4.06270158       2.94238946       2.95170343        6       0.05180804       0.01352176      -0.09356075
In       4.07434322       0.17374906       0.89744104        7      -0.05180804       0.01352176       0.09356075
O        2.10877300       3.34322002       6.55945903        8      -0.04166197       0.01909876       0.09378072
O        0.60357527       0.57457962       4.98797438        9       0.04166197       0.01909876      -0.09378072
O        0.60357527       2.19406078       2.71031456       10       0.04166197      -0.01909876       0.09378072
O        2.10877300       4.96270118       1.13882991       11      -0.04166197      -0.01909876      -0.09378072
O        3.31592353       2.19406078       1.13882991       12       0.04166197      -0.01909876      -0.09378072
O        4.82112126       4.96270118       2.71031456       13      -0.04166197      -0.01909876       0.09378072
O        4.82112126       3.34322002       4.98797438       14      -0.04166197       0.01909876      -0.09378072
O        3.31592353       0.57457962       6.55945903       15       0.04166197       0.01909876       0.09378072
O        5.19600175       4.15296060       0.00000000       16       0.05109685      -0.00000000       0.00000000
O        2.94104304       1.38432020       3.84914447       17      -0.05109685      -0.00000000      -0.00000000
O        0.22869478       1.38432020       0.00000000       18      -0.05109685      -0.00000000      -0.00000000
O        2.48365349       4.15296060       3.84914447       19       0.05109685      -0.00000000      -0.00000000
20
Lattice="5.444155396828523 1.977977943156982e-59 -3.684548412582708e-44 -1.7794357144842997e-59 5.526393701516659 2.9301101463287386e-16 5.173656860998034e-44 -3.8049431743333766e-16 7.685884761528947" Properties=species:S:1:pos:R:3:spacegroup_kinds:I:1:forces:R:3 spacegroup="P 1" unit_cell=conventional occupancy="_JSON {\"0\": {\"In\": 1}, \"1\": {\"In\": 1}, \"2\": {\"In\": 1}, \"3\": {\"In\": 1}, \"4\": {\"In\": 1}, \"5\": {\"In\": 1}, \"6\": {\"In\": 1}, \"7\": {\"In\": 1}, \"8\": {\"O\": 1}, \"9\": {\"O\": 1}, \"10\": {\"O\": 1}, \"11\": {\"O\": 1}, \"12\": {\"O\": 1}, \"13\": {\"O\": 1}, \"14\": {\"O\": 1}, \"15\": {\"O\": 1}, \"16\": {\"O\": 1}, \"17\": {\"O\": 1}, \"18\": {\"O\": 1}, \"19\": {\"O\": 1}}" n_minim_iter=2 energy=-22574.062929157073 stress="-0.08025030105880093 5.242310776783462e-14 5.006804475428124e-13 5.242310776783462e-14 -0.0808620908274087 9.62939883870273e-13 5.006804475428124e-13 9.62939883870273e-13 -0.08166534314974386" free_energy=-22574.062929157073 pbc="T T T"
In       1.35540288       2.93665769       0.89636460        0       0.08356361      -0.02188843       0.09975483
In       1.36667482       0.17346084       2.94657778        1      -0.08356361      -0.02188843      -0.09975483
In       1.36667482       2.58973601       4.73930698        2      -0.08356361       0.02188843       0.09975483
In       1.35540288       5.35293286       6.78952016        3       0.08356361       0.02188843      -0.09975483
In       4.08875252       2.58973601       6.78952016        4      -0.08356361       0.02188843      -0.09975483
In       4.07748057       5.35293286       4.73930698        5       0.08356361       0.02188843       0.09975483
In       4.07748057       2.93665769       2.94657778        6       0.08356361      -0.02188843      -0.09975483
In       4.08875252       0.17346084       0.89636460        7      -0.08356361      -0.02188843       0.09975483
O        2.11617191       3.33672218       6.54926030        8      -0.00005751       0.00263243       0.10384229
O        0.60590578       0.57352533       4.97956684        9       0.00005751       0.00263243      -0.10384229
O        0.60590578       2.18967152       2.70631792       10       0.00005751      -0.00263243       0.10384229
O        2.11617191       4.95286837       1.13662446       11      -0.00005751      -0.00263243      -0.10384229
O        3.32798348       2.18967152       1.13662446       12       0.00005751      -0.00263243      -0.10384229
O        4.83824961       4.95286837       2.70631792       13      -0.00005751      -0.00263243       0.10384229
O        4.83824961       3.33672218       4.97956684       14      -0.00005751       0.00263243      -0.10384229
O        3.32798348       0.57352533       6.54926030       15       0.00005751       0.00263243       0.10384229
O        5.21484317       4.14479528       0.00000000       16       0.06782062      -0.00000000      -0.00000000
O        2.95138992       1.38159843       3.84294238       17      -0.06782062      -0.00000000      -0.00000000
O        0.22931222       1.38159843       0.00000000       18      -0.06782062      -0.00000000       0.00000000
O        2.49276547       4.14479528       3.84294238       19       0.06782062       0.00000000      -0.00000000
20
Lattice="5.450264386884415 2.3508369427221714e-59 2.1445064620398281e-44 -1.494437037163234e-59 5.5050640219331335 3.029800661293797e-16 1.1815205403213118e-43 -3.663163438214203e-16 7.707015964660439" Properties=species:S:1:pos:R:3:spacegroup_kinds:I:1:forces:R:3 spacegroup="P 1" unit_cell=conventional occupancy="_JSON {\"0\": {\"In\": 1}, \"1\": {\"In\": 1}, \"2\": {\"In\": 1}, \"3\": {\"In\": 1}, \"4\": {\"In\": 1}, \"5\": {\"In\": 1}, \"6\": {\"In\": 1}, \"7\": {\"In\": 1}, \"8\": {\"O\": 1}, \"9\": {\"O\": 1}, \"10\": {\"O\": 1}, \"11\": {\"O\": 1}, \"12\": {\"O\": 1}, \"13\": {\"O\": 1}, \"14\": {\"O\": 1}, \"15\": {\"O\": 1}, \"16\": {\"O\": 1}, \"17\": {\"O\": 1}, \"18\": {\"O\": 1}, \"19\": {\"O\": 1}}" n_minim_iter=3 energy=-22574.067659848984 stress="-0.07915838581286055 -3.2847653370678054e-13 -1.3563955764252328e-13 -3.2847653370678054e-13 -0.08268487765003095 6.049633271765595e-13 -1.3563955764252328e-13 6.049633271765595e-13 -0.07572159952158801" free_energy=-22574.067659848984 pbc="T T T"
In       1.36000046       2.92471341       0.90268837        0      -0.01026579      -0.07786526       0.10358186
In       1.36513174       0.17218140       2.95081962        1       0.01026579      -0.07786526      -0.10358186
In       1.36513174       2.58035061       4.75619635        2       0.01026579       0.07786526       0.10358186
In       1.36000046       5.33288262       6.80432760        3      -0.01026579       0.07786526      -0.10358186
In       4.09026393       2.58035061       6.80432760        4       0.01026579       0.07786526      -0.10358186
In       4.08513265       5.33288262       4.75619635        5      -0.01026579       0.07786526       0.10358186
In       4.08513265       2.92471341       2.95081962        6      -0.01026579      -0.07786526      -0.10358186
In       4.09026393       0.17218140       0.90268837        7       0.01026579      -0.07786526       0.10358186
O        2.11825933       3.32405756       6.57125935        8      -0.01869717      -0.04284604       0.04731320
O        0.60687287       0.57152555       4.98926460        9       0.01869717      -0.04284604      -0.04731320
O        0.60687287       2.18100646       2.71775137       10       0.01869717       0.04284604       0.04731320
O        2.11825933       4.93353847       1.13575661       11      -0.01869717       0.04284604      -0.04731320
O        3.33200506       2.18100646       1.13575661       12       0.01869717       0.04284604      -0.04731320
O        4.84339152       4.93353847       2.71775137       13      -0.01869717       0.04284604       0.04731320
O        4.84339152       3.32405756       4.98926460       14      -0.01869717      -0.04284604      -0.04731320
O        3.33200506       0.57152555       6.57125935       15       0.01869717      -0.04284604       0.04731320
O        5.22325385       4.12879802       0.00000000       16       0.04015874      -0.00000000      -0.00000000
O        2.95214273       1.37626601       3.85350798       17      -0.04015874      -0.00000000      -0.00000000
O        0.22701054       1.37626601       0.00000000       18      -0.04015874      -0.00000000       0.00000000
O        2.49812165       4.12879802       3.85350798       19       0.04015874       0.00000000       0.00000000
20
Lattice="5.45753606984393 2.3603207780668875e-59 2.0632163465118153e-44 -1.4931533519673055e-59 5.516793680848615 2.9999976040642734e-16 1.1777901691566183e-43 -3.6979969707489737e-16 7.680382431814388" Properties=species:S:1:pos:R:3:spacegroup_kinds:I:1:forces:R:3 spacegroup="P 1" unit_cell=conventional occupancy="_JSON {\"0\": {\"In\": 1}, \"1\": {\"In\": 1}, \"2\": {\"In\": 1}, \"3\": {\"In\": 1}, \"4\": {\"In\": 1}, \"5\": {\"In\": 1}, \"6\": {\"In\": 1}, \"7\": {\"In\": 1}, \"8\": {\"O\": 1}, \"9\": {\"O\": 1}, \"10\": {\"O\": 1}, \"11\": {\"O\": 1}, \"12\": {\"O\": 1}, \"13\": {\"O\": 1}, \"14\": {\"O\": 1}, \"15\": {\"O\": 1}, \"16\": {\"O\": 1}, \"17\": {\"O\": 1}, \"18\": {\"O\": 1}, \"19\": {\"O\": 1}}" n_minim_iter=4 energy=-22574.074337370115 stress="-0.07699148271099471 2.6156674863127625e-13 -5.0889262812647326e-14 2.6156674863127625e-13 -0.07663335575529294 1.8309421003327192e-13 -5.0889262812647326e-14 1.8309421003327192e-13 -0.07710273308819342" free_energy=-22574.074337370115 pbc="T T T"
In       1.36600544       2.92938179       0.90586459        0      -0.09407632      -0.03717807       0.03814960
In       1.36276260       0.17098495       2.93432663        1       0.09407632      -0.03717807      -0.03814960
In       1.36276260       2.58741189       4.74605581        2       0.09407632       0.03717807       0.03814960
In       1.36600544       5.34580873       6.77451784        3      -0.09407632       0.03717807      -0.03814960
In       4.09153063       2.58741189       6.77451784        4       0.09407632       0.03717807      -0.03814960
In       4.09477347       5.34580873       4.74605581        5      -0.09407632       0.03717807       0.03814960
In       4.09477347       2.92938179       2.93432663        6      -0.09407632      -0.03717807      -0.03814960
In       4.09153063       0.17098495       0.90586459        7       0.09407632      -0.03717807       0.03814960
O        2.12051863       3.33104546       6.55451548        8      -0.02973811      -0.02452435       0.02152670
O        0.60824940       0.57264862       4.96605817        9       0.02973811      -0.02452435      -0.02152670
O        0.60824940       2.18574822       2.71432426       10       0.02973811       0.02452435       0.02152670
O        2.12051863       4.94414506       1.12586695       11      -0.02973811       0.02452435      -0.02152670
O        3.33701744       2.18574822       1.12586695       12       0.02973811       0.02452435      -0.02152670
O        4.84928667       4.94414506       2.71432426       13      -0.02973811       0.02452435       0.02152670
O        4.84928667       3.33104546       4.96605817       14      -0.02973811      -0.02452435      -0.02152670
O        3.33701744       0.57264862       6.55451548       15       0.02973811      -0.02452435       0.02152670
O        5.23415882       4.13759526       0.00000000       16      -0.00969952       0.00000000      -0.00000000
O        2.95214528       1.37919842       3.84019122       17       0.00969952      -0.00000000       0.00000000
O        0.22337725       1.37919842       0.00000000       18       0.00969952      -0.00000000       0.00000000
O        2.50539079       4.13759526       3.84019122       19      -0.00969952       0.00000000      -0.00000000
20
Lattice="5.461751641498363 2.360069029124439e-59 1.9038830755999725e-44 -1.445841117650289e-59 5.503399286994353 3.0049703113759185e-16 1.1711037772049514e-43 -3.689029150344798e-16 7.693132837975581" Properties=species:S:1:pos:R:3:spacegroup_kinds:I:1:forces:R:3 spacegroup="P 1" unit_cell=conventional occupancy="_JSON {\"0\": {\"In\": 1}, \"1\": {\"In\": 1}, \"2\": {\"In\": 1}, \"3\": {\"In\": 1}, \"4\": {\"In\": 1}, \"5\": {\"In\": 1}, \"6\": {\"In\": 1}, \"7\": {\"In\": 1}, \"8\": {\"O\": 1}, \"9\": {\"O\": 1}, \"10\": {\"O\": 1}, \"11\": {\"O\": 1}, \"12\": {\"O\": 1}, \"13\": {\"O\": 1}, \"14\": {\"O\": 1}, \"15\": {\"O\": 1}, \"16\": {\"O\": 1}, \"17\": {\"O\": 1}, \"18\": {\"O\": 1}, \"19\": {\"O\": 1}}" n_minim_iter=5 energy=-22574.07868395095 stress="-0.07455648673039708 -7.211161646845624e-13 2.8615498523859726e-13 -7.211161646845624e-13 -0.07527271651338772 -4.165052877699675e-13 2.8615498523859726e-13 -4.165052877699675e-13 -0.07530242369882251" free_energy=-22574.07868395095 pbc="T T T"
In       1.36296514       2.91859047       0.91411741        0      -0.01441607       0.01588985      -0.02767461
In       1.36791068       0.16689083       2.93244901        1       0.01441607       0.01588985       0.02767461
In       1.36791068       2.58480882       4.76068383        2       0.01441607      -0.01588985      -0.02767461
In       1.36296514       5.33650846       6.77901543        3      -0.01441607      -0.01588985       0.02767461
In       4.09878650       2.58480882       6.77901543        4       0.01441607      -0.01588985       0.02767461
In       4.09384096       5.33650846       4.76068383        5      -0.01441607      -0.01588985      -0.02767461
In       4.09384096       2.91859047       2.93244901        6      -0.01441607       0.01588985       0.02767461
In       4.09878650       0.16689083       0.91411741        7       0.01441607       0.01588985      -0.02767461
O        2.11969885       3.32113560       6.57074862        8       0.01440444      -0.02078091       0.04924788
O        0.61117697       0.56943595       4.96895064        9      -0.01440444      -0.02078091      -0.04924788
O        0.61117697       2.18226369       2.72418220       10      -0.01440444       0.02078091       0.04924788
O        2.11969885       4.93396334       1.12238422       11       0.01440444       0.02078091      -0.04924788
O        3.34205279       2.18226369       1.12238422       12      -0.01440444       0.02078091      -0.04924788
O        4.85057467       4.93396334       2.72418220       13       0.01440444       0.02078091       0.04924788
O        4.85057467       3.32113560       4.96895064       14       0.01440444      -0.02078091      -0.04924788
O        3.34205279       0.56943595       6.57074862       15      -0.01440444      -0.02078091       0.04924788
O        5.24003414       4.12754947       0.00000000       16      -0.00800502      -0.00000000      -0.00000000
O        2.95259333       1.37584982       3.84656642       17       0.00800502      -0.00000000       0.00000000
O        0.22171751       1.37584982       0.00000000       18       0.00800502       0.00000000      -0.00000000
O        2.50915831       4.12754947       3.84656642       19      -0.00800502      -0.00000000      -0.00000000
20
Lattice="5.456165781707062 2.3970435274371863e-59 2.5118316855422237e-44 -9.904188382761899e-60 5.504351812231348 2.951049268116981e-16 2.247771790103388e-43 -3.7681536500833567e-16 7.699676182318878" Properties=species:S:1:pos:R:3:spacegroup_kinds:I:1:forces:R:3 spacegroup="P 1" unit_cell=conventional occupancy="_JSON {\"0\": {\"In\": 1}, \"1\": {\"In\": 1}, \"2\": {\"In\": 1}, \"3\": {\"In\": 1}, \"4\": {\"In\": 1}, \"5\": {\"In\": 1}, \"6\": {\"In\": 1}, \"7\": {\"In\": 1}, \"8\": {\"O\": 1}, \"9\": {\"O\": 1}, \"10\": {\"O\": 1}, \"11\": {\"O\": 1}, \"12\": {\"O\": 1}, \"13\": {\"O\": 1}, \"14\": {\"O\": 1}, \"15\": {\"O\": 1}, \"16\": {\"O\": 1}, \"17\": {\"O\": 1}, \"18\": {\"O\": 1}, \"19\": {\"O\": 1}}" n_minim_iter=6 energy=-22574.07965201527 stress="-0.07548019139512749 -2.52541371911748e-13 7.009360667571533e-13 -2.52541371911748e-13 -0.07446767046355492 -6.054424805702724e-13 7.009360667571533e-13 -6.054424805702724e-13 -0.07419265886508174" free_energy=-22574.07965201527 pbc="T T T"
In       1.35915091       2.91862425       0.91587337        0       0.00345251       0.03380763      -0.00411826
In       1.36893198       0.16644835       2.93396472        1      -0.00345251       0.03380763       0.00411826
In       1.36893198       2.58572756       4.76571146        2      -0.00345251      -0.03380763      -0.00411826
In       1.35915091       5.33790347       6.78380281        3       0.00345251      -0.03380763       0.00411826
In       4.09701487       2.58572756       6.78380281        4      -0.00345251      -0.03380763       0.00411826
In       4.08723380       5.33790347       4.76571146        5       0.00345251      -0.03380763      -0.00411826
In       4.08723380       2.91862425       2.93396472        6       0.00345251       0.03380763       0.00411826
In       4.09701487       0.16644835       0.91587337        7      -0.00345251       0.03380763      -0.00411826
O        2.11716647       3.32015836       6.58027086        8       0.00967474      -0.01345100       0.01230243
O        0.61091642       0.56798246       4.96924341        9      -0.00967474      -0.01345100      -0.01230243
O        0.61091642       2.18419345       2.73043277       10      -0.00967474       0.01345100       0.01230243
O        2.11716647       4.93636936       1.11940532       11       0.00967474       0.01345100      -0.01230243
O        3.33899931       2.18419345       1.11940532       12      -0.00967474       0.01345100      -0.01230243
O        4.84524936       4.93636936       2.73043277       13       0.00967474       0.01345100       0.01230243
O        4.84524936       3.32015836       4.96924341       14       0.00967474      -0.01345100      -0.01230243
O        3.33899931       0.56798246       6.58027086       15      -0.00967474      -0.01345100       0.01230243
O        5.23477940       4.12826386       0.00000000       16      -0.01375647      -0.00000000      -0.00000000
O        2.94946927       1.37608795       3.84983809       17       0.01375647       0.00000000      -0.00000000
O        0.22138638       1.37608795       0.00000000       18       0.01375647       0.00000000      -0.00000000
O        2.50669651       4.12826386       3.84983809       19      -0.01375647      -0.00000000       0.00000000
20
Lattice="5.460706746907384 2.3644207757691235e-59 1.3517725722283656e-45 -7.706612930986793e-60 5.504176178790507 3.0182562975376714e-16 2.9047661687386452e-43 -3.6712407847752714e-16 7.693518840750189" Properties=species:S:1:pos:R:3:spacegroup_kinds:I:1:forces:R:3 spacegroup="P 1" unit_cell=conventional occupancy="_JSON {\"0\": {\"In\": 1}, \"1\": {\"In\": 1}, \"2\": {\"In\": 1}, \"3\": {\"In\": 1}, \"4\": {\"In\": 1}, \"5\": {\"In\": 1}, \"6\": {\"In\": 1}, \"7\": {\"In\": 1}, \"8\": {\"O\": 1}, \"9\": {\"O\": 1}, \"10\": {\"O\": 1}, \"11\": {\"O\": 1}, \"12\": {\"O\": 1}, \"13\": {\"O\": 1}, \"14\": {\"O\": 1}, \"15\": {\"O\": 1}, \"16\": {\"O\": 1}, \"17\": {\"O\": 1}, \"18\": {\"O\": 1}, \"19\": {\"O\": 1}}" n_minim_iter=7 energy=-22574.080080932497 stress="-0.07415291915773661 3.6489967932649454e-13 3.0062386692090555e-13 3.6489967932649454e-13 -0.07444033360697246 1.4840888160093103e-13 3.0062386692090555e-13 1.4840888160093103e-13 -0.07455817493976577" free_energy=-22574.080080932497 pbc="T T T"
In       1.36037011       2.91965174       0.91483042        0      -0.00190421       0.01453420       0.02286086
In       1.36998326       0.16756365       2.93192900        1       0.00190421       0.01453420      -0.02286086
In       1.36998326       2.58452444       4.76158984        2       0.00190421      -0.01453420       0.02286086
In       1.36037011       5.33661253       6.77868842        3      -0.00190421      -0.01453420      -0.02286086
In       4.10033663       2.58452444       6.77868842        4       0.00190421      -0.01453420      -0.02286086
In       4.09072349       5.33661253       4.76158984        5      -0.00190421      -0.01453420       0.02286086
In       4.09072349       2.91965174       2.93192900        6      -0.00190421       0.01453420      -0.02286086
In       4.10033663       0.16756365       0.91483042        7       0.00190421       0.01453420       0.02286086
O        2.11953543       3.31927599       6.57650831        8       0.00918343      -0.01550783      -0.01321058
O        0.61081795       0.56718790       4.96376995        9      -0.00918343      -0.01550783       0.01321058
O        0.61081795       2.18490019       2.72974889       10      -0.00918343       0.01550783      -0.01321058
O        2.11953543       4.93698828       1.11701053       11       0.00918343       0.01550783       0.01321058
O        3.34117132       2.18490019       1.11701053       12      -0.00918343       0.01550782       0.01321058
O        4.84988880       4.93698828       2.72974889       13       0.00918343       0.01550782      -0.01321058
O        4.84988880       3.31927599       4.96376995       14       0.00918343      -0.01550782       0.01321058
O        3.34117132       0.56718790       6.57650831       15      -0.00918343      -0.01550783      -0.01321058
O        5.23878808       4.12813213       0.00000000       16      -0.01431427       0.00000000       0.00000000
O        2.95227204       1.37604404       3.84675942       17       0.01431427      -0.00000000       0.00000000
O        0.22191866       1.37604404       0.00000000       18       0.01431427       0.00000000       0.00000000
O        2.50843471       4.12813213       3.84675942       19      -0.01431427       0.00000000       0.00000000
20
Lattice="5.458715672208563 2.5427354982333264e-59 -2.1722904772578729e-44 -7.984200976647646e-60 5.503902388591181 3.093269329417985e-16 2.8345752328736435e-43 -3.5685360441982023e-16 7.696707914942022" Properties=species:S:1:pos:R:3:spacegroup_kinds:I:1:forces:R:3 spacegroup="P 1" unit_cell=conventional occupancy="_JSON {\"0\": {\"In\": 1}, \"1\": {\"In\": 1}, \"2\": {\"In\": 1}, \"3\": {\"In\": 1}, \"4\": {\"In\": 1}, \"5\": {\"In\": 1}, \"6\": {\"In\": 1}, \"7\": {\"In\": 1}, \"8\": {\"O\": 1}, \"9\": {\"O\": 1}, \"10\": {\"O\": 1}, \"11\": {\"O\": 1}, \"12\": {\"O\": 1}, \"13\": {\"O\": 1}, \"14\": {\"O\": 1}, \"15\": {\"O\": 1}, \"16\": {\"O\": 1}, \"17\": {\"O\": 1}, \"18\": {\"O\": 1}, \"19\": {\"O\": 1}}" n_minim_iter=8 energy=-22574.08106552156 stress="-0.07409574808449207 -2.0625953927659653e-13 9.225575275360954e-13 -2.0625953927659653e-13 -0.07426905828526129 -6.869696143175579e-13 9.225575275360954e-13 -6.869696143175579e-13 -0.07400882563288515" free_energy=-22574.08106552156 pbc="T T T"
In       1.35798827       2.92390311       0.91883185        0       0.00078887       0.01193892       0.00439007
In       1.37136957       0.17195191       2.92952211        1      -0.00078887       0.01193892      -0.00439007
In       1.37136957       2.57999928       4.76718580        2      -0.00078887      -0.01193892       0.00439007
In       1.35798827       5.33195048       6.77787607        3       0.00078887      -0.01193892      -0.00439007
In       4.10072741       2.57999928       6.77787607        4      -0.00078887      -0.01193892      -0.00439007
In       4.08734610       5.33195048       4.76718580        5       0.00078887      -0.01193892       0.00439007
In       4.08734610       2.92390311       2.92952211        6       0.00078887       0.01193892      -0.00439007
In       4.10072741       0.17195191       0.91883185        7      -0.00078887       0.01193892       0.00439007
O        2.12092723       3.31443387       6.58109026        8      -0.01781936       0.00767380       0.00377894
O        0.60843060       0.56248268       4.96397161        9       0.01781936       0.00767380      -0.00377894
O        0.60843060       2.18946852       2.73273630       10       0.01781936      -0.00767380       0.00377894
O        2.12092723       4.94141971       1.11561765       11      -0.01781936      -0.00767380      -0.00377894
O        3.33778844       2.18946852       1.11561765       12       0.01781936      -0.00767380      -0.00377894
O        4.85028507       4.94141971       2.73273630       13      -0.01781936      -0.00767380       0.00377894
O        4.85028507       3.31443387       4.96397161       14      -0.01781936       0.00767380      -0.00377894
O        3.33778844       0.56248268       6.58109026       15       0.01781936       0.00767380       0.00377894
O        5.23354691       4.12792679       0.00000000       16      -0.00053468       0.00000000      -0.00000000
O        2.95452660       1.37597560       3.84835396       17       0.00053468       0.00000000      -0.00000000
O        0.22516876       1.37597560       0.00000000       18       0.00053468      -0.00000000       0.00000000
O        2.50418907       4.12792679       3.84835396       19      -0.00053468       0.00000000      -0.00000000
20
Lattice="5.457959121823402 -3.8313753556971806e-60 -1.6157750548434985e-43 3.049662700774753e-59 5.505854007049332 3.082660583007515e-16 1.5106179092200504e-43 -3.583658701205073e-16 7.695046215545423" Properties=species:S:1:pos:R:3:spacegroup_kinds:I:1:forces:R:3 spacegroup="P 1" unit_cell=conventional occupancy="_JSON {\"0\": {\"In\": 1}, \"1\": {\"In\": 1}, \"2\": {\"In\": 1}, \"3\": {\"In\": 1}, \"4\": {\"In\": 1}, \"5\": {\"In\": 1}, \"6\": {\"In\": 1}, \"7\": {\"In\": 1}, \"8\": {\"O\": 1}, \"9\": {\"O\": 1}, \"10\": {\"O\": 1}, \"11\": {\"O\": 1}, \"12\": {\"O\": 1}, \"13\": {\"O\": 1}, \"14\": {\"O\": 1}, \"15\": {\"O\": 1}, \"16\": {\"O\": 1}, \"17\": {\"O\": 1}, \"18\": {\"O\": 1}, \"19\": {\"O\": 1}}" n_minim_iter=9 energy=-22574.081190376273 stress="-0.07371293562515392 3.549924788063397e-13 5.632392499100592e-13 3.549924788063397e-13 -0.07358232427403164 -3.565813465112146e-13 5.632392499100592e-13 -3.565813465112146e-13 -0.07392686419273733" free_energy=-22574.081190376273 pbc="T T T"
In       1.35770235       2.92572161       0.92017340        0      -0.00186380       0.00824432      -0.00386876
In       1.37127721       0.17279461       2.92734970        1       0.00186380       0.00824432       0.00386876
In       1.37127721       2.58013240       4.76769651        2       0.00186380      -0.00824432      -0.00386876
In       1.35770235       5.33305940       6.77487281        3      -0.00186380      -0.00824432       0.00386876
In       4.10025677       2.58013240       6.77487281        4       0.00186380      -0.00824432       0.00386876
In       4.08668191       5.33305940       4.76769651        5      -0.00186380      -0.00824432      -0.00386876
In       4.08668191       2.92572161       2.92734970        6      -0.00186380       0.00824432       0.00386876
In       4.10025677       0.17279461       0.92017340        7       0.00186380       0.00824432      -0.00386876
O        2.12003411       3.31515467       6.58118383        8      -0.01067786       0.00542896      -0.00127599
O        0.60894545       0.56222766       4.96138550        9       0.01067786       0.00542896       0.00127599
O        0.60894545       2.19069934       2.73366072       10       0.01067786      -0.00542896      -0.00127599
O        2.12003411       4.94362634       1.11386239       11      -0.01067786      -0.00542896       0.00127599
O        3.33792501       2.19069934       1.11386239       12       0.01067786      -0.00542896       0.00127599
O        4.84901367       4.94362634       2.73366072       13      -0.01067786      -0.00542896      -0.00127599
O        4.84901367       3.31515467       4.96138550       14      -0.01067786       0.00542896       0.00127599
O        3.33792501       0.56222766       6.58118383       15       0.01067786       0.00542896      -0.00127599
O        5.23283120       4.12939051       0.00000000       16      -0.01353118       0.00000000      -0.00000000
O        2.95410749       1.37646350       3.84752311       17       0.01353118      -0.00000000      -0.00000000
O        0.22512793       1.37646350       0.00000000       18       0.01353118      -0.00000000       0.00000000
O        2.50385164       4.12939051       3.84752311       19      -0.01353118      -0.00000000      -0.00000000
20