20
Lattice="5.725463266533964 1.4918955972298365e-59 -7.196004185952526e-43 -8.265495851706619e-60 5.954001019165659 5.767601729073085e-17 1.1604355345849898e-42 -8.94389317213003e-17 9.2329449160369" Properties=species:S:1:pos:R:3:spacegroup_kinds:I:1:forces:R:3 spacegroup="P 1" unit_cell=conventional occupancy="_JSON {\"0\": {\"In\": 1}, \"1\": {\"In\": 1}, \"2\": {\"In\": 1}, \"3\": {\"In\": 1}, \"4\": {\"In\": 1}, \"5\": {\"In\": 1}, \"6\": {\"In\": 1}, \"7\": {\"In\": 1}, \"8\": {\"O\": 1}, \"9\": {\"O\": 1}, \"10\": {\"O\": 1}, \"11\": {\"O\": 1}, \"12\": {\"O\": 1}, \"13\": {\"O\": 1}, \"14\": {\"O\": 1}, \"15\": {\"O\": 1}, \"16\": {\"O\": 1}, \"17\": {\"O\": 1}, \"18\": {\"O\": 1}, \"19\": {\"O\": 1}}" n_minim_iter=1 energy=-22571.5634405847 stress="0.11721791900524736 2.50578012137735e-14 -2.3228096218982135e-13 2.50578012137735e-14 0.11702962187475083 -2.431585796270353e-13 -2.3228096218982135e-13 -2.431585796270353e-13 0.1162050461365254" free_energy=-22571.5634405847 pbc="T T T"
In       1.37270391       3.17494334       1.15185464        0      -0.00838785       0.02477935       0.04318756
In       1.49002773       0.19794283       3.46461782        1       0.00838785       0.02477935      -0.04318756
In       1.49002773       2.77905768       5.76832710        2       0.00838785      -0.02477935       0.04318756
In       1.37270391       5.75605819       8.08109027        3      -0.00838785      -0.02477935      -0.04318756
In       4.35275936       2.77905768       8.08109027        4       0.00838785      -0.02477935      -0.04318756
In       4.23543554       5.75605819       5.76832710        5      -0.00838785      -0.02477935       0.04318756
In       4.23543554       3.17494334       3.46461782        6      -0.00838785       0.02477935      -0.04318756
In       4.35275936       0.19794283       1.15185464        7       0.00838785       0.02477935       0.04318756
O        2.26826062       3.58717223       7.71047339        8       0.04406269      -0.01024056      -0.03899935
O        0.59447101       0.61017172       6.13894399        9      -0.04406269      -0.01024056       0.03899935
O        0.59447101       2.36682879       3.09400093       10      -0.04406269       0.01024056      -0.03899935
O        2.26826062       5.34382930       1.52247153       11       0.04406269       0.01024056       0.03899935
O        3.45720264       2.36682879       1.52247153       12      -0.04406269       0.01024056       0.03899935
O        5.13099226       5.34382930       3.09400093       13       0.04406269       0.01024056      -0.03899935
O        5.13099226       3.58717223       6.13894399       14       0.04406269      -0.01024056       0.03899935
O        3.45720264       0.61017172       7.71047339       15      -0.04406269      -0.01024056      -0.03899935
O        5.45418837       4.46550076      -0.00000000       16       0.00954479      -0.00000000       0.00000000
O        3.13400653       1.48850025       4.61647246       17      -0.00954479      -0.00000000       0.00000000
O        0.27127490       1.48850025      -0.00000000       18      -0.00954479       0.00000000       0.00000000
O        2.59145673       4.46550076       4.61647246       19       0.00954479      -0.00000000       0.00000000
20
Lattice="5.7202935677134645 1.475713164333983e-59 -7.175655174294971e-43 -8.282381331661065e-60 5.951152634761941 5.901768680729625e-17 1.1564336950599652e-42 -8.743565899909796e-17 9.24571229711195" Properties=species:S:1:pos:R:3:spacegroup_kinds:I:1:forces:R:3 spacegroup="P 1" unit_cell=conventional occupancy="_JSON {\"0\": {\"In\": 1}, \"1\": {\"In\": 1}, \"2\": {\"In\": 1}, \"3\": {\"In\": 1}, \"4\": {\"In\": 1}, \"5\": {\"In\": 1}, \"6\": {\"In\": 1}, \"7\": {\"In\": 1}, \"8\": {\"O\": 1}, \"9\": {\"O\": 1}, \"10\": {\"O\": 1}, \"11\": {\"O\": 1}, \"12\": {\"O\": 1}, \"13\": {\"O\": 1}, \"14\": {\"O\": 1}, \"15\": {\"O\": 1}, \"16\": {\"O\": 1}, \"17\": {\"O\": 1}, \"18\": {\"O\": 1}, \"19\": {\"O\": 1}}" n_minim_iter=2 energy=-22571.563825572342 stress="0.11647135424673746 -1.148948376574886e-13 -5.45178443466495e-15 -1.148948376574886e-13 0.11636994528999442 -1.9296099566282597e-13 -5.45178443466495e-15 -1.9296099566282597e-13 0.11723469633802927" free_energy=-22571.563825572342 pbc="T T T"
In       1.37140438       3.17360199       1.15375744        0      -0.01588040       0.02276851       0.04581602
In       1.48874241       0.19802567       3.46909871        1       0.01588040       0.02276851      -0.04581602
In       1.48874241       2.77755064       5.77661359        2       0.01588040      -0.02276851       0.04581602
In       1.37140438       5.75312696       8.09195486        3      -0.01588040      -0.02276851      -0.04581602
In       4.34888919       2.77755064       8.09195486        4       0.01588040      -0.02276851      -0.04581602
In       4.23155116       5.75312696       5.77661359        5      -0.01588040      -0.02276851       0.04581602
In       4.23155116       3.17360199       3.46909871        6      -0.01588040       0.02276851      -0.04581602
In       4.34888919       0.19802567       1.15375744        7       0.01588040       0.02276851       0.04581602
O        2.26652810       3.58538276       7.72085554        8       0.03753693      -0.01136591      -0.04173897
O        0.59361868       0.60980644       6.14771290        9      -0.03753693      -0.01136591       0.04173897
O        0.59361868       2.36576987       3.09799939       10      -0.03753693       0.01136591      -0.04173897
O        2.26652810       5.34134619       1.52485676       11       0.03753693       0.01136591       0.04173897
O        3.45376546       2.36576987       1.52485676       12      -0.03753693       0.01136591       0.04173897
O        5.12667489       5.34134619       3.09799939       13       0.03753693       0.01136591      -0.04173897
O        5.12667489       3.58538276       6.14771290       14       0.03753693      -0.01136591       0.04173897
O        3.45376546       0.60980644       7.72085554       15      -0.03753693      -0.01136591      -0.04173897
O        5.44933197       4.46336448      -0.00000000       16       0.00754602      -0.00000000      -0.00000000
O        3.13110838       1.48778816       4.62285615       17      -0.00754602      -0.00000000       0.00000000
O        0.27096160       1.48778816      -0.00000000       18      -0.00754602      -0.00000000      -0.00000000
O        2.58918518       4.46336448       4.62285615       19       0.00754602      -0.00000000       0.00000000
20
Lattice="5.708986830688165 1.475350238328791e-59 -7.160300968010418e-43 -8.279440141072114e-60 5.96329855175844 5.901412823936156e-17 1.1575438733542984e-42 -8.761410951480713e-17 9.24515481176995" Properties=species:S:1:pos:R:3:spacegroup_kinds:I:1:forces:R:3 spacegroup="P 1" unit_cell=conventional occupancy="_JSON {\"0\": {\"In\": 1}, \"1\": {\"In\": 1}, \"2\": {\"In\": 1}, \"3\": {\"In\": 1}, \"4\": {\"In\": 1}, \"5\": {\"In\": 1}, \"6\": {\"In\": 1}, \"7\": {\"In\": 1}, \"8\": {\"O\": 1}, \"9\": {\"O\": 1}, \"10\": {\"O\": 1}, \"11\": {\"O\": 1}, \"12\": {\"O\": 1}, \"13\": {\"O\": 1}, \"14\": {\"O\": 1}, \"15\": {\"O\": 1}, \"16\": {\"O\": 1}, \"17\": {\"O\": 1}, \"18\": {\"O\": 1}, \"19\": {\"O\": 1}}" n_minim_iter=3 energy=-22571.56606992559 stress="0.11473262856505606 -1.433512338668578e-13 -4.616043739516335e-13 -1.433512338668578e-13 0.11749332262298268 -1.871831711729218e-14 -4.616043739516335e-13 -1.871831711729218e-14 0.1160595174464427" free_energy=-22571.56606992559 pbc="T T T"
In       1.36758579       3.18221207       1.15770200        0      -0.02785435       0.03378235      -0.00878229
In       1.48690763       0.20056280       3.46487541        1       0.02785435       0.03378235       0.00878229
In       1.48690763       2.78108648       5.78027940        2       0.02785435      -0.03378235      -0.00878229
In       1.36758579       5.76273576       8.08745282        3      -0.02785435      -0.03378235       0.00878229
In       4.34140105       2.78108648       8.08745282        4       0.02785435      -0.03378235       0.00878229
In       4.22207920       5.76273576       5.78027940        5      -0.02785435      -0.03378235      -0.00878229
In       4.22207920       3.18221207       3.46487541        6      -0.02785435       0.03378235       0.00878229
In       4.34140105       0.20056280       1.15770200        7       0.02785435       0.03378235      -0.00878229
O        2.26568280       3.59172519       7.71674761        8       0.02666005      -0.00123651      -0.01111938
O        0.58881061       0.61007591       6.15098461        9      -0.02666005      -0.00123651       0.01111938
O        0.58881061       2.37157336       3.09417020       10      -0.02666005       0.00123651      -0.01111938
O        2.26568280       5.35322264       1.52840720       11       0.02666005       0.00123651       0.01111938
O        3.44330403       2.37157336       1.52840720       12      -0.02666005       0.00123651       0.01111938
O        5.12017622       5.35322264       3.09417020       13       0.02666005       0.00123651      -0.01111938
O        5.12017622       3.59172519       6.15098461       14       0.02666005      -0.00123651       0.01111938
O        3.44330403       0.61007591       7.71674761       15      -0.02666005      -0.00123651      -0.01111938
O        5.43932030       4.47247391      -0.00000000       16       0.02394616      -0.00000000      -0.00000000
O        3.12415995       1.49082464       4.62257741       17      -0.02394616      -0.00000000       0.00000000
O        0.26966653       1.49082464      -0.00000000       18      -0.02394616       0.00000000      -0.00000000
O        2.58482688       4.47247391       4.62257741       19       0.02394616      -0.00000000       0.00000000
20
Lattice="5.719661745126115 1.504026509890764e-59 -7.167335459624663e-43 -8.268397384098023e-60 5.951599509772319 5.668124834534362e-17 1.1586698802028257e-42 -9.107689164340923e-17 9.246039335276636" Properties=species:S:1:pos:R:3:spacegroup_kinds:I:1:forces:R:3 spacegroup="P 1" unit_cell=conventional occupancy="_JSON {\"0\": {\"In\": 1}, \"1\": {\"In\": 1}, \"2\": {\"In\": 1}, \"3\": {\"In\": 1}, \"4\": {\"In\": 1}, \"5\": {\"In\": 1}, \"6\": {\"In\": 1}, \"7\": {\"In\": 1}, \"8\": {\"O\": 1}, \"9\": {\"O\": 1}, \"10\": {\"O\": 1}, \"11\": {\"O\": 1}, \"12\": {\"O\": 1}, \"13\": {\"O\": 1}, \"14\": {\"O\": 1}, \"15\": {\"O\": 1}, \"16\": {\"O\": 1}, \"17\": {\"O\": 1}, \"18\": {\"O\": 1}, \"19\": {\"O\": 1}}" n_minim_iter=4 energy=-22571.56756545031 stress="0.11563247939814292 3.239538523872205e-13 -2.777136986805006e-13 3.239538523872205e-13 0.11551161770037048 -4.048932205405791e-13 -2.777136986805006e-13 -4.048932205405791e-13 0.11569836430620704" free_energy=-22571.56756545031 pbc="T T T"
In       1.36920302       3.17762925       1.16040034        0      -0.02108793       0.02877463      -0.02869923
In       1.49062785       0.20182949       3.46261933        1       0.02108793       0.02877463       0.02869923
In       1.49062785       2.77397026       5.78342001        2       0.02108793      -0.02877463      -0.02869923
In       1.36920302       5.74977002       8.08563899        3      -0.02108793      -0.02877463       0.02869923
In       4.35045873       2.77397026       8.08563899        4       0.02108793      -0.02877463       0.02869923
In       4.22903389       5.74977002       5.78342001        5      -0.02108793      -0.02877463      -0.02869923
In       4.22903389       3.17762925       3.46261933        6      -0.02108793       0.02877463       0.02869923
In       4.35045873       0.20182949       1.16040034        7       0.02108793       0.02877463      -0.02869923
O        2.27252580       3.58402638       7.71499500        8       0.02405649       0.00551422       0.02050409
O        0.58730507       0.60822663       6.15406400        9      -0.02405649       0.00551422      -0.02050409
O        0.58730507       2.36757313       3.09197533       10      -0.02405649      -0.00551422       0.02050409
O        2.27252580       5.34337288       1.53104433       11       0.02405649      -0.00551422      -0.02050409
O        3.44713594       2.36757313       1.53104433       12      -0.02405649      -0.00551422      -0.02050409
O        5.13235667       5.34337288       3.09197533       13       0.02405649      -0.00551422       0.02050409
O        5.13235667       3.58402638       6.15406400       14       0.02405649       0.00551422      -0.02050409
O        3.44713594       0.60822663       7.71499500       15      -0.02405649       0.00551422       0.02050409
O        5.45017245       4.46369963      -0.00000000       16       0.02411812      -0.00000000      -0.00000000
O        3.12932017       1.48789988       4.62301967       17      -0.02411812       0.00000000       0.00000000
O        0.26948930       1.48789988      -0.00000000       18      -0.02411812       0.00000000      -0.00000000
O        2.59034158       4.46369963       4.62301967       19       0.02411812      -0.00000000       0.00000000
20
Lattice="5.721678360588951 1.5500208644618e-59 -7.57932774672052e-43 -9.15938252982383e-60 5.959387224269701 5.917793318340357e-17 9.029606321463669e-43 -8.716946977376547e-17 9.230702106788325" Properties=species:S:1:pos:R:3:spacegroup_kinds:I:1:forces:R:3 spacegroup="P 1" unit_cell=conventional occupancy="_JSON {\"0\": {\"In\": 1}, \"1\": {\"In\": 1}, \"2\": {\"In\": 1}, \"3\": {\"In\": 1}, \"4\": {\"In\": 1}, \"5\": {\"In\": 1}, \"6\": {\"In\": 1}, \"7\": {\"In\": 1}, \"8\": {\"O\": 1}, \"9\": {\"O\": 1}, \"10\": {\"O\": 1}, \"11\": {\"O\": 1}, \"12\": {\"O\": 1}, \"13\": {\"O\": 1}, \"14\": {\"O\": 1}, \"15\": {\"O\": 1}, \"16\": {\"O\": 1}, \"17\": {\"O\": 1}, \"18\": {\"O\": 1}, \"19\": {\"O\": 1}}" n_minim_iter=5 energy=-22571.56999188218 stress="0.11569623678808161 -3.669370725043937e-13 -3.208060551835078e-13 -3.669370725043937e-13 0.1153346981749565 -3.5322331426740426e-14 -3.208060551835078e-13 -3.5322331426740426e-14 0.114308148990658" free_energy=-22571.56999188218 pbc="T T T"
In       1.36481547       3.18907381       1.15725212        0      -0.00245307       0.00100848       0.00600378
In       1.49602371       0.20938020       3.45809893        1       0.00245307       0.00100848      -0.00600378
In       1.49602371       2.77031342       5.77260317        2       0.00245307      -0.00100848       0.00600378
In       1.36481547       5.75000703       8.07344999        3      -0.00245307      -0.00100848      -0.00600378
In       4.35686289       2.77031342       8.07344999        4       0.00245307      -0.00100848      -0.00600378
In       4.22565465       5.75000703       5.77260317        5      -0.00245307      -0.00100848       0.00600378
In       4.22565465       3.18907381       3.45809893        6      -0.00245307       0.00100848      -0.00600378
In       4.35686289       0.20938020       1.15725212        7       0.00245307       0.00100848       0.00600378
O        2.28118124       3.58873052       7.70215910        8      -0.00352451      -0.01016968      -0.00078264
O        0.57965794       0.60903691       6.14389406        9       0.00352451      -0.01016968       0.00078264
O        0.57965794       2.37065670       3.08680805       10       0.00352451       0.01016968      -0.00078264
O        2.28118124       5.35035032       1.52854300       11      -0.00352451       0.01016968       0.00078264
O        3.44049712       2.37065670       1.52854300       12       0.00352451       0.01016968       0.00078264
O        5.14202042       5.35035032       3.08680805       13      -0.00352451       0.01016968      -0.00078264
O        5.14202042       3.58873052       6.14389406       14      -0.00352451      -0.01016968       0.00078264
O        3.44049712       0.60903691       7.70215910       15       0.00352451      -0.01016968      -0.00078264
O        5.45717927       4.46954042      -0.00000000       16       0.03392577       0.00000000      -0.00000000
O        3.12533827       1.48984681       4.61535105       17      -0.03392577      -0.00000000       0.00000000
O        0.26449909       1.48984681      -0.00000000       18      -0.03392577       0.00000000       0.00000000
O        2.59634009       4.46954042       4.61535105       19       0.03392577       0.00000000      -0.00000000
20
Lattice="5.716675299702989 1.56507483011005e-59 -7.762842758223205e-43 -9.043839039993788e-60 5.959529832601349 5.799991685753102e-17 9.206094051224993e-43 -8.907643527000929e-17 9.238559458355695" Properties=species:S:1:pos:R:3:spacegroup_kinds:I:1:forces:R:3 spacegroup="P 1" unit_cell=conventional occupancy="_JSON {\"0\": {\"In\": 1}, \"1\": {\"In\": 1}, \"2\": {\"In\": 1}, \"3\": {\"In\": 1}, \"4\": {\"In\": 1}, \"5\": {\"In\": 1}, \"6\": {\"In\": 1}, \"7\": {\"In\": 1}, \"8\": {\"O\": 1}, \"9\": {\"O\": 1}, \"10\": {\"O\": 1}, \"11\": {\"O\": 1}, \"12\": {\"O\": 1}, \"13\": {\"O\": 1}, \"14\": {\"O\": 1}, \"15\": {\"O\": 1}, \"16\": {\"O\": 1}, \"17\": {\"O\": 1}, \"18\": {\"O\": 1}, \"19\": {\"O\": 1}}" n_minim_iter=6 energy=-22571.57036328347 stress="0.11494511603483565 -4.125733142100007e-15 8.057866490153709e-14 -4.125733142100007e-15 0.11490510855605134 3.3531770213330735e-13 8.057866490153709e-14 3.3531770213330735e-13 0.11479418022992449" free_energy=-22571.57036328347 pbc="T T T"
In       1.36271375       3.19044837       1.15886952        0      -0.00626675      -0.00153100       0.00431698
In       1.49562390       0.21068346       3.46041021        1       0.00626675      -0.00153100      -0.00431698
In       1.49562390       2.76908146       5.77814925        2       0.00626675       0.00153100       0.00431698
In       1.36271375       5.74884637       8.07968994        3      -0.00626675       0.00153100      -0.00431698
In       4.35396155       2.76908146       8.07968994        4       0.00626675       0.00153100      -0.00431698
In       4.22105140       5.74884637       5.77814925        5      -0.00626675       0.00153100       0.00431698
In       4.22105140       3.19044837       3.46041021        6      -0.00626675      -0.00153100      -0.00431698
In       4.35396155       0.21068346       1.15886952        7       0.00626675      -0.00153100       0.00431698
O        2.28070390       3.58849576       7.70803737        8      -0.01132003      -0.01126000      -0.00072814
O        0.57763375       0.60873084       6.14980182        9       0.01132003      -0.01126000       0.00072814
O        0.57763375       2.37103407       3.08875764       10       0.01132003       0.01126000      -0.00072814
O        2.28070390       5.35079899       1.53052209       11      -0.01132003       0.01126000       0.00072814
O        3.43597140       2.37103407       1.53052209       12       0.01132003       0.01126000       0.00072814
O        5.13904155       5.35079899       3.08875764       13      -0.01132003       0.01126000      -0.00072814
O        5.13904155       3.58849576       6.14980182       14      -0.01132003      -0.01126000       0.00072814
O        3.43597140       0.60873084       7.70803737       15       0.01132003      -0.01126000      -0.00072814
O        5.45365643       4.46964737      -0.00000000       16       0.03294948       0.00000000       0.00000000
O        3.12135651       1.48988246       4.61927973       17      -0.03294948      -0.00000000      -0.00000000
O        0.26301887       1.48988246      -0.00000000       18      -0.03294948       0.00000000       0.00000000
O        2.59531878       4.46964737       4.61927973       19       0.03294948      -0.00000000      -0.00000000
20
Lattice="5.711445431456907 1.5986005715235668e-59 -7.558578318466166e-43 -8.891656366978923e-60 5.960359534903072 5.540061762290286e-17 9.458486998643928e-43 -9.318821462636063e-17 9.245731825244945" Properties=species:S:1:pos:R:3:spacegroup_kinds:I:1:forces:R:3 spacegroup="P 1" unit_cell=conventional occupancy="_JSON {\"0\": {\"In\": 1}, \"1\": {\"In\": 1}, \"2\": {\"In\": 1}, \"3\": {\"In\": 1}, \"4\": {\"In\": 1}, \"5\": {\"In\": 1}, \"6\": {\"In\": 1}, \"7\": {\"In\": 1}, \"8\": {\"O\": 1}, \"9\": {\"O\": 1}, \"10\": {\"O\": 1}, \"11\": {\"O\": 1}, \"12\": {\"O\": 1}, \"13\": {\"O\": 1}, \"14\": {\"O\": 1}, \"15\": {\"O\": 1}, \"16\": {\"O\": 1}, \"17\": {\"O\": 1}, \"18\": {\"O\": 1}, \"19\": {\"O\": 1}}" n_minim_iter=7 energy=-22571.570603278153 stress="0.1142107067213803 -8.123663729181329e-13 7.674563668594738e-13 -8.123663729181329e-13 0.11443636484525045 3.0312943484532106e-13 7.674563668594738e-13 3.0312943484532106e-13 0.11513194398784161" free_energy=-22571.570603278153 pbc="T T T"
In       1.35988348       3.19265812       1.16056782        0      -0.00658413      -0.00321334       0.00050465
In       1.49583923       0.21247835       3.46229810        1       0.00658413      -0.00321334      -0.00050465
In       1.49583923       2.76770141       5.78343373        2       0.00658413       0.00321334       0.00050465
In       1.35988348       5.74788118       8.08516401        3      -0.00658413       0.00321334      -0.00050465
In       4.35156195       2.76770141       8.08516401        4       0.00658413       0.00321334      -0.00050465
In       4.21560620       5.74788118       5.78343373        5      -0.00658413       0.00321334       0.00050465
In       4.21560620       3.19265812       3.46229810        6      -0.00658413      -0.00321334      -0.00050465
In       4.35156195       0.21247835       1.16056782        7       0.00658413      -0.00321334       0.00050465
O        2.28017858       3.58812727       7.71325157        8      -0.01507652      -0.01197613       0.00050501
O        0.57554414       0.60794750       6.15534617        9       0.01507652      -0.01197613      -0.00050501
O        0.57554414       2.37223227       3.09038566       10       0.01507652       0.01197613       0.00050501
O        2.28017858       5.35241203       1.53248025       11      -0.01507652       0.01197613      -0.00050501
O        3.43126686       2.37223227       1.53248025       12       0.01507652       0.01197613      -0.00050501
O        5.13590129       5.35241203       3.09038566       13      -0.01507652       0.01197613       0.00050501
O        5.13590129       3.58812727       6.15534617       14      -0.01507652      -0.01197613      -0.00050501
O        3.43126686       0.60794750       7.71325157       15       0.01507652      -0.01197613       0.00050501
O        5.45181734       4.47026965      -0.00000000       16       0.02383426       0.00000000       0.00000000
O        3.11535081       1.49008988       4.62286591       17      -0.02383426      -0.00000000       0.00000000
O        0.25962809       1.49008988      -0.00000000       18      -0.02383426      -0.00000000      -0.00000000
O        2.59609462       4.47026965       4.62286591       19       0.02383426       0.00000000       0.00000000
20
Lattice="5.712507084244308 1.6173570947003959e-59 -6.787347850815833e-43 -9.280752228922106e-60 5.962523153118263 5.3844705675410036e-17 8.817981061384288e-43 -9.558933263350608e-17 9.240659161720522" Properties=species:S:1:pos:R:3:spacegroup_kinds:I:1:forces:R:3 spacegroup="P 1" unit_cell=conventional occupancy="_JSON {\"0\": {\"In\": 1}, \"1\": {\"In\": 1}, \"2\": {\"In\": 1}, \"3\": {\"In\": 1}, \"4\": {\"In\": 1}, \"5\": {\"In\": 1}, \"6\": {\"In\": 1}, \"7\": {\"In\": 1}, \"8\": {\"O\": 1}, \"9\": {\"O\": 1}, \"10\": {\"O\": 1}, \"11\": {\"O\": 1}, \"12\": {\"O\": 1}, \"13\": {\"O\": 1}, \"14\": {\"O\": 1}, \"15\": {\"O\": 1}, \"16\": {\"O\": 1}, \"17\": {\"O\": 1}, \"18\": {\"O\": 1}, \"19\": {\"O\": 1}}" n_minim_iter=8 energy=-22571.571100949255 stress="0.11457058173973529 -1.228687619799199e-13 8.664004957150501e-14 -1.228687619799199e-13 0.11459730297811711 -3.5131042402266953e-13 8.664004957150501e-14 -3.5131042402266953e-13 0.11454560527749556" free_energy=-22571.571100949255 pbc="T T T"
In       1.35871056       3.19431086       1.15982922        0       0.00502121       0.00070165      -0.00217404
In       1.49754298       0.21304929       3.46050037        1      -0.00502121       0.00070165       0.00217404
In       1.49754298       2.76821229       5.78015880        2      -0.00502121      -0.00070165      -0.00217404
In       1.35871056       5.74947387       8.08082995        3       0.00502121      -0.00070165       0.00217404
In       4.35379652       2.76821229       8.08082995        4      -0.00502121      -0.00070165       0.00217404
In       4.21496411       5.74947387       5.78015880        5       0.00502121      -0.00070165      -0.00217404
In       4.21496411       3.19431086       3.46050037        6       0.00502121       0.00070165       0.00217404
In       4.35379652       0.21304929       1.15982922        7      -0.00502121       0.00070165      -0.00217404
O        2.27949741       3.58772776       7.70938123        8       0.00233459      -0.01057509       0.00049105
O        0.57675613       0.60646619       6.15160751        9      -0.00233459      -0.01057509      -0.00049105
O        0.57675613       2.37479539       3.08905165       10      -0.00233459       0.01057509       0.00049105
O        2.27949741       5.35605697       1.53127793       11       0.00233459       0.01057509      -0.00049105
O        3.43300968       2.37479539       1.53127793       12      -0.00233459       0.01057509      -0.00049105
O        5.13575095       5.35605697       3.08905165       13       0.00233459       0.01057509       0.00049105
O        5.13575095       3.58772776       6.15160751       14       0.00233459      -0.01057509      -0.00049105
O        3.43300968       0.60646619       7.70938123       15      -0.00233459      -0.01057509       0.00049105
O        5.45815172       4.47189236      -0.00000000       16      -0.00344685      -0.00000000      -0.00000000
O        3.11060891       1.49063079       4.62032958       17       0.00344685      -0.00000000       0.00000000
O        0.25435536       1.49063079      -0.00000000       18       0.00344685      -0.00000000      -0.00000000
O        2.60189818       4.47189236       4.62032958       19      -0.00344685      -0.00000000      -0.00000000
20
Lattice="5.713259834111174 1.6173351179369028e-59 -6.982157363657216e-43 -9.369738338629982e-60 5.961220888275059 5.3849372525243886e-17 8.662593467997598e-43 -9.556845512509608e-17 9.241460071821757" Properties=species:S:1:pos:R:3:spacegroup_kinds:I:1:forces:R:3 spacegroup="P 1" unit_cell=conventional occupancy="_JSON {\"0\": {\"In\": 1}, \"1\": {\"In\": 1}, \"2\": {\"In\": 1}, \"3\": {\"In\": 1}, \"4\": {\"In\": 1}, \"5\": {\"In\": 1}, \"6\": {\"In\": 1}, \"7\": {\"In\": 1}, \"8\": {\"O\": 1}, \"9\": {\"O\": 1}, \"10\": {\"O\": 1}, \"11\": {\"O\": 1}, \"12\": {\"O\": 1}, \"13\": {\"O\": 1}, \"14\": {\"O\": 1}, \"15\": {\"O\": 1}, \"16\": {\"O\": 1}, \"17\": {\"O\": 1}, \"18\": {\"O\": 1}, \"19\": {\"O\": 1}}" n_minim_iter=9 energy=-22571.571161135453 stress="0.1146667623880167 3.8595087317673564e-13 -4.660932546428814e-13 3.8595087317673564e-13 0.11452714193347519 9.348061467165497e-13 -4.660932546428814e-13 9.348061467165497e-13 0.1146694746686228" free_energy=-22571.571161135453 pbc="T T T"
In       1.35957943       3.19311025       1.15989889        0       0.00056336       0.00265418      -0.00467812
In       1.49705048       0.21249980       3.46083115        1      -0.00056336       0.00265418       0.00467812
In       1.49705048       2.76811064       5.78062893        2      -0.00056336      -0.00265418      -0.00467812
In       1.35957943       5.74872109       8.08156118        3       0.00056336      -0.00265418       0.00467812
In       4.35368040       2.76811064       8.08156118        4      -0.00056336      -0.00265418       0.00467812
In       4.21620935       5.74872109       5.78062893        5       0.00056336      -0.00265418      -0.00467812
In       4.21620935       3.19311025       3.46083115        6       0.00056336       0.00265418       0.00467812
In       4.35368040       0.21249980       1.15989889        7      -0.00056336       0.00265418      -0.00467812
O        2.27933285       3.58613837       7.71007394        8       0.00264800      -0.00693196       0.00278008
O        0.57729707       0.60552793       6.15211617        9      -0.00264800      -0.00693196      -0.00278008
O        0.57729707       2.37508252       3.08934390       10      -0.00264800       0.00693196       0.00278008
O        2.27933285       5.35569296       1.53138613       11       0.00264800       0.00693196      -0.00278008
O        3.43392699       2.37508252       1.53138613       12      -0.00264800       0.00693196      -0.00278008
O        5.13596276       5.35569296       3.08934390       13       0.00264800       0.00693196       0.00278008
O        5.13596276       3.58613837       6.15211617       14       0.00264800      -0.00693196      -0.00278008
O        3.43392699       0.60552793       7.71007394       15      -0.00264800      -0.00693196       0.00278008
O        5.45835681       4.47091567      -0.00000000       16      -0.00314526      -0.00000000      -0.00000000
O        3.11153294       1.49030522       4.62073004       17       0.00314526      -0.00000000       0.00000000
O        0.25490303       1.49030522      -0.00000000       18       0.00314526       0.00000000      -0.00000000
O        2.60172689       4.47091567       4.62073004       19      -0.00314526      -0.00000000       0.00000000
