20
Lattice="5.588368595175254 -4.81891768258884e-62 1.1369360886034839e-43 -2.8682956676519546e-63 5.686695022283702 2.5512977230831403e-18 -1.6448629592408125e-43 -3.627270266925231e-18 8.084975573322849" Properties=species:S:1:pos:R:3:spacegroup_kinds:I:1:forces:R:3 spacegroup="P 1" unit_cell=conventional occupancy="_JSON {\"0\": {\"In\": 1}, \"1\": {\"In\": 1}, \"2\": {\"In\": 1}, \"3\": {\"In\": 1}, \"4\": {\"In\": 1}, \"5\": {\"In\": 1}, \"6\": {\"In\": 1}, \"7\": {\"In\": 1}, \"8\": {\"O\": 1}, \"9\": {\"O\": 1}, \"10\": {\"O\": 1}, \"11\": {\"O\": 1}, \"12\": {\"O\": 1}, \"13\": {\"O\": 1}, \"14\": {\"O\": 1}, \"15\": {\"O\": 1}, \"16\": {\"O\": 1}, \"17\": {\"O\": 1}, \"18\": {\"O\": 1}, \"19\": {\"O\": 1}}" n_minim_iter=1 energy=-22574.95757996707 stress="-0.0005700927413788672 -1.1441302711190824e-13 5.827275296039092e-13 -1.1441302711190824e-13 -0.0002548165804087191 -2.1526902434163347e-13 5.827275296039092e-13 -2.1526902434163347e-13 -7.741436765681463e-05" free_energy=-22574.95757996707 pbc="T T T"
In       1.38648725       3.00526698       0.92698703        0      -0.00140005      -0.00219441      -0.00660397
In       1.40769705       0.16191946       3.11550075        1       0.00140005      -0.00219441       0.00660397
In       1.40769705       2.68142805       4.96947482        2       0.00140005       0.00219441      -0.00660397
In       1.38648725       5.52477556       7.15798854        3      -0.00140005       0.00219441       0.00660397
In       4.20188135       2.68142805       7.15798854        4       0.00140005       0.00219441       0.00660397
In       4.18067154       5.52477556       4.96947482        5      -0.00140005       0.00219441      -0.00660397
In       4.18067154       3.00526698       3.11550075        6      -0.00140005      -0.00219441       0.00660397
In       4.20188135       0.16191946       0.92698703        7       0.00140005      -0.00219441      -0.00660397
O        2.18021466       3.43541376       6.86598977        8      -0.00577890       0.00018773       0.00200215
O        0.61396964       0.59206625       5.26147359        9       0.00577890       0.00018773      -0.00200215
O        0.61396964       2.25128126       2.82350198       10       0.00577890      -0.00018773       0.00200215
O        2.18021466       5.09462877       1.21898581       11      -0.00577890      -0.00018773      -0.00200215
O        3.40815394       2.25128126       1.21898581       12       0.00577890      -0.00018773      -0.00200215
O        4.97439896       5.09462877       2.82350198       13      -0.00577890      -0.00018773       0.00200215
O        4.97439896       3.43541376       5.26147359       14      -0.00577890       0.00018773      -0.00200215
O        3.40815394       0.59206625       6.86598977       15       0.00577890       0.00018773       0.00200215
O        5.35380797       4.26502127      -0.00000000       16       0.00096281      -0.00000000       0.00000000
O        3.02874493       1.42167376       4.04248779       17      -0.00096281      -0.00000000      -0.00000000
O        0.23456063       1.42167376      -0.00000000       18      -0.00096281      -0.00000000       0.00000000
O        2.55962367       4.26502127       4.04248779       19       0.00096281       0.00000000      -0.00000000
