20
Lattice="5.700578317535672 -1.8430386659597427e-61 -1.1306421787162947e-43 -5.306360300030921e-61 5.7393499812862405 1.3128776030651804e-17 -3.999258948418121e-43 -2.475948304741394e-17 8.24577285364936" Properties=species:S:1:pos:R:3:spacegroup_kinds:I:1:forces:R:3 spacegroup="P 1" unit_cell=conventional occupancy="_JSON {\"0\": {\"In\": 1}, \"1\": {\"In\": 1}, \"2\": {\"In\": 1}, \"3\": {\"In\": 1}, \"4\": {\"In\": 1}, \"5\": {\"In\": 1}, \"6\": {\"In\": 1}, \"7\": {\"In\": 1}, \"8\": {\"O\": 1}, \"9\": {\"O\": 1}, \"10\": {\"O\": 1}, \"11\": {\"O\": 1}, \"12\": {\"O\": 1}, \"13\": {\"O\": 1}, \"14\": {\"O\": 1}, \"15\": {\"O\": 1}, \"16\": {\"O\": 1}, \"17\": {\"O\": 1}, \"18\": {\"O\": 1}, \"19\": {\"O\": 1}}" n_minim_iter=6 energy=-22574.754472603938 stress="0.03124926738319635 -6.057034568263062e-13 6.191387197116249e-13 -6.057034568263062e-13 0.031276158339190493 1.0921413399512403e-12 6.191387197116249e-13 1.0921413399512403e-12 0.03125205555043522" free_energy=-22574.754472603938 pbc="T T T"
In       1.41260603       3.01563911       0.95248897        0      -0.00298771      -0.00175487      -0.00335868
In       1.43768313       0.14596412       3.17039746        1       0.00298771      -0.00175487       0.00335868
In       1.43768313       2.72371087       5.07537540        2       0.00298771       0.00175487      -0.00335868
In       1.41260603       5.59338586       7.29328388        3      -0.00298771       0.00175487       0.00335868
In       4.28797229       2.72371087       7.29328388        4       0.00298771       0.00175487       0.00335868
In       4.26289519       5.59338586       5.07537540        5      -0.00298771       0.00175487      -0.00335868
In       4.26289519       3.01563911       3.17039746        6      -0.00298771      -0.00175487       0.00335868
In       4.28797229       0.14596412       0.95248897        7       0.00298771      -0.00175487      -0.00335868
O        2.22586375       3.45990047       7.00234587        8      -0.00079220       0.00061998      -0.00101026
O        0.62442540       0.59022548       5.36631341        9       0.00079220       0.00061998       0.00101026
O        0.62442540       2.27944951       2.87945945       10       0.00079220      -0.00061998      -0.00101026
O        2.22586375       5.14912450       1.24342698       11      -0.00079220      -0.00061998       0.00101026
O        3.47471456       2.27944951       1.24342698       12       0.00079220      -0.00061998       0.00101026
O        5.07615291       5.14912450       2.87945945       13      -0.00079220      -0.00061998      -0.00101026
O        5.07615291       3.45990047       5.36631341       14      -0.00079220       0.00061998       0.00101026
O        3.47471456       0.59022548       7.00234587       15       0.00079220       0.00061998      -0.00101026
O        5.46215096       4.30451249      -0.00000000       16       0.00238893       0.00000000       0.00000000
O        3.08871652       1.43483750       4.12288643       17      -0.00238893      -0.00000000      -0.00000000
O        0.23842736       1.43483750      -0.00000000       18      -0.00238893      -0.00000000       0.00000000
O        2.61186180       4.30451249       4.12288643       19       0.00238893       0.00000000       0.00000000
