20
Lattice="5.8441157407046695 -2.0897239073651627e-60 1.3820129787761009e-43 1.604959811256799e-60 5.848342639301749 2.0563124799047856e-17 -1.9999443513196887e-43 -2.973588720629624e-17 8.457160998901397" Properties=species:S:1:pos:R:3:spacegroup_kinds:I:1:forces:R:3 spacegroup="P 1" unit_cell=conventional occupancy="_JSON {\"0\": {\"In\": 1}, \"1\": {\"In\": 1}, \"2\": {\"In\": 1}, \"3\": {\"In\": 1}, \"4\": {\"In\": 1}, \"5\": {\"In\": 1}, \"6\": {\"In\": 1}, \"7\": {\"In\": 1}, \"8\": {\"O\": 1}, \"9\": {\"O\": 1}, \"10\": {\"O\": 1}, \"11\": {\"O\": 1}, \"12\": {\"O\": 1}, \"13\": {\"O\": 1}, \"14\": {\"O\": 1}, \"15\": {\"O\": 1}, \"16\": {\"O\": 1}, \"17\": {\"O\": 1}, \"18\": {\"O\": 1}, \"19\": {\"O\": 1}}" n_minim_iter=1 energy=-22573.751970488156 stress="0.07386222525965601 -2.2399665973566506e-13 -1.554391506439222e-13 -2.2399665973566506e-13 0.07339396455813359 2.478538556822922e-14 -1.554391506439222e-13 2.478538556822922e-14 0.07088704076209322" free_energy=-22573.751970488156 pbc="T T T"
In       1.44754462       3.06635048       0.98486232        0      -0.00679003       0.00380197      -0.00243334
In       1.47451325       0.14217916       3.24371818        1       0.00679003       0.00380197       0.00243334
In       1.47451325       2.78199216       5.21344282        2       0.00679003      -0.00380197      -0.00243334
In       1.44754462       5.70616348       7.47229868        3      -0.00679003      -0.00380197       0.00243334
In       4.39657112       2.78199216       7.47229868        4       0.00679003      -0.00380197       0.00243334
In       4.36960249       5.70616348       5.21344282        5      -0.00679003      -0.00380197      -0.00243334
In       4.36960249       3.06635048       3.24371818        6      -0.00679003       0.00380197       0.00243334
In       4.39657112       0.14217916       0.98486232        7       0.00679003       0.00380197      -0.00243334
O        2.28391960       3.51268116       7.17760197        8       0.02047608      -0.04982731      -0.05311396
O        0.63813827       0.58850984       5.50813953        9      -0.02047608      -0.04982731       0.05311396
O        0.63813827       2.33566148       2.94902147       10      -0.02047608       0.04982731      -0.05311396
O        2.28391960       5.25983280       1.27955903       11       0.02047608       0.04982731       0.05311396
O        3.56019614       2.33566148       1.27955903       12      -0.02047608       0.04982731       0.05311396
O        5.20597747       5.25983280       2.94902147       13       0.02047608       0.04982731      -0.05311396
O        5.20597747       3.51268116       5.50813953       14       0.02047608      -0.04982731       0.05311396
O        3.56019614       0.58850984       7.17760197       15      -0.02047608      -0.04982731      -0.05311396
O        5.58482037       4.38625698      -0.00000000       16      -0.07267348      -0.00000000      -0.00000000
O        3.18135324       1.46208566       4.22858050       17       0.07267348       0.00000000       0.00000000
O        0.25929537       1.46208566      -0.00000000       18       0.07267348      -0.00000000      -0.00000000
O        2.66276250       4.38625698       4.22858050       19      -0.07267348       0.00000000      -0.00000000
20
Lattice="5.8351625941082945 -2.334505963750118e-60 1.3263000643506157e-43 1.207140012226182e-60 5.84303651068811 2.395275158675633e-17 -2.2746639344714816e-43 -2.4916705788286197e-17 8.477829021903139" Properties=species:S:1:pos:R:3:spacegroup_kinds:I:1:forces:R:3 spacegroup="P 1" unit_cell=conventional occupancy="_JSON {\"0\": {\"In\": 1}, \"1\": {\"In\": 1}, \"2\": {\"In\": 1}, \"3\": {\"In\": 1}, \"4\": {\"In\": 1}, \"5\": {\"In\": 1}, \"6\": {\"In\": 1}, \"7\": {\"In\": 1}, \"8\": {\"O\": 1}, \"9\": {\"O\": 1}, \"10\": {\"O\": 1}, \"11\": {\"O\": 1}, \"12\": {\"O\": 1}, \"13\": {\"O\": 1}, \"14\": {\"O\": 1}, \"15\": {\"O\": 1}, \"16\": {\"O\": 1}, \"17\": {\"O\": 1}, \"18\": {\"O\": 1}, \"19\": {\"O\": 1}}" n_minim_iter=2 energy=-22573.75311160544 stress="0.07210989736705832 3.48199592098055e-13 -3.8206338385927336e-13 3.48199592098055e-13 0.07249957148679545 7.519631713227093e-13 -3.8206338385927336e-13 7.519631713227093e-13 0.07271668749179784" free_energy=-22573.75311160544 pbc="T T T"
In       1.44529566       3.06358597       0.98725790        0      -0.01454898       0.00124441       0.01326800
In       1.47228563       0.14206772       3.25165661        1       0.01454898       0.00124441      -0.01326800
In       1.47228563       2.77945054       5.22617241        2       0.01454898      -0.00124441       0.01326800
In       1.44529566       5.70096879       7.49057112        3      -0.01454898      -0.00124441      -0.01326800
In       4.38986693       2.77945054       7.49057112        4       0.01454898      -0.00124441      -0.01326800
In       4.36287696       5.70096879       5.22617241        5      -0.01454898      -0.00124441       0.01326800
In       4.36287696       3.06358597       3.25165661        6      -0.01454898       0.00124441      -0.01326800
In       4.38986693       0.14206772       0.98725790        7       0.01454898       0.00124441       0.01326800
O        2.28051513       3.50926410       7.19489690        8       0.01299936      -0.04657917      -0.06668692
O        0.63706617       0.58774585       5.52184664        9      -0.01299936      -0.04657917       0.06668692
O        0.63706617       2.33377241       2.95598239       10      -0.01299936       0.04657917      -0.06668692
O        2.28051513       5.25529066       1.28293212       11       0.01299936       0.04657917       0.06668692
O        3.55464746       2.33377241       1.28293212       12      -0.01299936       0.04657917       0.06668691
O        5.19809643       5.25529066       2.95598239       13       0.01299936       0.04657917      -0.06668692
O        5.19809643       3.50926410       5.52184664       14       0.01299936      -0.04657917       0.06668692
O        3.55464746       0.58774585       7.19489690       15      -0.01299936      -0.04657917      -0.06668692
O        5.57592915       4.38227738      -0.00000000       16      -0.07229164       0.00000000      -0.00000000
O        3.17681474       1.46075913       4.23891451       17       0.07229164      -0.00000000       0.00000000
O        0.25923345       1.46075913      -0.00000000       18       0.07229164      -0.00000000      -0.00000000
O        2.65834785       4.38227738       4.23891451       19      -0.07229164       0.00000000       0.00000000
20
Lattice="5.843607396613024 -2.333685190245837e-60 1.3273545003452497e-43 1.2040240064406232e-60 5.829207436126811 2.397487944781726e-17 -2.2784948270311657e-43 -2.4857733885314528e-17 8.48566094977228" Properties=species:S:1:pos:R:3:spacegroup_kinds:I:1:forces:R:3 spacegroup="P 1" unit_cell=conventional occupancy="_JSON {\"0\": {\"In\": 1}, \"1\": {\"In\": 1}, \"2\": {\"In\": 1}, \"3\": {\"In\": 1}, \"4\": {\"In\": 1}, \"5\": {\"In\": 1}, \"6\": {\"In\": 1}, \"7\": {\"In\": 1}, \"8\": {\"O\": 1}, \"9\": {\"O\": 1}, \"10\": {\"O\": 1}, \"11\": {\"O\": 1}, \"12\": {\"O\": 1}, \"13\": {\"O\": 1}, \"14\": {\"O\": 1}, \"15\": {\"O\": 1}, \"16\": {\"O\": 1}, \"17\": {\"O\": 1}, \"18\": {\"O\": 1}, \"19\": {\"O\": 1}}" n_minim_iter=3 energy=-22573.755178507094 stress="0.07372289184853431 -6.286351210150838e-13 1.1049325115611929e-13 -6.286351210150838e-13 0.07030549815450492 -1.2690977774542125e-13 1.1049325115611929e-13 -1.2690977774542125e-13 0.07265233524231222" free_energy=-22573.755178507094 pbc="T T T"
In       1.44669289       3.05642124       0.98873551        0       0.00236093      -0.00144950       0.01615437
In       1.47511081       0.14181752       3.25409496        1      -0.00236093      -0.00144950      -0.01615437
In       1.47511081       2.77278620       5.23156599        2      -0.00236093       0.00144950       0.01615437
In       1.44669289       5.68738992       7.49692544        3       0.00236093       0.00144950      -0.01615437
In       4.39691450       2.77278620       7.49692544        4      -0.00236093       0.00144950      -0.01615437
In       4.36849659       5.68738992       5.23156599        5       0.00236093       0.00144950       0.01615437
In       4.36849659       3.05642124       3.25409496        6       0.00236093      -0.00144950      -0.01615437
In       4.39691450       0.14181752       0.98873551        7      -0.00236093      -0.00144950       0.01615437
O        2.28455629       3.49850735       7.19815373        8       0.00439102      -0.02970382      -0.03547268
O        0.63724741       0.58390364       5.53033770        9      -0.00439102      -0.02970382       0.03547268
O        0.63724741       2.33070008       2.95532325       10      -0.00439102       0.02970382      -0.03547268
O        2.28455629       5.24530380       1.28750722       11       0.00439102       0.02970382       0.03547268
O        3.55905111       2.33070008       1.28750722       12      -0.00439102       0.02970382       0.03547268
O        5.20635999       5.24530380       2.95532325       13       0.00439102       0.02970382      -0.03547268
O        5.20635999       3.49850735       5.53033770       14       0.00439102      -0.02970382       0.03547268
O        3.55905111       0.58390364       7.19815373       15      -0.00439102      -0.02970382      -0.03547268
O        5.58022326       4.37190558      -0.00000000       16      -0.02835066       0.00000000      -0.00000000
O        3.18518784       1.45730186       4.24283047       17       0.02835066      -0.00000000       0.00000000
O        0.26338414       1.45730186      -0.00000000       18       0.02835066      -0.00000000       0.00000000
O        2.65841956       4.37190558       4.24283047       19      -0.02835066      -0.00000000      -0.00000000
20
Lattice="5.82336585135896 -2.3335079472946328e-60 1.4286771702373847e-43 1.2715419889118881e-60 5.8501390487253975 2.3972134645619164e-17 -2.047081309722704e-43 -2.494699343928777e-17 8.484689455384666" Properties=species:S:1:pos:R:3:spacegroup_kinds:I:1:forces:R:3 spacegroup="P 1" unit_cell=conventional occupancy="_JSON {\"0\": {\"In\": 1}, \"1\": {\"In\": 1}, \"2\": {\"In\": 1}, \"3\": {\"In\": 1}, \"4\": {\"In\": 1}, \"5\": {\"In\": 1}, \"6\": {\"In\": 1}, \"7\": {\"In\": 1}, \"8\": {\"O\": 1}, \"9\": {\"O\": 1}, \"10\": {\"O\": 1}, \"11\": {\"O\": 1}, \"12\": {\"O\": 1}, \"13\": {\"O\": 1}, \"14\": {\"O\": 1}, \"15\": {\"O\": 1}, \"16\": {\"O\": 1}, \"17\": {\"O\": 1}, \"18\": {\"O\": 1}, \"19\": {\"O\": 1}}" n_minim_iter=4 energy=-22573.75744662147 stress="0.07039024183684497 6.639909038863686e-13 1.179560519776464e-13 6.639909038863686e-13 0.07173218013537662 -3.7063465628749295e-13 1.179560519776464e-13 -3.7063465628749295e-13 0.07061014835894311" free_energy=-22573.75744662147 pbc="T T T"
In       1.44043749       3.06753472       0.98989994        0       0.00161052       0.03149850       0.00735929
In       1.47124543       0.14246520       3.25244478        1      -0.00161052       0.03149850      -0.00735929
In       1.47124543       2.78260433       5.23224467        2      -0.00161052      -0.03149850       0.00735929
In       1.44043749       5.70767385       7.49478951        3       0.00161052      -0.03149850      -0.00735929
In       4.38292836       2.78260433       7.49478951        4      -0.00161052      -0.03149850      -0.00735929
In       4.35212042       5.70767385       5.23224467        5       0.00161052      -0.03149850       0.00735929
In       4.35212042       3.06753472       3.25244478        6       0.00161052       0.03149850      -0.00735929
In       4.38292836       0.14246520       0.98989994        7      -0.00161052       0.03149850       0.00735929
O        2.27806689       3.50610718       7.19056275        8      -0.00143951      -0.00174177       0.01128772
O        0.63361603       0.58103765       5.53647143        9       0.00143951      -0.00174177      -0.01128772
O        0.63361603       2.34403187       2.94821802       10       0.00143951       0.00174177       0.01128772
O        2.27806689       5.26910139       1.29412670       11      -0.00143951       0.00174177      -0.01128772
O        3.54529896       2.34403187       1.29412670       12       0.00143951       0.00174177      -0.01128772
O        5.18974982       5.26910139       2.94821802       13      -0.00143951       0.00174177       0.01128772
O        5.18974982       3.50610718       5.53647143       14      -0.00143951      -0.00174177      -0.01128772
O        3.54529896       0.58103765       7.19056275       15       0.00143951      -0.00174177       0.01128772
O        5.55354702       4.38760429      -0.00000000       16       0.03991026       0.00000000       0.00000000
O        3.18150175       1.46253476       4.24234473       17      -0.03991026      -0.00000000      -0.00000000
O        0.26981883       1.46253476      -0.00000000       18      -0.03991026       0.00000000       0.00000000
O        2.64186410       4.38760429       4.24234473       19       0.03991026       0.00000000       0.00000000
20
Lattice="5.828545914159673 -2.3333302721009892e-60 1.5097101573907363e-43 1.2601638295738855e-60 5.844015042335879 2.397264759113046e-17 -2.085407830040644e-43 -2.4925622280285907e-17 8.486032066782553" Properties=species:S:1:pos:R:3:spacegroup_kinds:I:1:forces:R:3 spacegroup="P 1" unit_cell=conventional occupancy="_JSON {\"0\": {\"In\": 1}, \"1\": {\"In\": 1}, \"2\": {\"In\": 1}, \"3\": {\"In\": 1}, \"4\": {\"In\": 1}, \"5\": {\"In\": 1}, \"6\": {\"In\": 1}, \"7\": {\"In\": 1}, \"8\": {\"O\": 1}, \"9\": {\"O\": 1}, \"10\": {\"O\": 1}, \"11\": {\"O\": 1}, \"12\": {\"O\": 1}, \"13\": {\"O\": 1}, \"14\": {\"O\": 1}, \"15\": {\"O\": 1}, \"16\": {\"O\": 1}, \"17\": {\"O\": 1}, \"18\": {\"O\": 1}, \"19\": {\"O\": 1}}" n_minim_iter=5 energy=-22573.757983063006 stress="0.07124117769274056 4.11727742669923e-13 -2.570258519223733e-13 4.11727742669923e-13 0.07127504421368507 1.1074108735521237e-13 -2.570258519223733e-13 1.1074108735521237e-13 0.07126281490921256" free_energy=-22573.757983063006 pbc="T T T"
In       1.44207222       3.06460208       0.98986587        0       0.00033420       0.02067524       0.00974874
In       1.47220074       0.14259456       3.25315016        1      -0.00033420       0.02067524      -0.00974874
In       1.47220074       2.77941296       5.23288190        2      -0.00033420      -0.02067524       0.00974874
In       1.44207222       5.70142049       7.49616620        3       0.00033420      -0.02067524      -0.00974874
In       4.38647370       2.77941296       7.49616620        4      -0.00033420      -0.02067524      -0.00974874
In       4.35634517       5.70142049       5.23288190        5       0.00033420      -0.02067524       0.00974874
In       4.35634517       3.06460208       3.25315016        6       0.00033420       0.02067524      -0.00974874
In       4.38647370       0.14259456       0.98986587        7      -0.00033420       0.02067524       0.00974874
O        2.27971464       3.50361716       7.19346355        8       0.00010201      -0.00895969      -0.00139412
O        0.63455832       0.58160964       5.53558455        9      -0.00010201      -0.00895969       0.00139412
O        0.63455832       2.34039788       2.95044751       10      -0.00010201       0.00895969      -0.00139412
O        2.27971464       5.26240540       1.29256852       11       0.00010201       0.00895969       0.00139412
O        3.54883128       2.34039788       1.29256852       12      -0.00010201       0.00895969       0.00139412
O        5.19398760       5.26240540       2.95044751       13       0.00010201       0.00895969      -0.00139412
O        5.19398760       3.50361716       5.53558455       14       0.00010201      -0.00895969       0.00139412
O        3.54883128       0.58160964       7.19346355       15      -0.00010201      -0.00895969      -0.00139412
O        5.56073158       4.38301128      -0.00000000       16       0.01893667      -0.00000000       0.00000000
O        3.18208729       1.46100376       4.24301603       17      -0.01893667       0.00000000      -0.00000000
O        0.26781433       1.46100376      -0.00000000       18      -0.01893667      -0.00000000       0.00000000
O        2.64645862       4.38301128       4.24301603       19       0.01893667      -0.00000000      -0.00000000
20
Lattice="5.830777909767463 -2.1791366756632239e-60 1.4347050833520503e-43 1.2602341681936672e-60 5.841159317895104 2.997165018114102e-17 -2.0846755602511564e-43 -1.6242754209882658e-17 8.486930858082754" Properties=species:S:1:pos:R:3:spacegroup_kinds:I:1:forces:R:3 spacegroup="P 1" unit_cell=conventional occupancy="_JSON {\"0\": {\"In\": 1}, \"1\": {\"In\": 1}, \"2\": {\"In\": 1}, \"3\": {\"In\": 1}, \"4\": {\"In\": 1}, \"5\": {\"In\": 1}, \"6\": {\"In\": 1}, \"7\": {\"In\": 1}, \"8\": {\"O\": 1}, \"9\": {\"O\": 1}, \"10\": {\"O\": 1}, \"11\": {\"O\": 1}, \"12\": {\"O\": 1}, \"13\": {\"O\": 1}, \"14\": {\"O\": 1}, \"15\": {\"O\": 1}, \"16\": {\"O\": 1}, \"17\": {\"O\": 1}, \"18\": {\"O\": 1}, \"19\": {\"O\": 1}}" n_minim_iter=6 energy=-22573.7582736758 stress="0.07169381683353034 -1.6235605467275602e-14 4.555776968238018e-13 -1.6235605467275602e-14 0.07090274699625186 -3.6058222933736555e-13 4.555776968238018e-13 -3.6058222933736555e-13 0.07144484556862844" free_energy=-22573.7582736758 pbc="T T T"
In       1.44277062       3.06490013       0.99072521        0      -0.00566225       0.00803198       0.00418191
In       1.47261833       0.14432047       3.25274022        1       0.00566225       0.00803198      -0.00418191
In       1.47261833       2.77625919       5.23419064        2       0.00566225      -0.00803198       0.00418191
In       1.44277062       5.69683885       7.49620565        3      -0.00566225      -0.00803198      -0.00418191
In       4.38800728       2.77625919       7.49620565        4       0.00566225      -0.00803198      -0.00418191
In       4.35815958       5.69683885       5.23419064        5      -0.00566225      -0.00803198       0.00418191
In       4.35815958       3.06490013       3.25274022        6      -0.00566225       0.00803198      -0.00418191
In       4.38800728       0.14432047       0.99072521        7       0.00566225       0.00803198       0.00418191
O        2.28047922       3.50152625       7.19465576        8       0.00287847      -0.01203999      -0.00366263
O        0.63490973       0.58094659       5.53574053        9      -0.00287847      -0.01204000       0.00366263
O        0.63490973       2.33963307       2.95119033       10      -0.00287847       0.01203999      -0.00366263
O        2.28047922       5.26021273       1.29227510       11       0.00287847       0.01203999       0.00366263
O        3.55029869       2.33963307       1.29227510       12      -0.00287847       0.01204000       0.00366263
O        5.19586818       5.26021273       2.95119033       13       0.00287847       0.01203999      -0.00366263
O        5.19586818       3.50152625       5.53574053       14       0.00287847      -0.01203999       0.00366263
O        3.55029869       0.58094659       7.19465576       15      -0.00287847      -0.01204000      -0.00366263
O        5.56512211       4.38086949      -0.00000000       16      -0.00259768       0.00000000       0.00000000
O        3.18104475       1.46028983       4.24346543       17       0.00259768       0.00000000      -0.00000000
O        0.26565580       1.46028983      -0.00000000       18       0.00259768       0.00000000       0.00000000
O        2.64973316       4.38086949       4.24346543       19      -0.00259768      -0.00000000      -0.00000000
20
Lattice="5.825161202244376 -2.1480676595681306e-60 1.4604971791585397e-43 1.260824127298576e-60 5.845771778009284 3.119953443533949e-17 -2.0840975318148897e-43 -1.4486831743298063e-17 8.488411226260366" Properties=species:S:1:pos:R:3:spacegroup_kinds:I:1:forces:R:3 spacegroup="P 1" unit_cell=conventional occupancy="_JSON {\"0\": {\"In\": 1}, \"1\": {\"In\": 1}, \"2\": {\"In\": 1}, \"3\": {\"In\": 1}, \"4\": {\"In\": 1}, \"5\": {\"In\": 1}, \"6\": {\"In\": 1}, \"7\": {\"In\": 1}, \"8\": {\"O\": 1}, \"9\": {\"O\": 1}, \"10\": {\"O\": 1}, \"11\": {\"O\": 1}, \"12\": {\"O\": 1}, \"13\": {\"O\": 1}, \"14\": {\"O\": 1}, \"15\": {\"O\": 1}, \"16\": {\"O\": 1}, \"17\": {\"O\": 1}, \"18\": {\"O\": 1}, \"19\": {\"O\": 1}}" n_minim_iter=7 energy=-22573.758672796695 stress="0.07089357545850135 -1.3852374549324271e-12 -1.5348178147428819e-13 -1.3852374549324271e-12 0.07086911931440561 -3.016895721364261e-13 -1.5348178147428819e-13 -3.016895721364261e-13 0.07089751450612625" free_energy=-22573.758672796695 pbc="T T T"
In       1.44084326       3.07035601       0.99254925        0      -0.01365418       0.00254531      -0.00683195
In       1.47173734       0.14747012       3.25165636        1       0.01365418       0.00254531       0.00683195
In       1.47173734       2.77541577       5.23675487        2       0.01365418      -0.00254531      -0.00683195
In       1.44084326       5.69830166       7.49586197        3      -0.01365418      -0.00254531       0.00683195
In       4.38431794       2.77541577       7.49586197        4       0.01365418      -0.00254531       0.00683195
In       4.35342386       5.69830166       5.23675487        5      -0.01365418      -0.00254531      -0.00683195
In       4.35342386       3.07035601       3.25165636        6      -0.01365418       0.00254531       0.00683195
In       4.38431794       0.14747012       0.99254925        7       0.01365418       0.00254531      -0.00683195
O        2.27878340       3.50148317       7.19393482        8       0.00448101      -0.00545330       0.01028047
O        0.63379720       0.57859728       5.53868202        9      -0.00448101      -0.00545330      -0.01028047
O        0.63379720       2.34428861       2.94972921       10      -0.00448101       0.00545330       0.01028047
O        2.27878340       5.26717450       1.29447641       11       0.00448101       0.00545330      -0.01028047
O        3.54637780       2.34428861       1.29447641       12      -0.00448101       0.00545330      -0.01028047
O        5.19136400       5.26717450       2.94972921       13       0.00448101       0.00545330       0.01028047
O        5.19136400       3.50148317       5.53868202       14       0.00448101      -0.00545330      -0.01028047
O        3.54637780       0.57859728       7.19393482       15      -0.00448101      -0.00545330       0.01028047
O        5.56021860       4.38432883      -0.00000000       16      -0.00717106       0.00000000       0.00000000
O        3.17752320       1.46144294       4.24420561       17       0.00717106       0.00000000       0.00000000
O        0.26494260       1.46144294      -0.00000000       18       0.00717106      -0.00000000      -0.00000000
O        2.64763800       4.38432883       4.24420561       19      -0.00717106      -0.00000000       0.00000000
20
Lattice="5.823606172233486 -2.1594607935183503e-60 1.4828888626032782e-43 1.2552592701267018e-60 5.848273303843099 3.073311708616249e-17 -2.1011535687311936e-43 -1.516056506916088e-17 8.487046036060057" Properties=species:S:1:pos:R:3:spacegroup_kinds:I:1:forces:R:3 spacegroup="P 1" unit_cell=conventional occupancy="_JSON {\"0\": {\"In\": 1}, \"1\": {\"In\": 1}, \"2\": {\"In\": 1}, \"3\": {\"In\": 1}, \"4\": {\"In\": 1}, \"5\": {\"In\": 1}, \"6\": {\"In\": 1}, \"7\": {\"In\": 1}, \"8\": {\"O\": 1}, \"9\": {\"O\": 1}, \"10\": {\"O\": 1}, \"11\": {\"O\": 1}, \"12\": {\"O\": 1}, \"13\": {\"O\": 1}, \"14\": {\"O\": 1}, \"15\": {\"O\": 1}, \"16\": {\"O\": 1}, \"17\": {\"O\": 1}, \"18\": {\"O\": 1}, \"19\": {\"O\": 1}}" n_minim_iter=8 energy=-22573.75884431229 stress="0.07065303247927819 -1.0337758316976025e-13 3.562803983488108e-13 -1.0337758316976025e-13 0.07094874794089731 1.0870240969336436e-12 3.562803983488108e-13 1.0870240969336436e-12 0.07076562439594143" free_energy=-22573.75884431229 pbc="T T T"
In       1.43937620       3.07220787       0.99211274        0      -0.00495667       0.00443945      -0.00223065
In       1.47242688       0.14807122       3.25141028        1       0.00495667       0.00443945       0.00223065
In       1.47242688       2.77606543       5.23563576        2       0.00495667      -0.00443945      -0.00223065
In       1.43937620       5.70020208       7.49493329        3      -0.00495667      -0.00443945       0.00223065
In       4.38422997       2.77606543       7.49493329        4       0.00495667      -0.00443945       0.00223065
In       4.35117929       5.70020208       5.23563576        5      -0.00495667      -0.00443945      -0.00223065
In       4.35117929       3.07220787       3.25141028        6      -0.00495667       0.00443945       0.00223065
In       4.38422997       0.14807122       0.99211274        7       0.00495667       0.00443945      -0.00223065
O        2.27859532       3.50212804       7.19311675        8       0.00312640      -0.00439688       0.00886345
O        0.63320777       0.57799138       5.53745231        9      -0.00312640      -0.00439688      -0.00886345
O        0.63320777       2.34614527       2.94959373       10      -0.00312640       0.00439688       0.00886345
O        2.27859532       5.27028192       1.29392929       11       0.00312640       0.00439688      -0.00886345
O        3.54501085       2.34614527       1.29392929       12      -0.00312640       0.00439688      -0.00886345
O        5.19039841       5.27028192       2.94959373       13       0.00312640       0.00439688       0.00886345
O        5.19039841       3.50212804       5.53745231       14       0.00312640      -0.00439688      -0.00886345
O        3.54501085       0.57799138       7.19311675       15      -0.00312640      -0.00439688       0.00886345
O        5.55806633       4.38620498      -0.00000000       16       0.00148569      -0.00000000       0.00000000
O        3.17734293       1.46206833       4.24352302       17      -0.00148569       0.00000000       0.00000000
O        0.26553984       1.46206833      -0.00000000       18      -0.00148569      -0.00000000      -0.00000000
O        2.64626324       4.38620498       4.24352302       19       0.00148569       0.00000000       0.00000000
20
Lattice="5.823194300606218 -2.1594886839592404e-60 1.4827566315633488e-43 1.255687130874762e-60 5.849600589770664 3.0728316926004674e-17 -2.100859183224743e-43 -1.5164005812030575e-17 8.485720456877" Properties=species:S:1:pos:R:3:spacegroup_kinds:I:1:forces:R:3 spacegroup="P 1" unit_cell=conventional occupancy="_JSON {\"0\": {\"In\": 1}, \"1\": {\"In\": 1}, \"2\": {\"In\": 1}, \"3\": {\"In\": 1}, \"4\": {\"In\": 1}, \"5\": {\"In\": 1}, \"6\": {\"In\": 1}, \"7\": {\"In\": 1}, \"8\": {\"O\": 1}, \"9\": {\"O\": 1}, \"10\": {\"O\": 1}, \"11\": {\"O\": 1}, \"12\": {\"O\": 1}, \"13\": {\"O\": 1}, \"14\": {\"O\": 1}, \"15\": {\"O\": 1}, \"16\": {\"O\": 1}, \"17\": {\"O\": 1}, \"18\": {\"O\": 1}, \"19\": {\"O\": 1}}" n_minim_iter=9 energy=-22573.7589701987 stress="0.07062962686351107 5.282105975246158e-14 7.480300974701994e-13 5.282105975246158e-14 0.07082728512210666 8.796687854062271e-13 7.480300974701994e-13 8.796687854062271e-13 0.07070989189985365" free_energy=-22573.7589701987 pbc="T T T"
In       1.43804051       3.07435598       0.99194383        0       0.00316253       0.00088546       0.00120368
In       1.47355664       0.14955569       3.25091640        1      -0.00316253       0.00088546      -0.00120368
In       1.47355664       2.77524461       5.23480406        2      -0.00316253      -0.00088546       0.00120368
In       1.43804051       5.70004490       7.49377663        3       0.00316253      -0.00088546      -0.00120368
In       4.38515379       2.77524461       7.49377663        4      -0.00316253      -0.00088546      -0.00120368
In       4.34963766       5.70004490       5.23480406        5       0.00316253      -0.00088546       0.00120368
In       4.34963766       3.07435598       3.25091640        6       0.00316253       0.00088546      -0.00120368
In       4.38515379       0.14955569       0.99194383        7      -0.00316253       0.00088546       0.00120368
O        2.27892368       3.50169141       7.19272513        8       0.00235542      -0.00442368       0.00542752
O        0.63267347       0.57689111       5.53585556        9      -0.00235542      -0.00442368      -0.00542752
O        0.63267347       2.34790918       2.94986490       10      -0.00235542       0.00442368       0.00542752
O        2.27892368       5.27270948       1.29299533       11       0.00235542       0.00442368      -0.00542752
O        3.54427062       2.34790918       1.29299533       12      -0.00235542       0.00442368      -0.00542752
O        5.19052083       5.27270948       2.94986490       13       0.00235542       0.00442368       0.00542752
O        5.19052083       3.50169141       5.53585556       14       0.00235542      -0.00442368      -0.00542752
O        3.54427062       0.57689111       7.19272513       15      -0.00235542      -0.00442368       0.00542752
O        5.55791234       4.38720044      -0.00000000       16       0.00227070      -0.00000000      -0.00000000
O        3.17687911       1.46240015       4.24286023       17      -0.00227070       0.00000000      -0.00000000
O        0.26528196       1.46240015      -0.00000000       18      -0.00227070       0.00000000      -0.00000000
O        2.64631519       4.38720044       4.24286023       19       0.00227070      -0.00000000      -0.00000000
