20
Lattice="5.454170223289067 9.418184750429402e-60 -1.0039224759063234e-44 3.393995593691793e-59 5.508693290351667 2.9892205397941807e-16 2.8291473760983445e-43 -3.716228600538039e-16 7.696422878382658" Properties=species:S:1:pos:R:3:spacegroup_kinds:I:1:forces:R:3 spacegroup="P 1" unit_cell=conventional occupancy="_JSON {\"0\": {\"In\": 1}, \"1\": {\"In\": 1}, \"2\": {\"In\": 1}, \"3\": {\"In\": 1}, \"4\": {\"In\": 1}, \"5\": {\"In\": 1}, \"6\": {\"In\": 1}, \"7\": {\"In\": 1}, \"8\": {\"O\": 1}, \"9\": {\"O\": 1}, \"10\": {\"O\": 1}, \"11\": {\"O\": 1}, \"12\": {\"O\": 1}, \"13\": {\"O\": 1}, \"14\": {\"O\": 1}, \"15\": {\"O\": 1}, \"16\": {\"O\": 1}, \"17\": {\"O\": 1}, \"18\": {\"O\": 1}, \"19\": {\"O\": 1}}" n_minim_iter=11 energy=-22574.081373434212 stress="-0.07392335528258448 -1.1379563273597611e-12 -3.5384715235846936e-13 -1.1379563273597611e-12 -0.07400074721193242 9.704699859013424e-13 -3.5384715235846936e-13 9.704699859013424e-13 -0.07402473549664078" free_energy=-22574.081373434212 pbc="T T T"
In       1.35651101       2.92879188       0.92048391        0       0.00459141      -0.00007193      -0.00111125
In       1.37057410       0.17444523       2.92772753        1      -0.00459141      -0.00007193       0.00111125
In       1.37057410       2.57990141       4.76869535        2      -0.00459141       0.00007193      -0.00111125
In       1.35651101       5.33424806       6.77593897        3       0.00459141       0.00007193       0.00111125
In       4.09765921       2.57990141       6.77593897        4      -0.00459141       0.00007193       0.00111125
In       4.08359612       5.33424806       4.76869535        5       0.00459141       0.00007193      -0.00111125
In       4.08359612       2.92879188       2.92772753        6       0.00459141      -0.00007193       0.00111125
In       4.09765921       0.17444523       0.92048391        7      -0.00459141      -0.00007193      -0.00111125
O        2.11728616       3.31672920       6.58232843        8      -0.00017347      -0.00144053       0.00085769
O        0.60979895       0.56238256       4.96230589        9       0.00017347      -0.00144053      -0.00085769
O        0.60979895       2.19196409       2.73411699       10       0.00017347       0.00144053       0.00085769
O        2.11728616       4.94631073       1.11409445       11      -0.00017347       0.00144053      -0.00085769
O        3.33688406       2.19196409       1.11409445       12       0.00017347       0.00144053      -0.00085769
O        4.84437127       4.94631073       2.73411699       13      -0.00017347       0.00144053       0.00085769
O        4.84437127       3.31672920       4.96230589       14      -0.00017347      -0.00144053      -0.00085769
O        3.33688406       0.56238256       6.58232843       15       0.00017347      -0.00144053       0.00085769
O        5.22639753       4.13151997       0.00000000       16      -0.00090935      -0.00000000      -0.00000000
O        2.95485781       1.37717332       3.84821144       17       0.00090935       0.00000000      -0.00000000
O        0.22777270       1.37717332       0.00000000       18       0.00090935       0.00000000      -0.00000000
O        2.49931242       4.13151997       3.84821144       19      -0.00090935      -0.00000000       0.00000000
