20
Lattice="5.2949547867349125 1.0468634089938854e-58 -9.170571867433112e-43 -1.6436096988110242e-58 5.122927484139744 -1.5834873810124213e-16 7.955629272769112e-43 2.8212808862672215e-16 7.104025179783326" Properties=species:S:1:pos:R:3:spacegroup_kinds:I:1:forces:R:3 spacegroup="P 1" unit_cell=conventional occupancy="_JSON {\"0\": {\"In\": 1}, \"1\": {\"In\": 1}, \"2\": {\"In\": 1}, \"3\": {\"In\": 1}, \"4\": {\"In\": 1}, \"5\": {\"In\": 1}, \"6\": {\"In\": 1}, \"7\": {\"In\": 1}, \"8\": {\"O\": 1}, \"9\": {\"O\": 1}, \"10\": {\"O\": 1}, \"11\": {\"O\": 1}, \"12\": {\"O\": 1}, \"13\": {\"O\": 1}, \"14\": {\"O\": 1}, \"15\": {\"O\": 1}, \"16\": {\"O\": 1}, \"17\": {\"O\": 1}, \"18\": {\"O\": 1}, \"19\": {\"O\": 1}}" n_minim_iter=13 energy=-22566.978276329086 stress="-0.43536561380181543 -5.964128502418563e-13 1.130508155605595e-12 -5.964128502418563e-13 -0.43535520645018794 -3.981250825313752e-13 1.130508155605595e-12 -3.981250825313752e-13 -0.4353751265695344" free_energy=-22566.978276329086 pbc="T T T"
In       1.30747497       2.75167863       0.83861479        0      -0.00043648      -0.00159872       0.00165228
In       1.34000243       0.19021489       2.71339780        1       0.00043648      -0.00159872      -0.00165228
In       1.34000243       2.37124885       4.39062738        2       0.00043648       0.00159872       0.00165228
In       1.30747497       4.93271259       6.26541039        3      -0.00043648       0.00159872      -0.00165228
In       3.98747982       2.37124885       6.26541039        4       0.00043648       0.00159872      -0.00165228
In       3.95495236       4.93271259       4.39062738        5      -0.00043648       0.00159872       0.00165228
In       3.95495236       2.75167863       2.71339780        6      -0.00043648      -0.00159872      -0.00165228
In       3.98747982       0.19021489       0.83861479        7       0.00043648      -0.00159872       0.00165228
O        2.11419731       3.09245358       6.07471939        8       0.00322095      -0.00195640      -0.00020738
O        0.53328008       0.53098984       4.58131838        9      -0.00322095      -0.00195640       0.00020738
O        0.53328008       2.03047390       2.52270680       10      -0.00322095       0.00195640      -0.00020738
O        2.11419731       4.59193764       1.02930579       11       0.00322095       0.00195640       0.00020738
O        3.18075748       2.03047390       1.02930579       12      -0.00322095       0.00195640       0.00020738
O        4.76167470       4.59193764       2.52270680       13       0.00322095       0.00195640      -0.00020738
O        4.76167470       3.09245358       4.58131838       14       0.00322095      -0.00195640       0.00020738
O        3.18075748       0.53098984       6.07471939       15      -0.00322095      -0.00195640      -0.00020738
O        5.06541207       3.84219561       0.00000000       16       0.00135399      -0.00000000      -0.00000000
O        2.87702011       1.28073187       3.55201259       17      -0.00135399       0.00000000       0.00000000
O        0.22954271       1.28073187       0.00000000       18      -0.00135399       0.00000000      -0.00000000
O        2.41793468       3.84219561       3.55201259       19       0.00135399      -0.00000000       0.00000000
