20
Lattice="5.795343996548554 -1.7698733348690772e-60 3.1402835410924717e-43 5.610016836212656e-61 5.816836695583631 2.2430670127076507e-17 -4.542970645184495e-43 -3.2329997007650444e-17 8.383981035644636" Properties=species:S:1:pos:R:3:spacegroup_kinds:I:1:forces:R:3 spacegroup="P 1" unit_cell=conventional occupancy="_JSON {\"0\": {\"In\": 1}, \"1\": {\"In\": 1}, \"2\": {\"In\": 1}, \"3\": {\"In\": 1}, \"4\": {\"In\": 1}, \"5\": {\"In\": 1}, \"6\": {\"In\": 1}, \"7\": {\"In\": 1}, \"8\": {\"O\": 1}, \"9\": {\"O\": 1}, \"10\": {\"O\": 1}, \"11\": {\"O\": 1}, \"12\": {\"O\": 1}, \"13\": {\"O\": 1}, \"14\": {\"O\": 1}, \"15\": {\"O\": 1}, \"16\": {\"O\": 1}, \"17\": {\"O\": 1}, \"18\": {\"O\": 1}, \"19\": {\"O\": 1}}" n_minim_iter=1 energy=-22574.16701017717 stress="0.0593323023008865 5.176985472549029e-13 -7.939353578720395e-14 5.176985472549029e-13 0.061130603520455094 4.5544363724350686e-14 -7.939353578720395e-14 4.5544363724350686e-14 0.05948994702090523" free_energy=-22574.16701017717 pbc="T T T"
In       1.43533367       3.05035956       0.97116941        0      -0.00384110      -0.03041169       0.02670647
In       1.46233833       0.14194121       3.22082111        1       0.00384110      -0.03041169      -0.02670647
In       1.46233833       2.76647714       5.16315993        2       0.00384110       0.03041169       0.02670647
In       1.43533367       5.67489549       7.41281163        3      -0.00384110       0.03041169      -0.02670647
In       4.36001033       2.76647714       7.41281163        4       0.00384110       0.03041169      -0.02670647
In       4.33300567       5.67489549       5.16315993        5      -0.00384110       0.03041169       0.02670647
In       4.33300567       3.05035956       3.22082111        6      -0.00384110      -0.03041169      -0.02670647
In       4.36001033       0.14194121       0.97116941        7       0.00384110      -0.03041169       0.02670647
O        2.26430868       3.50225143       7.11742722        8       0.01546713      -0.05241254      -0.03260697
O        0.63336332       0.59383309       5.45854433        9      -0.01546713      -0.05241254       0.03260697
O        0.63336332       2.31458526       2.92543670       10      -0.01546713       0.05241254      -0.03260697
O        2.26430868       5.22300361       1.26655381       11       0.01546713       0.05241254       0.03260697
O        3.53103532       2.31458526       1.26655381       12      -0.01546713       0.05241254       0.03260697
O        5.16198067       5.22300361       2.92543670       13       0.01546713       0.05241254      -0.03260697
O        5.16198067       3.50225143       5.45854433       14       0.01546713      -0.05241254       0.03260697
O        3.53103532       0.59383309       7.11742722       15      -0.01546713      -0.05241254      -0.03260697
O        5.54653064       4.36262752      -0.00000000       16      -0.07771259      -0.00000000       0.00000000
O        3.14648536       1.45420917       4.19199052       17       0.07771259       0.00000000      -0.00000000
O        0.24881336       1.45420917      -0.00000000       18       0.07771259       0.00000000       0.00000000
O        2.64885864       4.36262752       4.19199052       19      -0.07771259       0.00000000      -0.00000000
20
Lattice="5.802854501783992 -2.0905275044836872e-60 3.141011093476315e-43 5.578092294500851e-61 5.803606350720893 1.650942113667132e-17 -4.552268843394309e-43 -4.085158846572923e-17 8.392217862971506" Properties=species:S:1:pos:R:3:spacegroup_kinds:I:1:forces:R:3 spacegroup="P 1" unit_cell=conventional occupancy="_JSON {\"0\": {\"In\": 1}, \"1\": {\"In\": 1}, \"2\": {\"In\": 1}, \"3\": {\"In\": 1}, \"4\": {\"In\": 1}, \"5\": {\"In\": 1}, \"6\": {\"In\": 1}, \"7\": {\"In\": 1}, \"8\": {\"O\": 1}, \"9\": {\"O\": 1}, \"10\": {\"O\": 1}, \"11\": {\"O\": 1}, \"12\": {\"O\": 1}, \"13\": {\"O\": 1}, \"14\": {\"O\": 1}, \"15\": {\"O\": 1}, \"16\": {\"O\": 1}, \"17\": {\"O\": 1}, \"18\": {\"O\": 1}, \"19\": {\"O\": 1}}" n_minim_iter=2 energy=-22574.16781149438 stress="0.06003413547467402 5.998195878867303e-14 -1.1716130026199373e-13 5.998195878867303e-14 0.05921640105914497 8.393554952743314e-13 -1.1716130026199373e-13 8.393554952743314e-13 0.05986292480730156" free_energy=-22574.16781149438 pbc="T T T"
In       1.43716676       3.04320828       0.97231142        0       0.00208514      -0.03538970       0.03103699
In       1.46426049       0.14140510       3.22379751        1      -0.00208514      -0.03538970      -0.03103699
In       1.46426049       2.76039807       5.16842035        2      -0.00208514       0.03538970       0.03103699
In       1.43716676       5.66220125       7.41990644        3       0.00208514       0.03538970      -0.03103699
In       4.36568774       2.76039807       7.41990644        4      -0.00208514       0.03538970      -0.03103699
In       4.33859401       5.66220125       5.16842035        5       0.00208514       0.03538970       0.03103699
In       4.33859401       3.04320828       3.22379751        6       0.00208514      -0.03538970      -0.03103699
In       4.36568774       0.14140510       0.97231142        7      -0.00208514      -0.03538970       0.03103699
O        2.26735197       3.49391805       7.12419033        8       0.00981634      -0.04935112      -0.03177283
O        0.63407528       0.59211488       5.46413647        9      -0.00981634      -0.04935112       0.03177283
O        0.63407528       2.30968830       2.92808139       10      -0.00981634       0.04935112      -0.03177283
O        2.26735197       5.21149147       1.26802754       11       0.00981634       0.04935112       0.03177283
O        3.53550253       2.30968830       1.26802754       12      -0.00981634       0.04935112       0.03177283
O        5.16877922       5.21149147       2.92808139       13       0.00981634       0.04935112      -0.03177283
O        5.16877922       3.49391805       5.46413647       14       0.00981634      -0.04935112       0.03177283
O        3.53550253       0.59211488       7.12419033       15      -0.00981634      -0.04935112      -0.03177283
O        5.55317179       4.35270476      -0.00000000       16      -0.07324086       0.00000000      -0.00000000
O        3.15110997       1.45090159       4.19610893       17       0.07324086       0.00000000      -0.00000000
O        0.24968271       1.45090159      -0.00000000       18       0.07324086       0.00000000       0.00000000
O        2.65174454       4.35270476       4.19610893       19      -0.07324086       0.00000000      -0.00000000
20
Lattice="5.796776634703186 -1.9162296509170516e-60 3.187942970470031e-43 1.8211639471446107e-61 5.803578611588408 2.6221025140935786e-17 -4.484528920059035e-43 -2.6882420030975915e-17 8.401057180356142" Properties=species:S:1:pos:R:3:spacegroup_kinds:I:1:forces:R:3 spacegroup="P 1" unit_cell=conventional occupancy="_JSON {\"0\": {\"In\": 1}, \"1\": {\"In\": 1}, \"2\": {\"In\": 1}, \"3\": {\"In\": 1}, \"4\": {\"In\": 1}, \"5\": {\"In\": 1}, \"6\": {\"In\": 1}, \"7\": {\"In\": 1}, \"8\": {\"O\": 1}, \"9\": {\"O\": 1}, \"10\": {\"O\": 1}, \"11\": {\"O\": 1}, \"12\": {\"O\": 1}, \"13\": {\"O\": 1}, \"14\": {\"O\": 1}, \"15\": {\"O\": 1}, \"16\": {\"O\": 1}, \"17\": {\"O\": 1}, \"18\": {\"O\": 1}, \"19\": {\"O\": 1}}" n_minim_iter=3 energy=-22574.17132557822 stress="0.05830612649413365 3.3003631575096336e-13 6.456858058705666e-13 3.3003631575096336e-13 0.05858946730278737 5.647293692735232e-13 6.456858058705666e-13 5.647293692735232e-13 0.05903745769574177" free_energy=-22574.17132557822 pbc="T T T"
In       1.43569375       3.03975411       0.97637346        0       0.00057160       0.00868545       0.01088033
In       1.46269457       0.13796480       3.22415513        1      -0.00057160       0.00868545      -0.01088033
In       1.46269457       2.76382450       5.17690205        2      -0.00057160      -0.00868545       0.01088033
In       1.43569375       5.66561381       7.42468372        3       0.00057160      -0.00868545      -0.01088033
In       4.36108289       2.76382450       7.42468372        4      -0.00057160      -0.00868545      -0.01088033
In       4.33408207       5.66561381       5.17690205        5       0.00057160      -0.00868545       0.01088033
In       4.33408207       3.03975411       3.22415513        6       0.00057160       0.00868545      -0.01088033
In       4.36108289       0.13796480       0.97637346        7      -0.00057160       0.00868545       0.01088033
O        2.26615017       3.48880109       7.12842350        8      -0.00533560      -0.00917508      -0.00034070
O        0.63223815       0.58701178       5.47316227        9       0.00533560      -0.00917508       0.00034070
O        0.63223815       2.31477752       2.92789491       10       0.00533560       0.00917508      -0.00034070
O        2.26615017       5.21656683       1.27263368       11      -0.00533560       0.00917508       0.00034070
O        3.53062646       2.31477752       1.27263368       12       0.00533560       0.00917508       0.00034070
O        5.16453849       5.21656683       2.92789491       13      -0.00533560       0.00917508      -0.00034070
O        5.16453849       3.48880109       5.47316227       14      -0.00533560      -0.00917508       0.00034070
O        3.53062646       0.58701178       7.12842350       15       0.00533560      -0.00917508      -0.00034070
O        5.53975058       4.35268396      -0.00000000       16       0.00151677       0.00000000      -0.00000000
O        3.15541437       1.45089465       4.20052859       17      -0.00151677       0.00000000       0.00000000
O        0.25702605       1.45089465      -0.00000000       18      -0.00151677      -0.00000000       0.00000000
O        2.64136226       4.35268396       4.20052859       19       0.00151677      -0.00000000      -0.00000000
20
Lattice="5.799766335108268 -1.9503778129292517e-60 3.1922189387912195e-43 -2.161045279353887e-61 5.804023071798532 3.2847836855268106e-17 -4.480625302754815e-43 -1.7307020588392597e-17 8.39608354587917" Properties=species:S:1:pos:R:3:spacegroup_kinds:I:1:forces:R:3 spacegroup="P 1" unit_cell=conventional occupancy="_JSON {\"0\": {\"In\": 1}, \"1\": {\"In\": 1}, \"2\": {\"In\": 1}, \"3\": {\"In\": 1}, \"4\": {\"In\": 1}, \"5\": {\"In\": 1}, \"6\": {\"In\": 1}, \"7\": {\"In\": 1}, \"8\": {\"O\": 1}, \"9\": {\"O\": 1}, \"10\": {\"O\": 1}, \"11\": {\"O\": 1}, \"12\": {\"O\": 1}, \"13\": {\"O\": 1}, \"14\": {\"O\": 1}, \"15\": {\"O\": 1}, \"16\": {\"O\": 1}, \"17\": {\"O\": 1}, \"18\": {\"O\": 1}, \"19\": {\"O\": 1}}" n_minim_iter=4 energy=-22574.171394509445 stress="0.05867113228673147 3.280571719438908e-13 -2.69358892535639e-13 3.280571719438908e-13 0.058633216497955845 7.683461669746348e-13 -2.69358892535639e-13 7.683461669746348e-13 0.058591615599829346" free_energy=-22574.171394509445 pbc="T T T"
In       1.43643807       3.03995151       0.97593050        0       0.00264964       0.01034911       0.00718842
In       1.46344510       0.13793998       3.22211127        1      -0.00264964       0.01034911      -0.00718842
In       1.46344510       2.76407156       5.17397227        2      -0.00264964      -0.01034911       0.00718842
In       1.43643807       5.66608310       7.42015305        3       0.00264964      -0.01034911      -0.00718842
In       4.36332826       2.76407156       7.42015305        4      -0.00264964      -0.01034911      -0.00718842
In       4.33632124       5.66608310       5.17397227        5       0.00264964      -0.01034911       0.00718842
In       4.33632124       3.03995151       3.22211127        6       0.00264964       0.01034911      -0.00718842
In       4.36332826       0.13793998       0.97593050        7      -0.00264964       0.01034911       0.00718842
O        2.26731779       3.48889267       7.12412164        8      -0.00293415      -0.00874022       0.00572922
O        0.63256537       0.58688114       5.47000367        9       0.00293415      -0.00874022      -0.00572922
O        0.63256537       2.31513040       2.92607987       10       0.00293415       0.00874022       0.00572922
O        2.26731779       5.21714194       1.27196190       11      -0.00293415       0.00874022      -0.00572922
O        3.53244854       2.31513040       1.27196190       12       0.00293415       0.00874022      -0.00572922
O        5.16720096       5.21714194       2.92607987       13      -0.00293415       0.00874022       0.00572922
O        5.16720096       3.48889267       5.47000367       14      -0.00293415      -0.00874022      -0.00572922
O        3.53244854       0.58688114       7.12412164       15       0.00293415      -0.00874022       0.00572922
O        5.54243054       4.35301730      -0.00000000       16       0.00126585       0.00000000       0.00000000
O        3.15721896       1.45100577       4.19804177       17      -0.00126585      -0.00000000      -0.00000000
O        0.25733579       1.45100577      -0.00000000       18      -0.00126585      -0.00000000       0.00000000
O        2.64254738       4.35301730       4.19804177       19       0.00126585      -0.00000000      -0.00000000
20
Lattice="5.7991649496089295 -2.106014343959731e-60 3.199346129223625e-43 -2.148432622114366e-61 5.804118295144417 3.0006222377572506e-17 -4.478717891930981e-43 -2.140698008825946e-17 8.396816475402133" Properties=species:S:1:pos:R:3:spacegroup_kinds:I:1:forces:R:3 spacegroup="P 1" unit_cell=conventional occupancy="_JSON {\"0\": {\"In\": 1}, \"1\": {\"In\": 1}, \"2\": {\"In\": 1}, \"3\": {\"In\": 1}, \"4\": {\"In\": 1}, \"5\": {\"In\": 1}, \"6\": {\"In\": 1}, \"7\": {\"In\": 1}, \"8\": {\"O\": 1}, \"9\": {\"O\": 1}, \"10\": {\"O\": 1}, \"11\": {\"O\": 1}, \"12\": {\"O\": 1}, \"13\": {\"O\": 1}, \"14\": {\"O\": 1}, \"15\": {\"O\": 1}, \"16\": {\"O\": 1}, \"17\": {\"O\": 1}, \"18\": {\"O\": 1}, \"19\": {\"O\": 1}}" n_minim_iter=5 energy=-22574.171599762194 stress="0.058367400324624216 7.063579880315292e-13 1.7497235575502288e-13 7.063579880315292e-13 0.05848911339669475 -9.200871243983848e-13 1.7497235575502288e-13 -9.200871243983848e-13 0.058467009944587166" free_energy=-22574.171599762194 pbc="T T T"
In       1.43672913       3.04130512       0.97782455        0      -0.00773130       0.00940157      -0.00633862
In       1.46285335       0.13924598       3.22058369        1       0.00773130       0.00940157       0.00633862
In       1.46285335       2.76281317       5.17623278        2       0.00773130      -0.00940157      -0.00633862
In       1.43672913       5.66487232       7.41899193        3      -0.00773130      -0.00940157       0.00633862
In       4.36243582       2.76281317       7.41899193        4       0.00773130      -0.00940157       0.00633862
In       4.33631160       5.66487232       5.17623278        5      -0.00773130      -0.00940157      -0.00633862
In       4.33631160       3.04130512       3.22058369        6      -0.00773130       0.00940157       0.00633862
In       4.36243582       0.13924598       0.97782455        7       0.00773130       0.00940157      -0.00633862
O        2.26669127       3.48662101       7.12517489        8       0.00026051      -0.00078466       0.00649268
O        0.63289120       0.58456187       5.47004983        9      -0.00026051      -0.00078466      -0.00649268
O        0.63289120       2.31749728       2.92676665       10      -0.00026051       0.00078466       0.00649268
O        2.26669127       5.21955643       1.27164159       11       0.00026051       0.00078466      -0.00649268
O        3.53247368       2.31749728       1.27164159       12      -0.00026051       0.00078466      -0.00649268
O        5.16627375       5.21955643       2.92676665       13       0.00026051       0.00078466       0.00649268
O        5.16627375       3.48662101       5.47004983       14       0.00026051      -0.00078466      -0.00649268
O        3.53247368       0.58456187       7.12517489       15      -0.00026051      -0.00078466       0.00649268
O        5.54094933       4.35308872      -0.00000000       16       0.00348704      -0.00000000      -0.00000000
O        3.15779810       1.45102957       4.19840824       17      -0.00348704       0.00000000      -0.00000000
O        0.25821562       1.45102957      -0.00000000       18      -0.00348704      -0.00000000       0.00000000
O        2.64136685       4.35308872       4.19840824       19       0.00348704       0.00000000       0.00000000
20
Lattice="5.799764393706852 -2.415098560961029e-60 3.1967877852456785e-43 -2.0891762164577814e-61 5.804193404074099 2.4380041526409885e-17 -4.462997383628565e-43 -2.95114105023919e-17 8.39583996132223" Properties=species:S:1:pos:R:3:spacegroup_kinds:I:1:forces:R:3 spacegroup="P 1" unit_cell=conventional occupancy="_JSON {\"0\": {\"In\": 1}, \"1\": {\"In\": 1}, \"2\": {\"In\": 1}, \"3\": {\"In\": 1}, \"4\": {\"In\": 1}, \"5\": {\"In\": 1}, \"6\": {\"In\": 1}, \"7\": {\"In\": 1}, \"8\": {\"O\": 1}, \"9\": {\"O\": 1}, \"10\": {\"O\": 1}, \"11\": {\"O\": 1}, \"12\": {\"O\": 1}, \"13\": {\"O\": 1}, \"14\": {\"O\": 1}, \"15\": {\"O\": 1}, \"16\": {\"O\": 1}, \"17\": {\"O\": 1}, \"18\": {\"O\": 1}, \"19\": {\"O\": 1}}" n_minim_iter=6 energy=-22574.17165888848 stress="0.05849109354309591 2.992567622897671e-13 -5.568317048722969e-13 2.992567622897671e-13 0.058511927043242665 3.9565404050523627e-13 -5.568317048722969e-13 3.9565404050523627e-13 0.058518821020917156" free_energy=-22574.17165888848 pbc="T T T"
In       1.43685709       3.04202247       0.97772413        0      -0.00865582       0.00486626      -0.00623876
In       1.46302510       0.13992577       3.22019585        1       0.00865582       0.00486626       0.00623876
In       1.46302510       2.76217093       5.17564411        2       0.00865582      -0.00486626      -0.00623876
In       1.43685709       5.66426763       7.41811583        3      -0.00865582      -0.00486626       0.00623876
In       4.36290730       2.76217093       7.41811583        4       0.00865582      -0.00486626       0.00623876
In       4.33673929       5.66426763       5.17564411        5      -0.00865582      -0.00486626      -0.00623876
In       4.33673929       3.04202247       3.22019585        6      -0.00865582       0.00486626       0.00623876
In       4.36290730       0.13992577       0.97772413        7       0.00865582       0.00486626      -0.00623876
O        2.26675420       3.48661910       7.12480426        8       0.00234431      -0.00304811       0.00346996
O        0.63312800       0.58452239       5.46895569        9      -0.00234431      -0.00304811      -0.00346996
O        0.63312800       2.31757431       2.92688428       10      -0.00234431       0.00304811       0.00346996
O        2.26675420       5.21967101       1.27103571       11       0.00234431       0.00304811      -0.00346996
O        3.53301019       2.31757431       1.27103571       12      -0.00234431       0.00304811      -0.00346996
O        5.16663640       5.21967101       2.92688428       13       0.00234431       0.00304811       0.00346996
O        5.16663640       3.48661910       5.46895569       14       0.00234431      -0.00304811      -0.00346996
O        3.53301019       0.58452239       7.12480426       15      -0.00234431      -0.00304811       0.00346996
O        5.54202657       4.35314505      -0.00000000       16      -0.00276238       0.00000000       0.00000000
O        3.15762002       1.45104835       4.19791998       17       0.00276238       0.00000000      -0.00000000
O        0.25773783       1.45104835      -0.00000000       18       0.00276238       0.00000000      -0.00000000
O        2.64214437       4.35314505       4.19791998       19      -0.00276238      -0.00000000       0.00000000
20
Lattice="5.800501311243991 -2.4153344641325228e-60 2.3421207098326334e-43 5.1075524437496545e-61 5.804696664646061 2.4374830740870892e-17 -1.9850188372289304e-43 -2.951396932982836e-17 8.394045504925963" Properties=species:S:1:pos:R:3:spacegroup_kinds:I:1:forces:R:3 spacegroup="P 1" unit_cell=conventional occupancy="_JSON {\"0\": {\"In\": 1}, \"1\": {\"In\": 1}, \"2\": {\"In\": 1}, \"3\": {\"In\": 1}, \"4\": {\"In\": 1}, \"5\": {\"In\": 1}, \"6\": {\"In\": 1}, \"7\": {\"In\": 1}, \"8\": {\"O\": 1}, \"9\": {\"O\": 1}, \"10\": {\"O\": 1}, \"11\": {\"O\": 1}, \"12\": {\"O\": 1}, \"13\": {\"O\": 1}, \"14\": {\"O\": 1}, \"15\": {\"O\": 1}, \"16\": {\"O\": 1}, \"17\": {\"O\": 1}, \"18\": {\"O\": 1}, \"19\": {\"O\": 1}}" n_minim_iter=7 energy=-22574.17170500329 stress="0.05861669239196375 -3.400732851692951e-13 -2.832239581886101e-13 -3.400732851692951e-13 0.05852351773126549 -1.1318313727684238e-12 -2.832239581886101e-13 -1.1318313727684238e-12 0.058556945336922725" free_energy=-22574.17170500329 pbc="T T T"
In       1.43674165       3.04346642       0.97751233        0      -0.00789822      -0.00108497      -0.00498449
In       1.46350901       0.14111808       3.21951043        1       0.00789822      -0.00108497       0.00498449
In       1.46350901       2.76123025       5.17453508        2       0.00789822       0.00108497      -0.00498449
In       1.43674165       5.66357858       7.41653318        3      -0.00789822       0.00108497       0.00498449
In       4.36375967       2.76123025       7.41653318        4       0.00789822       0.00108497       0.00498449
In       4.33699230       5.66357858       5.17453508        5      -0.00789822       0.00108497      -0.00498449
In       4.33699230       3.04346642       3.21951043        6      -0.00789822      -0.00108497       0.00498449
In       4.36375967       0.14111808       0.97751233        7       0.00789822      -0.00108497      -0.00498449
O        2.26687479       3.48646615       7.12403578        8       0.00506430      -0.00514738      -0.00081452
O        0.63337586       0.58411781       5.46703248        9      -0.00506430      -0.00514738       0.00081452
O        0.63337586       2.31823052       2.92701302       10      -0.00506430       0.00514738      -0.00081452
O        2.26687479       5.22057885       1.27000973       11       0.00506430       0.00514738       0.00081452
O        3.53362652       2.31823052       1.27000973       12      -0.00506430       0.00514738       0.00081452
O        5.16712545       5.22057885       2.92701302       13       0.00506430       0.00514738      -0.00081452
O        5.16712545       3.48646615       5.46703248       14       0.00506430      -0.00514738       0.00081452
O        3.53362652       0.58411781       7.12403578       15      -0.00506430      -0.00514738      -0.00081452
O        5.54314105       4.35352250      -0.00000000       16      -0.00881652       0.00000000      -0.00000000
O        3.15761092       1.45117417       4.19702275       17       0.00881652      -0.00000000      -0.00000000
O        0.25736026       1.45117417      -0.00000000       18       0.00881652      -0.00000000       0.00000000
O        2.64289040       4.35352250       4.19702275       19      -0.00881652       0.00000000       0.00000000
