20
Lattice="5.690667758687796 -2.9472560863804072e-61 9.107387305578233e-44 5.448760016012773e-62 5.7573370068916825 1.5226801907958497e-17 -1.3178278614218444e-43 -2.177785771148169e-17 8.234327003860349" Properties=species:S:1:pos:R:3:spacegroup_kinds:I:1:forces:R:3 spacegroup="P 1" unit_cell=conventional occupancy="_JSON {\"0\": {\"In\": 1}, \"1\": {\"In\": 1}, \"2\": {\"In\": 1}, \"3\": {\"In\": 1}, \"4\": {\"In\": 1}, \"5\": {\"In\": 1}, \"6\": {\"In\": 1}, \"7\": {\"In\": 1}, \"8\": {\"O\": 1}, \"9\": {\"O\": 1}, \"10\": {\"O\": 1}, \"11\": {\"O\": 1}, \"12\": {\"O\": 1}, \"13\": {\"O\": 1}, \"14\": {\"O\": 1}, \"15\": {\"O\": 1}, \"16\": {\"O\": 1}, \"17\": {\"O\": 1}, \"18\": {\"O\": 1}, \"19\": {\"O\": 1}}" n_minim_iter=1 energy=-22574.749654071224 stress="0.03157978889065077 5.623175555760708e-13 3.0868915402560454e-13 5.623175555760708e-13 0.0340076882341112 2.777051258282079e-13 3.0868915402560454e-13 2.777051258282079e-13 0.032387547256198884" free_energy=-22574.749654071224 pbc="T T T"
In       1.41058203       3.03360602       0.94749131        0      -0.01607271      -0.07644704       0.02732825
In       1.43475185       0.15493752       3.16967219        1       0.01607271      -0.07644704      -0.02732825
In       1.43475185       2.72373099       5.06465481        2       0.01607271       0.07644704       0.02732825
In       1.41058203       5.60239949       7.28683570        3      -0.01607271       0.07644704      -0.02732825
In       4.28008573       2.72373099       7.28683570        4       0.01607271       0.07644704      -0.02732825
In       4.25591591       5.60239949       5.06465481        5      -0.01607271       0.07644704       0.02732825
In       4.25591591       3.03360602       3.16967219        6      -0.01607271      -0.07644704      -0.02732825
In       4.28008573       0.15493752       0.94749131        7       0.01607271      -0.07644704       0.02732825
O        2.22095768       3.47472465       6.99301081        8       0.01711780      -0.04169318      -0.02104605
O        0.62437620       0.59605614       5.35847969        9      -0.01711780      -0.04169318       0.02104605
O        0.62437620       2.28261236       2.87584731       10      -0.01711780       0.04169318      -0.02104605
O        2.22095768       5.16128086       1.24131619       11       0.01711780       0.04169318       0.02104605
O        3.46971007       2.28261236       1.24131619       12      -0.01711780       0.04169318       0.02104605
O        5.06629156       5.16128086       2.87584731       13       0.01711780       0.04169318      -0.02104605
O        5.06629156       3.47472465       5.35847969       14       0.01711780      -0.04169318       0.02104605
O        3.46971007       0.59605614       6.99301081       15      -0.01711780      -0.04169318      -0.02104605
O        5.45397562       4.31800276      -0.00000000       16      -0.05055001       0.00000000      -0.00000000
O        3.08202602       1.43933425       4.11716350       17       0.05055001       0.00000000       0.00000000
O        0.23669214       1.43933425      -0.00000000       18       0.05055001       0.00000000      -0.00000000
O        2.60864174       4.31800276       4.11716350       19      -0.05055001      -0.00000000       0.00000000
20
Lattice="5.701713396490874 -2.943213832302671e-61 7.758563999336684e-44 5.451503799342705e-62 5.743386703848234 1.52342170400637e-17 -1.3191174861075772e-43 -2.1725088920224795e-17 8.238336947832837" Properties=species:S:1:pos:R:3:spacegroup_kinds:I:1:forces:R:3 spacegroup="P 1" unit_cell=conventional occupancy="_JSON {\"0\": {\"In\": 1}, \"1\": {\"In\": 1}, \"2\": {\"In\": 1}, \"3\": {\"In\": 1}, \"4\": {\"In\": 1}, \"5\": {\"In\": 1}, \"6\": {\"In\": 1}, \"7\": {\"In\": 1}, \"8\": {\"O\": 1}, \"9\": {\"O\": 1}, \"10\": {\"O\": 1}, \"11\": {\"O\": 1}, \"12\": {\"O\": 1}, \"13\": {\"O\": 1}, \"14\": {\"O\": 1}, \"15\": {\"O\": 1}, \"16\": {\"O\": 1}, \"17\": {\"O\": 1}, \"18\": {\"O\": 1}, \"19\": {\"O\": 1}}" n_minim_iter=2 energy=-22574.750679709665 stress="0.03286021886590299 -3.689295957484218e-13 -8.142612980238357e-14 -3.689295957484218e-13 0.03190259079703144 -4.709717089116536e-13 -8.142612980238357e-14 -4.709717089116536e-13 0.032380267506675026" free_energy=-22574.750679709665 pbc="T T T"
In       1.41321266       3.02574722       0.94813493        0      -0.00516681      -0.08134156       0.03334227
In       1.43764404       0.15405387       3.17103355        1       0.00516681      -0.08134156      -0.03334227
In       1.43764404       2.71763948       5.06730340        2       0.00516681       0.08134156       0.03334227
In       1.41321266       5.58933284       7.29020202        3      -0.00516681       0.08134156      -0.03334227
In       4.28850074       2.71763948       7.29020202        4       0.00516681       0.08134156      -0.03334227
In       4.26406936       5.58933284       5.06730340        5      -0.00516681       0.08134156       0.03334227
In       4.26406936       3.02574722       3.17103355        6      -0.00516681      -0.08134156      -0.03334227
In       4.28850074       0.15405387       0.94813493        7       0.00516681      -0.08134156       0.03334227
O        2.22538288       3.46602804       6.99627594        8       0.01477466      -0.04201646      -0.01636554
O        0.62547382       0.59433469       5.36122948        9      -0.01477466      -0.04201646       0.01636554
O        0.62547382       2.27735866       2.87710746       10      -0.01477466       0.04201646      -0.01636554
O        2.22538288       5.14905201       1.24206101       11       0.01477466       0.04201646       0.01636554
O        3.47633051       2.27735866       1.24206101       12      -0.01477466       0.04201646       0.01636554
O        5.07623958       5.14905201       2.87710746       13       0.01477466       0.04201646      -0.01636554
O        5.07623958       3.46602804       5.36122948       14       0.01477466      -0.04201646       0.01636554
O        3.47633051       0.59433469       6.99627594       15      -0.01477466      -0.04201646      -0.01636554
O        5.46422430       4.30754003      -0.00000000       16      -0.04145654      -0.00000000       0.00000000
O        3.08834579       1.43584668       4.11916847       17       0.04145654       0.00000000      -0.00000000
O        0.23748909       1.43584668      -0.00000000       18       0.04145654       0.00000000       0.00000000
O        2.61336760       4.30754003       4.11916847       19      -0.04145654       0.00000000      -0.00000000
20
Lattice="5.696594738776047 -2.0441910082769306e-61 7.734686988751623e-44 5.265403512566084e-62 5.739088503864237 2.1953491365120553e-17 -1.324312803417796e-43 -1.2151798935449353e-17 8.251914996977144" Properties=species:S:1:pos:R:3:spacegroup_kinds:I:1:forces:R:3 spacegroup="P 1" unit_cell=conventional occupancy="_JSON {\"0\": {\"In\": 1}, \"1\": {\"In\": 1}, \"2\": {\"In\": 1}, \"3\": {\"In\": 1}, \"4\": {\"In\": 1}, \"5\": {\"In\": 1}, \"6\": {\"In\": 1}, \"7\": {\"In\": 1}, \"8\": {\"O\": 1}, \"9\": {\"O\": 1}, \"10\": {\"O\": 1}, \"11\": {\"O\": 1}, \"12\": {\"O\": 1}, \"13\": {\"O\": 1}, \"14\": {\"O\": 1}, \"15\": {\"O\": 1}, \"16\": {\"O\": 1}, \"17\": {\"O\": 1}, \"18\": {\"O\": 1}, \"19\": {\"O\": 1}}" n_minim_iter=3 energy=-22574.754110516602 stress="0.030891419124884814 -9.397130685514444e-14 3.6265525344233976e-13 -9.397130685514444e-14 0.03102770247787641 -1.8229200876031456e-13 3.6265525344233976e-13 -1.8229200876031456e-13 0.03203641706626698" free_energy=-22574.754110516602 pbc="T T T"
In       1.41128680       3.01714062       0.95222682        0      -0.00102616      -0.01142936       0.01181663
In       1.43701057       0.14759637       3.17373068        1       0.00102616      -0.01142936      -0.01181663
In       1.43701057       2.72194789       5.07818432        2       0.00102616       0.01142936       0.01181663
In       1.41128680       5.59149214       7.29968817        3      -0.00102616       0.01142936      -0.01181663
In       4.28530794       2.72194789       7.29968817        4       0.00102616       0.01142936      -0.01181663
In       4.25958417       5.59149214       5.07818432        5      -0.00102616       0.01142936       0.01181663
In       4.25958417       3.01714062       3.17373068        6      -0.00102616      -0.01142936      -0.01181663
In       4.28530794       0.14759637       0.95222682        7       0.00102616      -0.01142936       0.01181663
O        2.22461803       3.46010893       7.00639426        8      -0.00576716      -0.00126430       0.00363757
O        0.62367934       0.59056468       5.37147823        9       0.00576716      -0.00126430      -0.00363757
O        0.62367934       2.27897957       2.88043676       10       0.00576716       0.00126430       0.00363757
O        2.22461803       5.14852382       1.24552073       11      -0.00576716       0.00126430      -0.00363757
O        3.47197671       2.27897957       1.24552073       12       0.00576716       0.00126430      -0.00363757
O        5.07291540       5.14852382       2.88043676       13      -0.00576716       0.00126430       0.00363757
O        5.07291540       3.46010893       5.37147823       14      -0.00576716      -0.00126430      -0.00363757
O        3.47197671       0.59056468       7.00639426       15       0.00576716      -0.00126430       0.00363757
O        5.45580281       4.30431638      -0.00000000       16       0.01972921       0.00000000       0.00000000
O        3.08908929       1.43477213       4.12595750       17      -0.01972921      -0.00000000       0.00000000
O        0.24079192       1.43477213      -0.00000000       18      -0.01972921      -0.00000000      -0.00000000
O        2.60750545       4.30431638       4.12595750       19       0.01972921      -0.00000000      -0.00000000
20
Lattice="5.699570789700334 -2.1546256844967385e-61 7.753613292389753e-44 5.4084990739472165e-62 5.740893343900075 2.1117616758520998e-17 -1.3194796572860042e-43 -1.3334398250929942e-17 8.245013322265693" Properties=species:S:1:pos:R:3:spacegroup_kinds:I:1:forces:R:3 spacegroup="P 1" unit_cell=conventional occupancy="_JSON {\"0\": {\"In\": 1}, \"1\": {\"In\": 1}, \"2\": {\"In\": 1}, \"3\": {\"In\": 1}, \"4\": {\"In\": 1}, \"5\": {\"In\": 1}, \"6\": {\"In\": 1}, \"7\": {\"In\": 1}, \"8\": {\"O\": 1}, \"9\": {\"O\": 1}, \"10\": {\"O\": 1}, \"11\": {\"O\": 1}, \"12\": {\"O\": 1}, \"13\": {\"O\": 1}, \"14\": {\"O\": 1}, \"15\": {\"O\": 1}, \"16\": {\"O\": 1}, \"17\": {\"O\": 1}, \"18\": {\"O\": 1}, \"19\": {\"O\": 1}}" n_minim_iter=4 energy=-22574.754254696163 stress="0.03131050860228219 7.103225368498309e-13 -8.809404257230553e-13 7.103225368498309e-13 0.03126590030013639 4.1152678387129505e-13 -8.809404257230553e-13 4.1152678387129505e-13 0.031238735184021017" free_energy=-22574.754254696163 pbc="T T T"
In       1.41199168       3.01777501       0.95158984        0       0.00375642      -0.00655179       0.00494935
In       1.43779371       0.14732834       3.17091682        1      -0.00375642      -0.00655179      -0.00494935
In       1.43779371       2.72311833       5.07409650        2      -0.00375642       0.00655179       0.00494934
In       1.41199168       5.59356500       7.29342348        3       0.00375642       0.00655179      -0.00494935
In       4.28757911       2.72311833       7.29342348        4      -0.00375642       0.00655179      -0.00494935
In       4.26177708       5.59356500       5.07409650        5       0.00375642       0.00655179       0.00494935
In       4.26177708       3.01777501       3.17091682        6       0.00375642      -0.00655179      -0.00494935
In       4.28757911       0.14732834       0.95158984        7      -0.00375642      -0.00655179       0.00494935
O        2.22580406       3.46105414       7.00049305        8      -0.00282580      -0.00012343       0.01008653
O        0.62398134       0.59060747       5.36702693        9       0.00282579      -0.00012343      -0.01008653
O        0.62398134       2.27983920       2.87798639       10       0.00282580       0.00012343       0.01008653
O        2.22580406       5.15028587       1.24452027       11      -0.00282580       0.00012343      -0.01008653
O        3.47376673       2.27983920       1.24452027       12       0.00282579       0.00012343      -0.01008653
O        5.07558945       5.15028587       2.87798639       13      -0.00282579       0.00012343       0.01008653
O        5.07558945       3.46105414       5.36702693       14      -0.00282579      -0.00012343      -0.01008653
O        3.47376673       0.59060747       7.00049305       15       0.00282580      -0.00012343       0.01008653
O        5.45860044       4.30567001      -0.00000000       16       0.02067291      -0.00000000      -0.00000000
O        3.09075575       1.43522334       4.12250666       17      -0.02067291      -0.00000000       0.00000000
O        0.24097035       1.43522334      -0.00000000       18      -0.02067291      -0.00000000      -0.00000000
O        2.60881504       4.30567001       4.12250666       19       0.02067291      -0.00000000       0.00000000
20
Lattice="5.699476785608397 -3.2578458224451664e-61 -9.672621209669763e-44 -4.9428874292662425e-61 5.740936546886989 2.111486428805629e-17 -3.8410229236912575e-43 -1.3338700105517828e-17 8.245087262810433" Properties=species:S:1:pos:R:3:spacegroup_kinds:I:1:forces:R:3 spacegroup="P 1" unit_cell=conventional occupancy="_JSON {\"0\": {\"In\": 1}, \"1\": {\"In\": 1}, \"2\": {\"In\": 1}, \"3\": {\"In\": 1}, \"4\": {\"In\": 1}, \"5\": {\"In\": 1}, \"6\": {\"In\": 1}, \"7\": {\"In\": 1}, \"8\": {\"O\": 1}, \"9\": {\"O\": 1}, \"10\": {\"O\": 1}, \"11\": {\"O\": 1}, \"12\": {\"O\": 1}, \"13\": {\"O\": 1}, \"14\": {\"O\": 1}, \"15\": {\"O\": 1}, \"16\": {\"O\": 1}, \"17\": {\"O\": 1}, \"18\": {\"O\": 1}, \"19\": {\"O\": 1}}" n_minim_iter=5 energy=-22574.754423631868 stress="0.03119019677784292 -9.11620394258489e-14 -5.394845248830062e-13 -9.11620394258489e-14 0.031408110683095916 3.210651471639807e-13 -5.394845248830062e-13 3.210651471639807e-13 0.031233028098143687" free_energy=-22574.754423631868 pbc="T T T"
In       1.41220445       3.01707809       0.95207973        0      -0.00111101      -0.00341270      -0.00054787
In       1.43753395       0.14660982       3.17046390        1       0.00111101      -0.00341270       0.00054787
In       1.43753395       2.72385846       5.07462336        2       0.00111101       0.00341270      -0.00054787
In       1.41220445       5.59432673       7.29300753        3      -0.00111101       0.00341270       0.00054787
In       4.28727234       2.72385846       7.29300753        4       0.00111101       0.00341270       0.00054787
In       4.26194284       5.59432673       5.07462336        5      -0.00111101       0.00341270      -0.00054787
In       4.26194284       3.01707809       3.17046390        6      -0.00111101      -0.00341270       0.00054787
In       4.28727234       0.14660982       0.95207973        7       0.00111101      -0.00341270      -0.00054787
O        2.22558489       3.46095543       7.00124465        8      -0.00166735       0.00046122       0.00363725
O        0.62415350       0.59048716       5.36638624        9       0.00166735       0.00046122      -0.00363725
O        0.62415350       2.27998111       2.87870102       10       0.00166735      -0.00046122       0.00363725
O        2.22558489       5.15044939       1.24384261       11      -0.00166735      -0.00046122      -0.00363725
O        3.47389190       2.27998111       1.24384261       12       0.00166735      -0.00046122      -0.00363725
O        5.07532328       5.15044939       2.87870102       13      -0.00166735      -0.00046122       0.00363725
O        5.07532328       3.46095543       5.36638624       14      -0.00166735       0.00046122      -0.00363725
O        3.47389190       0.59048716       7.00124465       15       0.00166735       0.00046122       0.00363725
O        5.45994950       4.30570241      -0.00000000       16       0.01007857      -0.00000000      -0.00000000
O        3.08926568       1.43523414       4.12254363       17      -0.01007857       0.00000000       0.00000000
O        0.23952728       1.43523414      -0.00000000       18      -0.01007857      -0.00000000       0.00000000
O        2.61021111       4.30570241       4.12254363       19       0.01007857       0.00000000      -0.00000000
20
Lattice="5.700578317535672 -1.8430386659597427e-61 -1.1306421787162947e-43 -5.306360300030921e-61 5.7393499812862405 1.3128776030651804e-17 -3.999258948418121e-43 -2.475948304741394e-17 8.24577285364936" Properties=species:S:1:pos:R:3:spacegroup_kinds:I:1:forces:R:3 spacegroup="P 1" unit_cell=conventional occupancy="_JSON {\"0\": {\"In\": 1}, \"1\": {\"In\": 1}, \"2\": {\"In\": 1}, \"3\": {\"In\": 1}, \"4\": {\"In\": 1}, \"5\": {\"In\": 1}, \"6\": {\"In\": 1}, \"7\": {\"In\": 1}, \"8\": {\"O\": 1}, \"9\": {\"O\": 1}, \"10\": {\"O\": 1}, \"11\": {\"O\": 1}, \"12\": {\"O\": 1}, \"13\": {\"O\": 1}, \"14\": {\"O\": 1}, \"15\": {\"O\": 1}, \"16\": {\"O\": 1}, \"17\": {\"O\": 1}, \"18\": {\"O\": 1}, \"19\": {\"O\": 1}}" n_minim_iter=6 energy=-22574.754472603938 stress="0.03124926738319635 -6.057034568263062e-13 6.191387197116249e-13 -6.057034568263062e-13 0.031276158339190493 1.0921413399512403e-12 6.191387197116249e-13 1.0921413399512403e-12 0.03125205555043522" free_energy=-22574.754472603938 pbc="T T T"
In       1.41260603       3.01563911       0.95248897        0      -0.00298771      -0.00175487      -0.00335868
In       1.43768313       0.14596412       3.17039746        1       0.00298771      -0.00175487       0.00335868
In       1.43768313       2.72371087       5.07537540        2       0.00298771       0.00175487      -0.00335868
In       1.41260603       5.59338586       7.29328388        3      -0.00298771       0.00175487       0.00335868
In       4.28797229       2.72371087       7.29328388        4       0.00298771       0.00175487       0.00335868
In       4.26289519       5.59338586       5.07537540        5      -0.00298771       0.00175487      -0.00335868
In       4.26289519       3.01563911       3.17039746        6      -0.00298771      -0.00175487       0.00335868
In       4.28797229       0.14596412       0.95248897        7       0.00298771      -0.00175487      -0.00335868
O        2.22586375       3.45990047       7.00234587        8      -0.00079220       0.00061998      -0.00101026
O        0.62442540       0.59022548       5.36631341        9       0.00079220       0.00061998       0.00101026
O        0.62442540       2.27944951       2.87945945       10       0.00079220      -0.00061998      -0.00101026
O        2.22586375       5.14912450       1.24342698       11      -0.00079220      -0.00061998       0.00101026
O        3.47471456       2.27944951       1.24342698       12       0.00079220      -0.00061998       0.00101026
O        5.07615291       5.14912450       2.87945945       13      -0.00079220      -0.00061998      -0.00101026
O        5.07615291       3.45990047       5.36631341       14      -0.00079220       0.00061998       0.00101026
O        3.47471456       0.59022548       7.00234587       15       0.00079220       0.00061998      -0.00101026
O        5.46215096       4.30451249      -0.00000000       16       0.00238893       0.00000000       0.00000000
O        3.08871652       1.43483750       4.12288643       17      -0.00238893      -0.00000000      -0.00000000
O        0.23842736       1.43483750      -0.00000000       18      -0.00238893      -0.00000000       0.00000000
O        2.61186180       4.30451249       4.12288643       19       0.00238893       0.00000000       0.00000000
