20
Lattice="5.725463266533964 9.260071413753795e-60 -1.3542338953520328e-43 -2.189546805818966e-60 5.95400101916566 3.603363827943392e-17 1.16043553458499e-42 -8.94389317213003e-17 9.232944916036901" Properties=species:S:1:pos:R:3:spacegroup_kinds:I:1:forces:R:3 spacegroup="P 1" unit_cell=conventional occupancy="_JSON {\"0\": {\"In\": 1}, \"1\": {\"In\": 1}, \"2\": {\"In\": 1}, \"3\": {\"In\": 1}, \"4\": {\"In\": 1}, \"5\": {\"In\": 1}, \"6\": {\"In\": 1}, \"7\": {\"In\": 1}, \"8\": {\"O\": 1}, \"9\": {\"O\": 1}, \"10\": {\"O\": 1}, \"11\": {\"O\": 1}, \"12\": {\"O\": 1}, \"13\": {\"O\": 1}, \"14\": {\"O\": 1}, \"15\": {\"O\": 1}, \"16\": {\"O\": 1}, \"17\": {\"O\": 1}, \"18\": {\"O\": 1}, \"19\": {\"O\": 1}}" n_minim_iter=8 energy=-22572.24577578966 stress="0.0958447067164868 -2.6302038872723335e-13 1.1570271297793748e-13 -2.6302038872723335e-13 0.09571011990142196 9.931078232430377e-14 1.1570271297793748e-13 9.931078232430377e-14 0.09571303359545959" free_energy=-22572.24577578966 pbc="T T T"
In       1.37270391       3.17494334       1.15185464        0       0.00078039       0.00023355      -0.00418334
In       1.49002773       0.19794283       3.46461782        1      -0.00078039       0.00023355       0.00418334
In       1.49002773       2.77905768       5.76832710        2      -0.00078039      -0.00023355      -0.00418334
In       1.37270391       5.75605819       8.08109027        3       0.00078039      -0.00023355       0.00418334
In       4.35275936       2.77905768       8.08109027        4      -0.00078039      -0.00023355       0.00418334
In       4.23543554       5.75605819       5.76832710        5       0.00078039      -0.00023355      -0.00418334
In       4.23543554       3.17494334       3.46461782        6       0.00078039       0.00023355       0.00418334
In       4.35275936       0.19794283       1.15185464        7      -0.00078039       0.00023355      -0.00418334
O        2.26826062       3.58717223       7.71047339        8       0.00368239      -0.00750609       0.00029916
O        0.59447101       0.61017172       6.13894399        9      -0.00368239      -0.00750609      -0.00029916
O        0.59447101       2.36682879       3.09400093       10      -0.00368239       0.00750609       0.00029916
O        2.26826062       5.34382930       1.52247153       11       0.00368239       0.00750609      -0.00029916
O        3.45720264       2.36682879       1.52247153       12      -0.00368239       0.00750609      -0.00029916
O        5.13099226       5.34382930       3.09400093       13       0.00368239       0.00750609       0.00029916
O        5.13099226       3.58717223       6.13894399       14       0.00368239      -0.00750609      -0.00029916
O        3.45720264       0.61017172       7.71047339       15      -0.00368239      -0.00750609       0.00029916
O        5.45418837       4.46550076      -0.00000000       16       0.00329264       0.00000000      -0.00000000
O        3.13400653       1.48850025       4.61647246       17      -0.00329264      -0.00000000       0.00000000
O        0.27127490       1.48850025      -0.00000000       18      -0.00329264       0.00000000      -0.00000000
O        2.59145673       4.46550076       4.61647246       19       0.00329264       0.00000000       0.00000000
