20
Lattice="5.795343996548554 -1.7255099637626943e-60 3.025238166375868e-43 3.5115791365933004e-61 5.816836695583631 1.248566616347281e-17 -4.542970645184496e-43 -3.232999700765045e-17 8.383981035644638" Properties=species:S:1:pos:R:3:spacegroup_kinds:I:1:forces:R:3 spacegroup="P 1" unit_cell=conventional occupancy="_JSON {\"0\": {\"In\": 1}, \"1\": {\"In\": 1}, \"2\": {\"In\": 1}, \"3\": {\"In\": 1}, \"4\": {\"In\": 1}, \"5\": {\"In\": 1}, \"6\": {\"In\": 1}, \"7\": {\"In\": 1}, \"8\": {\"O\": 1}, \"9\": {\"O\": 1}, \"10\": {\"O\": 1}, \"11\": {\"O\": 1}, \"12\": {\"O\": 1}, \"13\": {\"O\": 1}, \"14\": {\"O\": 1}, \"15\": {\"O\": 1}, \"16\": {\"O\": 1}, \"17\": {\"O\": 1}, \"18\": {\"O\": 1}, \"19\": {\"O\": 1}}" n_minim_iter=4 energy=-22574.507325517614 stress="0.045581196771998865 4.562081303831421e-13 -1.0992904100390443e-12 4.562081303831421e-13 0.045547002101694926 -2.695144384966803e-13 -1.0992904100390443e-12 -2.695144384966803e-13 0.04553541967142675" free_energy=-22574.507325517614 pbc="T T T"
In       1.43533367       3.05035956       0.97116941        0       0.00411839      -0.00096651       0.00748249
In       1.46233833       0.14194121       3.22082111        1      -0.00411839      -0.00096651      -0.00748249
In       1.46233833       2.76647714       5.16315993        2      -0.00411839       0.00096651       0.00748249
In       1.43533367       5.67489549       7.41281163        3       0.00411839       0.00096651      -0.00748249
In       4.36001033       2.76647714       7.41281163        4      -0.00411839       0.00096651      -0.00748249
In       4.33300567       5.67489549       5.16315993        5       0.00411839       0.00096651       0.00748249
In       4.33300567       3.05035956       3.22082111        6       0.00411839      -0.00096651      -0.00748249
In       4.36001033       0.14194121       0.97116941        7      -0.00411839      -0.00096651       0.00748249
O        2.26430868       3.50225143       7.11742722        8      -0.00228367      -0.00411210       0.00667647
O        0.63336332       0.59383309       5.45854433        9       0.00228367      -0.00411210      -0.00667647
O        0.63336332       2.31458526       2.92543670       10       0.00228367       0.00411210       0.00667647
O        2.26430868       5.22300361       1.26655381       11      -0.00228367       0.00411210      -0.00667647
O        3.53103532       2.31458526       1.26655381       12       0.00228367       0.00411210      -0.00667647
O        5.16198067       5.22300361       2.92543670       13      -0.00228367       0.00411210       0.00667647
O        5.16198067       3.50225143       5.45854433       14      -0.00228367      -0.00411210      -0.00667647
O        3.53103532       0.59383309       7.11742722       15       0.00228367      -0.00411210       0.00667647
O        5.54653064       4.36262752      -0.00000000       16       0.00734891      -0.00000000      -0.00000000
O        3.14648536       1.45420917       4.19199052       17      -0.00734891       0.00000000       0.00000000
O        0.24881336       1.45420917      -0.00000000       18      -0.00734891       0.00000000      -0.00000000
O        2.64885864       4.36262752       4.19199052       19       0.00734891      -0.00000000       0.00000000
