10
Lattice="5.954112027495103 0.03230895604517812 0.022308880144646288 3.294161790309798 4.959938709688406 0.022308880144646295 3.294161790309798 1.7781990274295518 4.630280543211978" Properties=species:S:1:pos:R:3:spacegroup_kinds:I:1:forces:R:3 spacegroup="P 1" unit_cell=conventional occupancy="_JSON {\"0\": {\"In\": 1}, \"1\": {\"In\": 1}, \"2\": {\"In\": 1}, \"3\": {\"In\": 1}, \"4\": {\"O\": 1}, \"5\": {\"O\": 1}, \"6\": {\"O\": 1}, \"7\": {\"O\": 1}, \"8\": {\"O\": 1}, \"9\": {\"O\": 1}}" n_minim_iter=6 energy=-11287.643545788182 stress="0.020832213163807095 0.00014092921800695744 9.730964439936468e-05 0.00014092921800695744 0.020647212017629438 5.252805592023882e-05 9.730964439936468e-05 5.252805592023882e-05 0.02060740786168569" free_energy=-11287.643545788182 pbc="T T T"
In      10.73334097       5.79389165       4.00060077        0      -0.00212963      -0.00114958      -0.00079377
In       8.08031245       4.36177840       3.01174669        1       0.00212963       0.00114958       0.00079377
In       4.46212317       2.40866830       1.66315162        2      -0.00212963      -0.00114958      -0.00079377
In       1.80909464       0.97655505       0.67429754        3       0.00212963       0.00114958       0.00079377
O        6.11266492       2.35021178       0.25090194        4       0.00000000       0.00094661      -0.00137094
O        7.22349408       5.18215636       1.19103346        5      -0.00079137       0.00146604      -0.00000000
O        8.29599755       2.24589045       2.56604221        6       0.00079137      -0.00051943      -0.00137094
O        4.24643807       4.52455626       2.10885610        7      -0.00079137       0.00051943       0.00137094
O        6.42977070       4.42023493       4.42399637        8       0.00000000      -0.00094661       0.00137094
O        5.31894154       1.58829035       3.48386485        9       0.00079137      -0.00146604      -0.00000000
