10
Lattice="5.8300616741145985 0.005481072023254123 0.0037846032121893677 3.2036644066326976 4.870953041839471 0.0037846032121895898 3.2036644066326962 1.729348251455852 4.553630692558772" Properties=species:S:1:pos:R:3:spacegroup_kinds:I:1:forces:R:3 spacegroup="P 1" unit_cell=conventional occupancy="_JSON {\"0\": {\"In\": 1}, \"1\": {\"In\": 1}, \"2\": {\"In\": 1}, \"3\": {\"In\": 1}, \"4\": {\"O\": 1}, \"5\": {\"O\": 1}, \"6\": {\"O\": 1}, \"7\": {\"O\": 1}, \"8\": {\"O\": 1}, \"9\": {\"O\": 1}}" n_minim_iter=1 energy=-11287.634950596697 stress="-0.026777518640680467 0.0011847791430933659 0.0008180733497178737 0.0011847791430933659 -0.02833280649117281 0.0004415986000327125 0.0008180733497178737 0.0004415986000327125 -0.028667436418014135" free_energy=-11287.634950596697 pbc="T T T"
In      10.48966491       5.66235454       3.90977624        0       0.00550923       0.00297390       0.00205344
In       7.86642083       4.24631902       2.93202361        1      -0.00550923      -0.00297390      -0.00205344
In       4.37096967       2.35946335       1.62917629        2       0.00550923       0.00297390       0.00205344
In       1.74772558       0.94342784       0.65142366        3      -0.00550923      -0.00297390      -0.00205344
O        5.97437846       2.29383235       0.21582120        4      -0.00000000       0.04943665      -0.07159690
O        7.04146324       5.08029672       1.14408458        5      -0.04132929       0.07656362       0.00000000
O        8.11095809       2.16787241       2.49263654        6       0.04132929      -0.02712697      -0.07159690
O        4.12643241       4.43790997       2.06856336        7      -0.04132929       0.02712697       0.07159690
O        6.26301203       4.31195003       4.34537871        8       0.00000000      -0.04943665       0.07159690
O        5.19592725       1.52548566       3.41711532        9       0.04132929      -0.07656362       0.00000000
10
Lattice="5.8177241432755595 -0.007250387748256675 -0.005006290857921633 3.186250970095084 4.867624834654165 -0.005006290857921418 3.186250970095083 1.7199484229451594 4.553633056834796" Properties=species:S:1:pos:R:3:spacegroup_kinds:I:1:forces:R:3 spacegroup="P 1" unit_cell=conventional occupancy="_JSON {\"0\": {\"In\": 1}, \"1\": {\"In\": 1}, \"2\": {\"In\": 1}, \"3\": {\"In\": 1}, \"4\": {\"O\": 1}, \"5\": {\"O\": 1}, \"6\": {\"O\": 1}, \"7\": {\"O\": 1}, \"8\": {\"O\": 1}, \"9\": {\"O\": 1}}" n_minim_iter=2 energy=-11287.635902636304 stress="-0.027769931194218837 -0.0006682201277783661 -0.000461396607995777 -0.0006682201277783661 -0.0268927426884715 -0.00024906335914507945 -0.000461396607995777 -0.00024906335914507945 -0.0267040100850714" free_energy=-11287.635902636304 pbc="T T T"
In      10.44931486       5.64057345       3.89473670        0       0.04131510       0.02230202       0.01539923
In       7.83602428       4.22991087       2.92069401        1      -0.04131510      -0.02230202      -0.01539923
In       4.35420182       2.35041201       1.62292647        2       0.04131510       0.02230202       0.01539923
In       1.74091123       0.93974943       0.64888378        3      -0.04131510      -0.02230202      -0.01539923
O        5.95641860       2.28304556       0.20421575        4       0.00000000       0.04064702      -0.05886727
O        7.01317162       5.06891244       1.13089883        5      -0.03398111       0.06295093       0.00000000
O        8.08591655       2.14937528       2.48103228        6       0.03398111      -0.02230391      -0.05886727
O        4.10430955       4.43094761       2.06258820        7      -0.03398111       0.02230391       0.05886727
O        6.23380750       4.29727732       4.33940473        8      -0.00000000      -0.04064702       0.05886727
O        5.17705447       1.51141044       3.41272165        9       0.03398111      -0.06295093      -0.00000000
10
Lattice="5.825240517783746 0.0005113112048717783 0.00035305320203661734 3.196864188010514 4.869649547440195 0.0003530532020368355 3.196864188010514 1.725677471782601 4.553627576220201" Properties=species:S:1:pos:R:3:spacegroup_kinds:I:1:forces:R:3 spacegroup="P 1" unit_cell=conventional occupancy="_JSON {\"0\": {\"In\": 1}, \"1\": {\"In\": 1}, \"2\": {\"In\": 1}, \"3\": {\"In\": 1}, \"4\": {\"O\": 1}, \"5\": {\"O\": 1}, \"6\": {\"O\": 1}, \"7\": {\"O\": 1}, \"8\": {\"O\": 1}, \"9\": {\"O\": 1}}" n_minim_iter=3 energy=-11287.637692788343 stress="-0.0257216593307866 0.0008039075313236847 0.0005550868538476044 0.0008039075313236847 -0.026776967928140705 0.0002996376519217911 0.0005550868538476044 0.0002996376519217911 -0.027004024185494677" free_energy=-11287.637692788343 pbc="T T T"
In      10.47630381       5.65514217       3.90479620        0       0.02916673       0.01574429       0.01087121
In       7.85214954       4.23861534       2.92670433        1      -0.02916673      -0.01574429      -0.01087121
In       4.36681936       2.35722301       1.62762936        2       0.02916673       0.01574429       0.01087121
In       1.74266509       0.94069617       0.64953749        3      -0.02916673      -0.01574429      -0.01087121
O        5.96736249       2.29334588       0.20589428        4       0.00000000       0.00402582      -0.00583041
O        7.02729816       5.08161920       1.13893648        5      -0.00336560       0.00623487       0.00000000
O        8.10429100       2.15860543       2.48270807        6       0.00336560      -0.00220905      -0.00583041
O        4.11467790       4.43723291       2.07162562        7      -0.00336560       0.00220905       0.00583041
O        6.25160642       4.30249246       4.34843940        8       0.00000000      -0.00402582       0.00583041
O        5.19167074       1.51421914       3.41539721        9       0.00336560      -0.00623487       0.00000000
10
Lattice="5.820541274114277 -0.00433935447888353 -0.0029962632911776886 3.1902304296552204 4.868382622531534 -0.002996263291177461 3.1902304296552213 1.722096547891647 4.5536295212391185" Properties=species:S:1:pos:R:3:spacegroup_kinds:I:1:forces:R:3 spacegroup="P 1" unit_cell=conventional occupancy="_JSON {\"0\": {\"In\": 1}, \"1\": {\"In\": 1}, \"2\": {\"In\": 1}, \"3\": {\"In\": 1}, \"4\": {\"O\": 1}, \"5\": {\"O\": 1}, \"6\": {\"O\": 1}, \"7\": {\"O\": 1}, \"8\": {\"O\": 1}, \"9\": {\"O\": 1}}" n_minim_iter=4 energy=-11287.638155627605 stress="-0.025792819115925465 0.0002281810846451251 0.00015755583338307352 0.0002281810846451251 -0.026092357870523976 8.504914053442224e-05 0.00015755583338307352 8.504914053442224e-05 -0.026156805510682044" free_energy=-11287.638155627605 pbc="T T T"
In      10.46200605       5.64742420       3.89946705        0       0.03846314       0.02076252       0.01433623
In       7.83949716       4.23178554       2.92198845        1      -0.03846314      -0.02076252      -0.01433623
In       4.36150499       2.35435429       1.62564855        2       0.03846314       0.02076252       0.01433623
In       1.73899609       0.93871563       0.64816995        3      -0.03846314      -0.02076252      -0.01433623
O        5.96052118       2.28993314       0.20046398        4      -0.00000000      -0.00537832       0.00778919
O        7.01593844       5.07836164       1.13391299        5       0.00449631      -0.00832953       0.00000000
O        8.09533434       2.15117637       2.47727874        6      -0.00449631       0.00295120       0.00778919
O        4.10566780       4.43496346       2.07035826        7       0.00449631      -0.00295120      -0.00778919
O        6.24048097       4.29620668       4.34717302        8       0.00000000       0.00537832      -0.00778919
O        5.18506370       1.50777818       3.41372401        9      -0.00449631       0.00832953      -0.00000000
10
Lattice="5.816853626399049 -0.008150396886275396 -0.0056277345208202816 3.1850208863413325 4.867390932880846 -0.00562773452082007 3.185020886341333 1.719284419816651 4.5536345097803155" Properties=species:S:1:pos:R:3:spacegroup_kinds:I:1:forces:R:3 spacegroup="P 1" unit_cell=conventional occupancy="_JSON {\"0\": {\"In\": 1}, \"1\": {\"In\": 1}, \"2\": {\"In\": 1}, \"3\": {\"In\": 1}, \"4\": {\"O\": 1}, \"5\": {\"O\": 1}, \"6\": {\"O\": 1}, \"7\": {\"O\": 1}, \"8\": {\"O\": 1}, \"9\": {\"O\": 1}}" n_minim_iter=5 energy=-11287.638432780537 stress="-0.025791526329258053 -0.0001399127059293803 -9.660775778087979e-05 -0.0001399127059293803 -0.025607859581358767 -5.214917519786611e-05 -9.660775778087979e-05 -5.214917519786611e-05 -0.025568342529367457" free_energy=-11287.638432780537 pbc="T T T"
In      10.45154789       5.64177885       3.89556901        0       0.03781819       0.02041438       0.01409584
In       7.82879522       4.22600860       2.91799955        1      -0.03781819      -0.02041438      -0.01409584
In       4.35810019       2.35251637       1.62437949        2       0.03781819       0.02041438       0.01409584
In       1.73534752       0.93674612       0.64681003        3      -0.03781819      -0.02041438      -0.01409584
O        5.95515067       2.28719055       0.19628898        4      -0.00000000      -0.00994029       0.01439608
O        7.00707144       5.07570850       1.12996703        5       0.00831013      -0.01539474      -0.00000000
O        8.08825078       2.14537578       2.47310624        6      -0.00831013       0.00545445       0.01439608
O        4.09864463       4.43314919       2.06927281        7       0.00831013      -0.00545445      -0.01439608
O        6.23174474       4.29133441       4.34609006        8      -0.00000000       0.00994029      -0.01439608
O        5.17982397       1.50281647       3.41241202        9      -0.00831013       0.01539474      -0.00000000
10
Lattice="5.813817185626653 -0.011291471638213571 -0.0077966024987388815 3.1807287708032645 4.866576029592465 -0.007796602498738669 3.1807287708032654 1.716967522177361 4.553640913225655" Properties=species:S:1:pos:R:3:spacegroup_kinds:I:1:forces:R:3 spacegroup="P 1" unit_cell=conventional occupancy="_JSON {\"0\": {\"In\": 1}, \"1\": {\"In\": 1}, \"2\": {\"In\": 1}, \"3\": {\"In\": 1}, \"4\": {\"O\": 1}, \"5\": {\"O\": 1}, \"6\": {\"O\": 1}, \"7\": {\"O\": 1}, \"8\": {\"O\": 1}, \"9\": {\"O\": 1}}" n_minim_iter=6 energy=-11287.63870490333 stress="-0.025703832115209876 -0.00032859871000590356 -0.0002268927920533729 -0.00032859871000590356 -0.025272472748603895 -0.00012247745165673346 -0.0002268927920533729 -0.00012247745165673346 -0.02517966307770929" free_energy=-11287.63870490333 pbc="T T T"
In      10.44395402       5.63767965       3.89273858        0       0.02675196       0.01444079       0.00997116
In       7.81895808       4.22069848       2.91433299        1      -0.02675196      -0.01444079      -0.00997116
In       4.35631666       2.35155361       1.62371472        2       0.02675196       0.01444079       0.00997116
In       1.73132072       0.93457244       0.64530914        3      -0.02675196      -0.01444079      -0.00997116
O        5.95072728       2.28484875       0.19296752        4      -0.00000000      -0.01000290       0.01448675
O        6.99983573       5.07339655       1.12671533        5       0.00836247      -0.01549170       0.00000000
O        8.08234760       2.14064126       2.46978798        6      -0.00836247       0.00548881       0.01448675
O        4.09292714       4.43161083       2.06825974        7       0.00836247      -0.00548881      -0.01448675
O        6.22454746       4.28740334       4.34508019        8       0.00000000       0.01000290      -0.01448675
O        5.17543900       1.49885554       3.41133239        9      -0.00836247       0.01549170      -0.00000000
10
Lattice="5.81269522846772 -0.01245278523890795 -0.008598473221272041 3.179142264440076 4.866275305956544 -0.008598473221271866 3.179142264440077 1.716111120988952 4.553643805516872" Properties=species:S:1:pos:R:3:spacegroup_kinds:I:1:forces:R:3 spacegroup="P 1" unit_cell=conventional occupancy="_JSON {\"0\": {\"In\": 1}, \"1\": {\"In\": 1}, \"2\": {\"In\": 1}, \"3\": {\"In\": 1}, \"4\": {\"O\": 1}, \"5\": {\"O\": 1}, \"6\": {\"O\": 1}, \"7\": {\"O\": 1}, \"8\": {\"O\": 1}, \"9\": {\"O\": 1}}" n_minim_iter=7 energy=-11287.638889721275 stress="-0.025549715506423244 -0.00023892019386156078 -0.00016497103713975807 -0.00023892019386156078 -0.02523607926635158 -8.905189127368924e-05 -0.00016497103713975807 -8.905189127368924e-05 -0.0251685984639582" free_energy=-11287.638889721275 pbc="T T T"
In      10.44250632       5.63689818       3.89219898        0       0.00885317       0.00477897       0.00329981
In       7.81396333       4.21800230       2.91247131        1      -0.00885317      -0.00477897      -0.00329981
In       4.35701644       2.35193136       1.62397555        2       0.00885317       0.00477897       0.00329981
In       1.72847345       0.93303548       0.64424788        3      -0.00885317      -0.00477897      -0.00329981
O        5.94909256       2.28386594       0.19190937        4       0.00000000      -0.00505270       0.00731760
O        6.99725940       5.07236076       1.12551324        5       0.00422408      -0.00782523      -0.00000000
O        8.08006798       2.13895542       2.46873127        6      -0.00422408       0.00277253       0.00731760
O        4.09091179       4.43097823       2.06771559        7       0.00422408      -0.00277253      -0.00731760
O        6.22188721       4.28606771       4.34453750        8       0.00000000       0.00505270      -0.00731760
O        5.17372036       1.49757289       3.41093362        9      -0.00422408       0.00782523      -0.00000000
10
Lattice="5.813457865133002 -0.01166335567040215 -0.008053383197261038 3.180220706893778 4.866479696760926 -0.008053383197260875 3.1802207068937793 1.716693267660665 4.553641808567699" Properties=species:S:1:pos:R:3:spacegroup_kinds:I:1:forces:R:3 spacegroup="P 1" unit_cell=conventional occupancy="_JSON {\"0\": {\"In\": 1}, \"1\": {\"In\": 1}, \"2\": {\"In\": 1}, \"3\": {\"In\": 1}, \"4\": {\"O\": 1}, \"5\": {\"O\": 1}, \"6\": {\"O\": 1}, \"7\": {\"O\": 1}, \"8\": {\"O\": 1}, \"9\": {\"O\": 1}}" n_minim_iter=8 energy=-11287.63892779846 stress="-0.025468032029220173 -5.7669690928171426e-05 -3.98201116415156e-05 -5.7669690928171426e-05 -0.025392327649811045 -2.149502291378301e-05 -3.98201116415156e-05 -2.149502291378301e-05 -0.025376039378029007" free_energy=-11287.63892779846 pbc="T T T"
In      10.44550490       5.63851682       3.89331663        0       0.00066855       0.00036089       0.00024919
In       7.81534403       4.21874761       2.91298594        1      -0.00066855      -0.00036089      -0.00024919
In       4.35855526       2.35276201       1.62454911        2       0.00066855       0.00036089       0.00024919
In       1.72839439       0.93299280       0.64421842        3      -0.00066855      -0.00036089      -0.00024919
O        5.95020376       2.28435338       0.19289027        4      -0.00000000      -0.00094794       0.00137286
O        6.99916168       5.07278508       1.12633038        5       0.00079248      -0.00146809      -0.00000000
O        8.08146654       2.14020051       2.46971117        6      -0.00079248       0.00052015       0.00137286
O        4.09243275       4.43130911       2.06782388        7       0.00079248      -0.00052015      -0.00137286
O        6.22369553       4.28715624       4.34464478        8       0.00000000       0.00094794      -0.00137286
O        5.17473760       1.49872454       3.41120467        9      -0.00079248       0.00146809       0.00000000
