10
Lattice="6.236145234260498 0.08359003439685016 0.05771774414620372 3.4917908092780086 5.167580828674284 0.057717744146201 3.4917908092780032 1.8848798013839114 4.811907219929154" Properties=species:S:1:pos:R:3:spacegroup_kinds:I:1:forces:R:3 spacegroup="P 1" unit_cell=conventional occupancy="_JSON {\"0\": {\"In\": 1}, \"1\": {\"In\": 1}, \"2\": {\"In\": 1}, \"3\": {\"In\": 1}, \"4\": {\"O\": 1}, \"5\": {\"O\": 1}, \"6\": {\"O\": 1}, \"7\": {\"O\": 1}, \"8\": {\"O\": 1}, \"9\": {\"O\": 1}}" n_minim_iter=1 energy=-11286.630989030415 stress="0.09265563078835386 0.0002114254444086413 0.0001459862983958231 0.0002114254444086413 0.0923780875625706 7.880386894107869e-05 0.0001459862983958231 7.880386894107869e-05 0.0923183723977165" free_energy=-11286.630989030415 pbc="T T T"
In      11.25776298       6.07697632       4.19606676        0      -0.04898461      -0.02644205      -0.01825786
In       8.57182731       4.62709969       3.19494731        1       0.04898461       0.02644205       0.01825786
In       4.64789956       2.50895099       1.73239540        2      -0.04898461      -0.02644205      -0.01825786
In       1.96196388       1.05907435       0.73127596        3       0.04898461       0.02644205       0.01825786
O        6.42300434       2.48391973       0.30758024        4       0.00000000       0.02046293      -0.02963555
O        7.61871480       5.42883059       1.28955342        5      -0.01710711       0.03169139       0.00000000
O        8.71908468       2.40712714       2.71353385        6       0.01710711      -0.01122846      -0.02963555
O        4.50064218       4.72892354       2.21380886        7      -0.01710711       0.01122846       0.02963555
O        6.79672253       4.65213095       4.61976247        8       0.00000000      -0.02046293       0.02963555
O        5.60101207       1.70722008       3.63778929        9       0.01710711      -0.03169139       0.00000000
10
Lattice="6.229337737411232 0.07670947645415374 0.052966815572179936 3.482303206297766 5.165665239823604 0.05296681557217719 3.482303206297761 1.8797583630739492 4.811799180132862" Properties=species:S:1:pos:R:3:spacegroup_kinds:I:1:forces:R:3 spacegroup="P 1" unit_cell=conventional occupancy="_JSON {\"0\": {\"In\": 1}, \"1\": {\"In\": 1}, \"2\": {\"In\": 1}, \"3\": {\"In\": 1}, \"4\": {\"O\": 1}, \"5\": {\"O\": 1}, \"6\": {\"O\": 1}, \"7\": {\"O\": 1}, \"8\": {\"O\": 1}, \"9\": {\"O\": 1}}" n_minim_iter=2 energy=-11286.6314410591 stress="0.09157891102371346 -0.000701522306757266 -0.0004843912949323375 -0.000701522306757266 0.09249981609491932 -0.0002614759637881798 -0.0004843912949323375 -0.0002614759637881798 0.09269795459084255" free_energy=-11286.6314410591 pbc="T T T"
In      11.23412922       6.06421874       4.18725783        0      -0.03530443      -0.01905744      -0.01315890
In       8.55678701       4.61898089       3.18934140        1       0.03530443       0.01905744       0.01315890
In       4.63715715       2.50315220       1.72839142        2      -0.03530443      -0.01905744      -0.01315890
In       1.95981494       1.05791435       0.73047499        3       0.03530443       0.01905744       0.01315890
O        6.41315491       2.47834558       0.30085363        4       0.00000000       0.01627095      -0.02356449
O        7.60299670       5.42303697       1.28240002        5      -0.01360259       0.02519917      -0.00000000
O        8.70561633       2.39690842       2.70675322        6       0.01360259      -0.00892822      -0.02356449
O        4.48832783       4.72522467       2.21097959        7      -0.01360259       0.00892822       0.02356449
O        6.78078925       4.64378751       4.61687918        8       0.00000000      -0.01627095       0.02356449
O        5.59094746       1.69909612       3.63533280        9       0.01360259      -0.02519917       0.00000000
10
Lattice="6.2347078357747066 0.08213819547481571 0.05671526977173894 3.4897883327506207 5.167175812107043 0.05671526977173619 3.489788332750617 1.8837988581758618 4.811883659959441" Properties=species:S:1:pos:R:3:spacegroup_kinds:I:1:forces:R:3 spacegroup="P 1" unit_cell=conventional occupancy="_JSON {\"0\": {\"In\": 1}, \"1\": {\"In\": 1}, \"2\": {\"In\": 1}, \"3\": {\"In\": 1}, \"4\": {\"O\": 1}, \"5\": {\"O\": 1}, \"6\": {\"O\": 1}, \"7\": {\"O\": 1}, \"8\": {\"O\": 1}, \"9\": {\"O\": 1}}" n_minim_iter=3 energy=-11286.632489134048 stress="0.09141667261412144 6.66932498202447e-06 4.605075137584861e-06 6.66932498202447e-06 0.09140791763305663 2.485834503376543e-06 4.605075137584861e-06 2.485834503376543e-06 0.0914060339437038" free_energy=-11286.632489134048 pbc="T T T"
In      11.24640477       6.07084512       4.19183325        0      -0.00440080      -0.00237556      -0.00164029
In       8.57502199       4.62882419       3.19613806        1       0.00440080       0.00237556       0.00164029
In       4.63926252       2.50428869       1.72917615        2      -0.00440080      -0.00237556      -0.00164029
In       1.96787974       1.06226776       0.73348096        3       0.00440080       0.00237556       0.00164029
O        6.42092505       2.48545583       0.30223222        4      -0.00000000      -0.00371050       0.00537376
O        7.61312920       5.43180842       1.28804382        5       0.00310200      -0.00574654       0.00000000
O        8.71850923       2.40348207       2.70817405        6      -0.00310200       0.00203604       0.00537376
O        4.49577529       4.72963081       2.21714016        7       0.00310200      -0.00203604      -0.00537376
O        6.79335946       4.64765705       4.62308199        8       0.00000000       0.00371050      -0.00537376
O        5.60115531       1.70130446       3.63727038        9      -0.00310200       0.00574654      -0.00000000
