10
Lattice="6.324422941408971 0.0839540258369939 0.05796907512081858 3.5405350143483996 5.241181701911059 0.05796907512082169 3.540535014348398 1.9111920785477 4.880644515329324" Properties=species:S:1:pos:R:3:spacegroup_kinds:I:1:forces:R:3 spacegroup="P 1" unit_cell=conventional occupancy="_JSON {\"0\": {\"In\": 1}, \"1\": {\"In\": 1}, \"2\": {\"In\": 1}, \"3\": {\"In\": 1}, \"4\": {\"O\": 1}, \"5\": {\"O\": 1}, \"6\": {\"O\": 1}, \"7\": {\"O\": 1}, \"8\": {\"O\": 1}, \"9\": {\"O\": 1}}" n_minim_iter=1 energy=-11285.96620064571 stress="0.10946048222680005 0.00013671662383864334 9.440090782853742e-05 0.00013671662383864334 0.1092810110523392 5.0957910806628096e-05 9.440090782853742e-05 5.0957910806628096e-05 0.10924239670433013" free_energy=-11285.96620064571 pbc="T T T"
In      11.40366062       6.15573233       4.25044667        0      -0.03944845      -0.02129440      -0.01470348
In       8.70457885       4.69875939       3.24442733        1       0.03944845       0.02129440       0.01470348
In       4.70091413       2.53756843       1.75215534        2      -0.03944845      -0.02129440      -0.01470348
In       2.00183236       1.08059549       0.74613600        3       0.03944845       0.02129440       0.01470348
O        6.51358472       2.52589276       0.30079853        4       0.00000000       0.04163766      -0.06030197
O        7.71968781       5.51677965       1.30711474        5      -0.03480929       0.06448516      -0.00000000
O        8.84801664       2.43635897       2.74112079        6       0.03480929      -0.02284750      -0.06030197
O        4.55747634       4.79996885       2.25546188        7      -0.03480929       0.02284750       0.06030197
O        6.89190826       4.71043506       4.69578414        8      -0.00000000      -0.04163766       0.06030197
O        5.68580517       1.71954817       3.68946793        9       0.03480929      -0.06448516      -0.00000000
10
Lattice="6.31473272337891 0.07415438529868298 0.051202561033390104 3.5270252316775776 5.238457908171175 0.05120256103339321 3.5270252316775768 1.903899454828759 4.880494833911852" Properties=species:S:1:pos:R:3:spacegroup_kinds:I:1:forces:R:3 spacegroup="P 1" unit_cell=conventional occupancy="_JSON {\"0\": {\"In\": 1}, \"1\": {\"In\": 1}, \"2\": {\"In\": 1}, \"3\": {\"In\": 1}, \"4\": {\"O\": 1}, \"5\": {\"O\": 1}, \"6\": {\"O\": 1}, \"7\": {\"O\": 1}, \"8\": {\"O\": 1}, \"9\": {\"O\": 1}}" n_minim_iter=2 energy=-11285.967996144647 stress="0.10750051407836497 -0.0009472621458872533 -0.0006540712009371669 -0.0009472621458872533 0.10874400769831148 -0.000353069717805737 -0.0006540712009371669 -0.000353069717805737 0.10901155314320031" free_energy=-11285.967996144647 pbc="T T T"
In      11.36962265       6.13735852       4.23775982        0      -0.02116156      -0.01142308      -0.00788748
In       8.68355214       4.68740911       3.23659012        1       0.02116156       0.01142308       0.00788748
In       4.68523105       2.52910265       1.74630984        2      -0.02116156      -0.01142308      -0.00788748
In       1.99916055       1.07915324       0.74514014        3       0.02116156       0.01142308       0.00788748
O        6.49956216       2.51994301       0.28834048        4       0.00000000       0.02247633      -0.03255146
O        7.69564653       5.51161027       1.29692755        5      -0.01879032       0.03480958       0.00000000
O        8.83050303       2.42071656       2.72858790        6       0.01879032      -0.01233325      -0.03255146
O        4.53828017       4.79579520       2.25431207        7      -0.01879032       0.01233325       0.03255146
O        6.86922103       4.69656875       4.69455948        8       0.00000000      -0.02247633       0.03255146
O        5.67313667       1.70490149       3.68597241        9       0.01879032      -0.03480958      -0.00000000
10
Lattice="6.321837877828778 0.08134209069282046 0.05616557060660657 3.5369329426865592 5.240453801743459 0.056165570606609656 3.5369329426865574 1.9092476687908206 4.8806028273919075" Properties=species:S:1:pos:R:3:spacegroup_kinds:I:1:forces:R:3 spacegroup="P 1" unit_cell=conventional occupancy="_JSON {\"0\": {\"In\": 1}, \"1\": {\"In\": 1}, \"2\": {\"In\": 1}, \"3\": {\"In\": 1}, \"4\": {\"O\": 1}, \"5\": {\"O\": 1}, \"6\": {\"O\": 1}, \"7\": {\"O\": 1}, \"8\": {\"O\": 1}, \"9\": {\"O\": 1}}" n_minim_iter=3 energy=-11285.969112300067 stress="0.10760229498107253 9.47797795136465e-05 6.544410626198304e-05 9.47797795136465e-05 0.10747787530255598 3.532693698202748e-05 6.544410626198304e-05 3.532693698202748e-05 0.10745110562874674" free_energy=-11285.969112300067 pbc="T T T"
In      11.38958930       6.14813658       4.24520192        0      -0.00001714      -0.00000925      -0.00000639
In       8.70396636       4.69842877       3.24419904        1       0.00001714       0.00000925       0.00000639
In       4.69173741       2.53261480       1.74873493        2      -0.00001714      -0.00000925      -0.00000639
In       2.00611448       1.08290699       0.74773206        3       0.00001714       0.00000925       0.00000639
O        6.50984488       2.52958554       0.28983190        4       0.00000000      -0.00252290       0.00365380
O        7.70886355       5.52357631       1.30439907        5       0.00210916      -0.00390727       0.00000000
O        8.84775916       2.42929191       2.73013331        6      -0.00210916       0.00138437       0.00365380
O        4.54794461       4.80175166       2.26280066        7       0.00210916      -0.00138437      -0.00365380
O        6.88585889       4.70145803       4.70310207        8       0.00000000       0.00252290      -0.00365380
O        5.68684023       1.70746727       3.68853491        9      -0.00210916       0.00390727      -0.00000000
