10
Lattice="5.188748950061171 -0.2208932134922985 -0.15252365993116554 2.6625120736408925 4.459028923010529 -0.15252365993115632 2.66251207364089 1.4372324983535052 4.223809317282182" Properties=species:S:1:pos:R:3:spacegroup_kinds:I:1:forces:R:3 spacegroup="P 1" unit_cell=conventional occupancy="_JSON {\"0\": {\"In\": 1}, \"1\": {\"In\": 1}, \"2\": {\"In\": 1}, \"3\": {\"In\": 1}, \"4\": {\"O\": 1}, \"5\": {\"O\": 1}, \"6\": {\"O\": 1}, \"7\": {\"O\": 1}, \"8\": {\"O\": 1}, \"9\": {\"O\": 1}}" n_minim_iter=5 energy=-11283.068066317586 stress="-0.3766076880083934 7.5561783002923266e-06 5.217434628838526e-06 7.5561783002923266e-06 -0.37661760718452963 2.8163877766825484e-06 5.217434628838526e-06 2.8163877766825484e-06 -0.37661974135697457" free_energy=-11283.068066317586 pbc="T T T"
In       9.14788020       4.93805488       3.40965750        0      -0.00124288      -0.00067091      -0.00046325
In       6.62277943       3.57499744       2.46848549        1       0.00124288       0.00067091       0.00046325
In       3.89099365       2.10037077       1.45027650        2      -0.00124288      -0.00067091      -0.00046325
In       1.36589288       0.73731333       0.50910449        3       0.00124288       0.00067091       0.00046325
O        5.22281774       1.95791995      -0.03724871        4       0.00000000       0.00104465      -0.00151292
O        6.01106805       4.54384270       0.82716684        5      -0.00087333       0.00161787       0.00000000
O        7.09707951       1.67060341       2.07465595        6       0.00087333      -0.00057322      -0.00151292
O        3.41669358       4.00476480       1.84410604        7      -0.00087333       0.00057322       0.00151292
O        5.29095534       3.71744825       3.95601070        8       0.00000000      -0.00104465       0.00151292
O        4.50270503       1.13152550       3.09159516        9       0.00087333      -0.00161787       0.00000000
