10
Lattice="5.6906542819237265 -0.03397094560954643 -0.0234564605846208 3.0941864416358427 4.776055950878232 -0.023456460584604086 3.094186441635846 1.6702516972261632 4.474541308265645" Properties=species:S:1:pos:R:3:spacegroup_kinds:I:1:forces:R:3 spacegroup="P 1" unit_cell=conventional occupancy="_JSON {\"0\": {\"In\": 1}, \"1\": {\"In\": 1}, \"2\": {\"In\": 1}, \"3\": {\"In\": 1}, \"4\": {\"O\": 1}, \"5\": {\"O\": 1}, \"6\": {\"O\": 1}, \"7\": {\"O\": 1}, \"8\": {\"O\": 1}, \"9\": {\"O\": 1}}" n_minim_iter=5 energy=-11287.275813423033 stress="-0.08644636685713379 1.551187783127082e-05 1.071073354864427e-05 1.551187783127082e-05 -0.08646672966965574 5.781688176417967e-06 1.071073354864427e-05 5.781688176417967e-06 -0.08647111085634186" free_energy=-11287.275813423033 pbc="T T T"
In      10.20779295       5.51019915       3.80471508        0       0.00070542       0.00038079       0.00026293
In       7.61074781       4.10830591       2.83672750        1      -0.00070542      -0.00038079      -0.00026293
In       4.26827937       2.30403080       1.59090089        2       0.00070542       0.00038079       0.00026293
In       1.67123423       0.90213756       0.62291331        3      -0.00070542      -0.00038079      -0.00026293
O        5.81508394       2.23466978       0.15588231        4      -0.00000000      -0.00004951       0.00007171
O        6.81996851       4.97858287       1.08345064        5       0.00004139      -0.00007668       0.00000000
O        7.90438581       2.06533944       2.39315297        6      -0.00004139       0.00002717       0.00007171
O        3.97464137       4.34699727       2.03447542        7       0.00004139      -0.00002717      -0.00007171
O        6.06394324       4.17766693       4.27174608        8      -0.00000000       0.00004951      -0.00007171
O        5.05905867       1.43375384       3.34417775        9      -0.00004139       0.00007668      -0.00000000
