10
Lattice="6.190018845651648 0.08236839025146325 0.05687421603031749 3.4654589515831633 5.129689280660896 0.05687421603031621 3.4654589515831598 1.8706657807243547 4.776772585062357" Properties=species:S:1:pos:R:3:spacegroup_kinds:I:1:forces:R:3 spacegroup="P 1" unit_cell=conventional occupancy="_JSON {\"0\": {\"In\": 1}, \"1\": {\"In\": 1}, \"2\": {\"In\": 1}, \"3\": {\"In\": 1}, \"4\": {\"O\": 1}, \"5\": {\"O\": 1}, \"6\": {\"O\": 1}, \"7\": {\"O\": 1}, \"8\": {\"O\": 1}, \"9\": {\"O\": 1}}" n_minim_iter=1 energy=-11286.917247384214 stress="0.08236773171329988 0.0002089992607829884 0.00014431105330025296 0.0002089992607829884 0.08209337339644039 7.789956565857301e-05 0.00014431105330025296 7.789956565857301e-05 0.08203434348618048" free_energy=-11286.917247384214 pbc="T T T"
In      11.18100402       6.03554159       4.16745665        0      -0.04827106      -0.02605687      -0.01799190
In       8.50040111       4.58854360       3.16832488        1       0.04827106       0.02605687       0.01799190
In       4.62053565       2.49417986       1.72219615        2      -0.04827106      -0.02605687      -0.01799190
In       1.93993274       1.04718187       0.72306437        3       0.04827106       0.02605687       0.01799190
O        6.37524362       2.46344500       0.30741321        4      -0.00000000       0.01173527      -0.01699567
O        7.56324902       5.38582579       1.27950447        5      -0.00981074       0.01817467       0.00000000
O        8.65269717       2.38966181       2.69579950        6       0.00981074      -0.00643940      -0.01699567
O        4.46823959       4.69306165       2.19472152        7      -0.00981074       0.00643940       0.01699567
O        6.74569314       4.61927846       4.58310781        8       0.00000000      -0.01173527       0.01699567
O        5.55768774       1.69689768       3.61101655        9       0.00981074      -0.01817467      -0.00000000
10
Lattice="6.184055553394638 0.07634077807403607 0.05271223452164204 3.4571476490172324 5.128011421083481 0.05271223452164075 3.457147649017228 1.8661793131249529 4.776678185276394" Properties=species:S:1:pos:R:3:spacegroup_kinds:I:1:forces:R:3 spacegroup="P 1" unit_cell=conventional occupancy="_JSON {\"0\": {\"In\": 1}, \"1\": {\"In\": 1}, \"2\": {\"In\": 1}, \"3\": {\"In\": 1}, \"4\": {\"O\": 1}, \"5\": {\"O\": 1}, \"6\": {\"O\": 1}, \"7\": {\"O\": 1}, \"8\": {\"O\": 1}, \"9\": {\"O\": 1}}" n_minim_iter=2 energy=-11286.917567194672 stress="0.08138814634706125 -0.0005240005663405767 -0.000361815027565157 -0.0005240005663405767 0.08207601439155697 -0.00019530890486046205 -0.000361815027565157 -0.00019530890486046205 0.08222401351256478" free_energy=-11286.917567194672 pbc="T T T"
In      11.16024853       6.02433771       4.15972053        0      -0.03469235      -0.01872704      -0.01293076
In       8.48727776       4.58145957       3.16343346        1       0.03469235       0.01872704       0.01293076
In       4.61107310       2.48907195       1.71866920        2      -0.03469235      -0.01872704      -0.01293076
In       1.93810234       1.04619382       0.72238213        3       0.03469235       0.01872704       0.01293076
O        6.36661549       2.45831252       0.30188174        4       0.00000000       0.00828088      -0.01199282
O        7.54968833       5.38036431       1.27323790        5      -0.00692285       0.01282477       0.00000000
O        8.64069031       2.38084685       2.69022083        6       0.00692285      -0.00454390      -0.01199282
O        4.45766056       4.68968468       2.19188183        7      -0.00692285       0.00454390       0.01199282
O        6.73173537       4.61221900       4.58022092        8       0.00000000      -0.00828088       0.01199282
O        5.54866253       1.69016721       3.60886476        9       0.00692285      -0.01282477      -0.00000000
10
Lattice="6.190624303124208 0.08297986640740623 0.05729643172355026 3.4663023764400065 5.129859915801544 0.05729643172354897 3.466302376440001 1.8711210641486722 4.776782557342839" Properties=species:S:1:pos:R:3:spacegroup_kinds:I:1:forces:R:3 spacegroup="P 1" unit_cell=conventional occupancy="_JSON {\"0\": {\"In\": 1}, \"1\": {\"In\": 1}, \"2\": {\"In\": 1}, \"3\": {\"In\": 1}, \"4\": {\"O\": 1}, \"5\": {\"O\": 1}, \"6\": {\"O\": 1}, \"7\": {\"O\": 1}, \"8\": {\"O\": 1}, \"9\": {\"O\": 1}}" n_minim_iter=3 energy=-11286.918438562852 stress="0.08137685475654613 2.168635461812735e-05 1.4974123396001629e-05 2.168635461812735e-05 0.08134838656088575 8.083079239876944e-06 1.4974123396001629e-05 8.083079239876944e-06 0.0813422614504455" free_energy=-11286.918438562852 pbc="T T T"
In      11.17558660       6.03261725       4.16543744        0      -0.00298449      -0.00161104      -0.00111240
In       8.50925699       4.59332403       3.17162570        1       0.00298449       0.00161104       0.00111240
In       4.61397207       2.49063683       1.71974973        2      -0.00298449      -0.00161104      -0.00111240
In       1.94764246       1.05134361       0.72593799        3       0.00298449       0.00161104       0.00111240
O        6.37611942       2.46578828       0.30533505        4      -0.00000000      -0.00526649       0.00762722
O        7.56310176       5.38920268       1.28014029        5       0.00440281      -0.00815632      -0.00000000
O        8.65543946       2.38955624       2.69372633        6      -0.00440281       0.00288984       0.00762722
O        4.46778961       4.69440462       2.19764910        7       0.00440281      -0.00288984      -0.00762722
O        6.74710965       4.61817258       4.58604037        8       0.00000000       0.00526649      -0.00762722
O        5.56012731       1.69475818       3.61123514        9      -0.00440281       0.00815632       0.00000000
