10
Lattice="5.132345037711546 -0.21849201012472 -0.15086566274749408 2.6335694327313366 4.410557378335965 -0.15086566274747987 2.6335694327313357 1.4216091685984105 4.177894709964218" Properties=species:S:1:pos:R:3:spacegroup_kinds:I:1:forces:R:3 spacegroup="P 1" unit_cell=conventional occupancy="_JSON {\"0\": {\"In\": 1}, \"1\": {\"In\": 1}, \"2\": {\"In\": 1}, \"3\": {\"In\": 1}, \"4\": {\"O\": 1}, \"5\": {\"O\": 1}, \"6\": {\"O\": 1}, \"7\": {\"O\": 1}, \"8\": {\"O\": 1}, \"9\": {\"O\": 1}}" n_minim_iter=1 energy=-11281.663873819129 stress="-0.4677513513476312 0.007954276602362687 0.00549231622055057 0.007954276602362687 -0.4781931200325708 0.0029647697904503826 0.00549231622055057 0.0029647697904503826 -0.48043973199927564" free_energy=-11281.663873819129 pbc="T T T"
In       9.04843885       4.88437611       3.37259307        0       0.03720531       0.02008355       0.01386741
In       6.55078700       3.53613569       2.44165200        1      -0.03720531      -0.02008355      -0.01386741
In       3.84869689       2.07753885       1.43451138        2       0.03720531       0.02008355       0.01386741
In       1.35104504       0.72929842       0.50357031        3      -0.03720531      -0.02008355      -0.01386741
O        5.16604349       1.93663653      -0.03684380        4      -0.00000000      -0.06932883       0.10040586
O        5.94572518       4.49444920       0.81817518        5       0.05795925      -0.10737108       0.00000000
O        7.01993123       1.65244324       2.05210356        6      -0.05795925       0.03804225       0.10040586
O        3.37955266       3.96123130       1.82405982        7       0.05795925      -0.03804225      -0.10040586
O        5.23344040       3.67703801       3.91300718        8       0.00000000       0.06932883      -0.10040586
O        4.45375871       1.11922534       3.05798820        9      -0.05795925       0.10737108       0.00000000
10
Lattice="5.1015924797725765 -0.25274782197712664 -0.1745188194698695 2.5880568028815247 4.403644998889549 -0.17451881946985506 2.588056802881523 1.3970413060323517 4.179811201936465" Properties=species:S:1:pos:R:3:spacegroup_kinds:I:1:forces:R:3 spacegroup="P 1" unit_cell=conventional occupancy="_JSON {\"0\": {\"In\": 1}, \"1\": {\"In\": 1}, \"2\": {\"In\": 1}, \"3\": {\"In\": 1}, \"4\": {\"O\": 1}, \"5\": {\"O\": 1}, \"6\": {\"O\": 1}, \"7\": {\"O\": 1}, \"8\": {\"O\": 1}, \"9\": {\"O\": 1}}" n_minim_iter=2 energy=-11281.676678750173 stress="-0.46842045534807647 -0.0009478846331445487 -0.0006545010204603628 -0.0009478846331445487 -0.4671761445740269 -0.0003533017345807138 -0.0006545010204603628 -0.0003533017345807138 -0.46690842331215804" free_energy=-11281.676678750173 pbc="T T T"
In       8.94279200       4.82734761       3.33321569        0       0.27239380       0.14703904       0.10152839
In       6.47376711       3.49456011       2.41294465        1      -0.27239380      -0.14703904      -0.10152839
In       3.80393896       2.05337837       1.41782891        2       0.27239380       0.14703904       0.10152839
In       1.33491407       0.72059087       0.49755787        3      -0.27239380      -0.14703904      -0.10152839
O        5.12022275       1.90628116      -0.06466173        4       0.00000000      -0.20214072       0.29275139
O        5.87446744       4.46239713       0.78317457        5       0.16899065      -0.31305975      -0.00000000
O        6.95403487       1.60483788       2.02524387        6      -0.16899065       0.11091903       0.29275139
O        3.32367120       3.94310060       1.80552969        7       0.16899065      -0.11091903      -0.29275139
O        5.15748332       3.64165733       3.89543529        8      -0.00000000       0.20214072      -0.29275139
O        4.40323863       1.08554135       3.04759899        9      -0.16899065       0.31305975       0.00000000
10
Lattice="5.059388409891884 -0.30045006798289703 -0.20745655002622504 2.525019192271079 4.394537450535828 -0.2074565500262105 2.525019192271078 1.363013403028706 4.182964509468716" Properties=species:S:1:pos:R:3:spacegroup_kinds:I:1:forces:R:3 spacegroup="P 1" unit_cell=conventional occupancy="_JSON {\"0\": {\"In\": 1}, \"1\": {\"In\": 1}, \"2\": {\"In\": 1}, \"3\": {\"In\": 1}, \"4\": {\"O\": 1}, \"5\": {\"O\": 1}, \"6\": {\"O\": 1}, \"7\": {\"O\": 1}, \"8\": {\"O\": 1}, \"9\": {\"O\": 1}}" n_minim_iter=3 energy=-11281.69960946798 stress="-0.45208697115999175 -0.0018288235726481668 -0.001262776977845001 -0.0018288235726481668 -0.4496862308215183 -0.0006816510352161849 -0.001262776977845001 -0.0006816510352161849 -0.44916969649320265" free_energy=-11281.69960946798 pbc="T T T"
In       8.80778756       4.75447178       3.28289596        0       0.03417320       0.01844680       0.01273726
In       6.35635262       3.43117939       2.36918115        1      -0.03417320      -0.01844680      -0.01273726
In       3.75307416       2.02592139       1.39887025        2       0.03417320       0.01844680       0.01273726
In       1.30163922       0.70262900       0.48515545        3      -0.03417320      -0.01844680      -0.01273726
O        5.05705090       1.85537388      -0.09051596        4      -0.00000000       0.01372963      -0.01988401
O        5.78341067       4.40455094       0.73455630        5      -0.01147804       0.02126338      -0.00000000
O        6.85571032       1.54364853       2.00096629        6       0.01147804      -0.00753375      -0.01988401
O        3.25371646       3.91345226       1.76708512        7      -0.01147804       0.00753375       0.01988401
O        5.05237588       3.60172690       3.85856737        8      -0.00000000      -0.01372963       0.01988401
O        4.32601612       1.05254984       3.03349511        9       0.01147804      -0.02126338       0.00000000
10
Lattice="5.070114814240127 -0.2882481143166097 -0.19903127248116578 2.5411058987629422 4.396809299509863 -0.19903127248115124 2.5411058987629414 1.3716970584346202 4.182103853751571" Properties=species:S:1:pos:R:3:spacegroup_kinds:I:1:forces:R:3 spacegroup="P 1" unit_cell=conventional occupancy="_JSON {\"0\": {\"In\": 1}, \"1\": {\"In\": 1}, \"2\": {\"In\": 1}, \"3\": {\"In\": 1}, \"4\": {\"O\": 1}, \"5\": {\"O\": 1}, \"6\": {\"O\": 1}, \"7\": {\"O\": 1}, \"8\": {\"O\": 1}, \"9\": {\"O\": 1}}" n_minim_iter=4 energy=-11281.700360880026 stress="-0.45316020989342587 0.0005885559473392128 0.0004063896111984062 0.0005885559473392128 -0.4539328213292545 0.00021937040690792276 0.0004063896111984062 0.00021937040690792276 -0.45409905352248225" free_energy=-11281.700360880026 pbc="T T T"
In       8.84402659       4.77403373       3.29640320        0       0.02849414       0.01538123       0.01062052
In       6.38446331       3.44635364       2.37965876        1      -0.02849414      -0.01538123      -0.01062052
In       3.76786329       2.03390461       1.40438255        2       0.02849414       0.01538123       0.01062052
In       1.30830001       0.70622451       0.48763810        3      -0.02849414      -0.01538123      -0.01062052
O        5.07313905       1.86732040      -0.08238721        4       0.00000000       0.00769925      -0.01115048
O        5.80749521       4.41766421       0.74697905        5      -0.00643661       0.01192400      -0.00000000
O        6.87988879       1.55984987       2.00866472        6       0.00643661      -0.00422475      -0.01115048
O        3.27243780       3.92040837       1.77537659        7      -0.00643661       0.00422475       0.01115048
O        5.07918755       3.61293784       3.86642851        8       0.00000000      -0.00769925       0.01115048
O        4.34483139       1.06259403       3.03706225        9       0.00643661      -0.01192400      -0.00000000
10
Lattice="5.067563399384591 -0.29114559363628784 -0.20103194123610518 2.537283574537081 4.396266214170888 -0.2010319412360905 2.537283574537081 1.3696337556421045 4.18230484812661" Properties=species:S:1:pos:R:3:spacegroup_kinds:I:1:forces:R:3 spacegroup="P 1" unit_cell=conventional occupancy="_JSON {\"0\": {\"In\": 1}, \"1\": {\"In\": 1}, \"2\": {\"In\": 1}, \"3\": {\"In\": 1}, \"4\": {\"O\": 1}, \"5\": {\"O\": 1}, \"6\": {\"O\": 1}, \"7\": {\"O\": 1}, \"8\": {\"O\": 1}, \"9\": {\"O\": 1}}" n_minim_iter=5 energy=-11281.700527028528 stress="-0.45291993579984846 8.333047880367815e-05 5.753852416602633e-05 8.333047880367815e-05 -0.4530293257079376 3.105947847084174e-05 5.753852416602633e-05 3.105947847084174e-05 -0.4530528616316448" free_energy=-11281.700527028528 pbc="T T T"
In       8.83584547       4.76961754       3.29335388        0       0.02488829       0.01343478       0.00927653
In       6.37735034       3.44251403       2.37700756        1      -0.02488829      -0.01343478      -0.00927653
In       3.76478020       2.03224035       1.40323340        2       0.02488829       0.01343478       0.00927653
In       1.30628506       0.70513684       0.48688708        3      -0.02488829      -0.01343478      -0.00927653
O        5.06931433       1.86462131      -0.08451955        4       0.00000000       0.00892375      -0.01292387
O        5.80165431       4.41476250       0.74402830        5      -0.00746030       0.01382041      -0.00000000
O        6.87425792       1.55592459       2.00663288        6       0.00746030      -0.00489666      -0.01292387
O        3.26787261       3.91882979       1.77360809        7      -0.00746030       0.00489666       0.01292387
O        5.07281621       3.61013307       3.86476051        8      -0.00000000      -0.00892375       0.01292387
O        4.34047622       1.05999187       3.03621266        9       0.00746030      -0.01382041      -0.00000000
10
Lattice="5.064571329235785 -0.2945473942601317 -0.20338083676486193 2.532797838000708 4.395631470926726 -0.20338083676484725 2.5327978380007052 1.367212340771181 4.182543509421947" Properties=species:S:1:pos:R:3:spacegroup_kinds:I:1:forces:R:3 spacegroup="P 1" unit_cell=conventional occupancy="_JSON {\"0\": {\"In\": 1}, \"1\": {\"In\": 1}, \"2\": {\"In\": 1}, \"3\": {\"In\": 1}, \"4\": {\"O\": 1}, \"5\": {\"O\": 1}, \"6\": {\"O\": 1}, \"7\": {\"O\": 1}, \"8\": {\"O\": 1}, \"9\": {\"O\": 1}}" n_minim_iter=6 energy=-11281.700695177258 stress="-0.4529624064389627 -0.00047886651331900204 -0.0003306505979597617 -0.00047886651331900204 -0.45233378694144283 -0.00017848624631880454 -0.0003306505979597617 -0.00017848624631880454 -0.4521985355174006" free_energy=-11281.700695177258 pbc="T T T"
In       8.82733936       4.76502591       3.29018343        0       0.01067825       0.00576415       0.00398007
In       6.36791113       3.43741872       2.37348932        1      -0.01067825      -0.00576415      -0.00398007
In       3.76225586       2.03087770       1.40229251        2       0.01067825       0.00576415       0.00398007
In       1.30282763       0.70327051       0.48559840        3      -0.01067825      -0.00576415      -0.00398007
O        5.06482741       1.86191496      -0.08769082        4       0.00000000       0.00678608      -0.00982798
O        5.79441537       4.41207297       0.74056462        5      -0.00567320       0.01050976       0.00000000
O        6.86803729       1.55106430       2.00358093        6       0.00567320      -0.00372367      -0.00982798
O        3.26212970       3.91723212       1.77220090        7      -0.00567320       0.00372367       0.00982798
O        5.06533958       3.60638146       3.86347265        8       0.00000000      -0.00678608       0.00982798
O        4.33575163       1.05622345       3.03521721        9       0.00567320      -0.01050976      -0.00000000
10
Lattice="5.066689031304816 -0.29213926077934055 -0.20171805443540003 2.5359730789848167 4.396080484965837 -0.20171805443538537 2.5359730789848145 1.368926345968621 4.182374261480635" Properties=species:S:1:pos:R:3:spacegroup_kinds:I:1:forces:R:3 spacegroup="P 1" unit_cell=conventional occupancy="_JSON {\"0\": {\"In\": 1}, \"1\": {\"In\": 1}, \"2\": {\"In\": 1}, \"3\": {\"In\": 1}, \"4\": {\"O\": 1}, \"5\": {\"O\": 1}, \"6\": {\"O\": 1}, \"7\": {\"O\": 1}, \"8\": {\"O\": 1}, \"9\": {\"O\": 1}}" n_minim_iter=7 energy=-11281.700832772218 stress="-0.45358131658897544 4.502359945160525e-06 3.1088168347837855e-06 4.502359945160525e-06 -0.4535872269434722 1.6781491061234177e-06 3.1088168347837855e-06 1.6781491061234177e-06 -0.4535884985944182" free_energy=-11281.700832772218 pbc="T T T"
In       8.83574069       4.76956097       3.29331483        0       0.00022927       0.00012376       0.00008545
In       6.37221208       3.43974038       2.37509240        1      -0.00022927      -0.00012376      -0.00008545
In       3.76642310       2.03312719       1.40384575        2       0.00022927       0.00012376       0.00008545
In       1.30289449       0.70330660       0.48562332        3      -0.00022927      -0.00012376      -0.00008545
O        5.06800331       1.86485030      -0.08692264        4       0.00000000      -0.00002179       0.00003156
O        5.79868690       4.41555574       0.74301648        5       0.00001822      -0.00003375      -0.00000000
O        6.87329279       1.55394524       2.00426450        6      -0.00001822       0.00001196       0.00003156
O        3.26534239       3.91892233       1.77467365        7       0.00001822      -0.00001196      -0.00003156
O        5.07063187       3.60801727       3.86586078        8      -0.00000000       0.00002179      -0.00003156
O        4.33994828       1.05731183       3.03592167        9      -0.00001822       0.00003375       0.00000000
