10
Lattice="5.8794713322368235 0.005527524000944211 0.0038166776500418963 3.230815399524056 4.912234273150502 0.003816677650040786 3.230815399524054 1.74400444390371 4.592222623195314" Properties=species:S:1:pos:R:3:spacegroup_kinds:I:1:forces:R:3 spacegroup="P 1" unit_cell=conventional occupancy="_JSON {\"0\": {\"In\": 1}, \"1\": {\"In\": 1}, \"2\": {\"In\": 1}, \"3\": {\"In\": 1}, \"4\": {\"O\": 1}, \"5\": {\"O\": 1}, \"6\": {\"O\": 1}, \"7\": {\"O\": 1}, \"8\": {\"O\": 1}, \"9\": {\"O\": 1}}" n_minim_iter=1 energy=-11287.680321063754 stress="-2.0012246973800854e-05 6.519563514419492e-06 4.501666971138804e-06 6.519563514419492e-06 -2.8570633136560038e-05 2.430014269975665e-06 4.501666971138804e-06 2.430014269975665e-06 -3.0412024511649986e-05" free_energy=-11287.680321063754 pbc="T T T"
In      10.57856462       5.71034288       3.94291152        0       0.00299906       0.00161890       0.00111783
In       7.93308859       4.28230649       2.95687246        1      -0.00299906      -0.00161890      -0.00111783
In       4.40801355       2.37945976       1.64298353        2       0.00299906       0.00161890       0.00111783
In       1.76253752       0.95142337       0.65694447        3      -0.00299906      -0.00161890      -0.00111783
O        6.02501120       2.31327253       0.21765028        4       0.00000000       0.00050092      -0.00072546
O        7.10113951       5.12335213       1.15378067        5      -0.00041877       0.00077578       0.00000000
O        8.17969830       2.18624508       2.51376159        6       0.00041877      -0.00027486      -0.00072546
O        4.16140384       4.47552117       2.08609439        7      -0.00041877       0.00027486       0.00072546
O        6.31609094       4.34849372       4.38220571        8      -0.00000000      -0.00050092       0.00072546
O        5.23996264       1.53841412       3.44607531        9       0.00041877      -0.00077578       0.00000000
