10
Lattice="6.398723859291919 0.0726151423281258 0.050139735391620505 3.5718261880113022 5.309519532782949 0.05013973539161695 3.5718261880113022 1.928083153763926 4.947323217078155" Properties=species:S:1:pos:R:3:spacegroup_kinds:I:1:forces:R:3 spacegroup="P 1" unit_cell=conventional occupancy="_JSON {\"0\": {\"In\": 1}, \"1\": {\"In\": 1}, \"2\": {\"In\": 1}, \"3\": {\"In\": 1}, \"4\": {\"O\": 1}, \"5\": {\"O\": 1}, \"6\": {\"O\": 1}, \"7\": {\"O\": 1}, \"8\": {\"O\": 1}, \"9\": {\"O\": 1}}" n_minim_iter=2 energy=-11285.216900427891 stress="0.11880677515350328 -0.00034712013258220105 -0.00023968157363872913 -0.00034712013258220105 0.1192624480337081 -0.00012938087719626984 -0.00023968157363872913 -0.00012938087719626984 0.11936048890944578" free_energy=-11285.216900427891 pbc="T T T"
In      11.50900481       6.21259746       4.28971125        0      -0.00179375      -0.00096827      -0.00066858
In       8.80455955       4.75272929       3.28169279        1       0.00179375       0.00096827       0.00066858
In       4.73781670       2.55748855       1.76590990        2      -0.00179375      -0.00096827      -0.00066858
In       2.03337143       1.09762038       0.75789145        3       0.00179375       0.00096827       0.00066858
O        6.58495599       2.56740878       0.26805517        4       0.00000000       0.00164445      -0.00238158
O        7.78270050       5.60822002       1.31204041        5      -0.00137477       0.00254679      -0.00000000
O        8.95903768       2.44185214       2.74171678        6       0.00137477      -0.00090234      -0.00238158
O        4.58333857       4.86836570       2.30588592        7      -0.00137477       0.00090234       0.00238158
O        6.95742025       4.74280906       4.77954752        8      -0.00000000      -0.00164445       0.00238158
O        5.75967575       1.70199782       3.73556228        9       0.00137477      -0.00254679      -0.00000000
