10
Lattice="5.328672079712143 -0.13087113656375035 -0.0903646807997107 2.8145498567411007 4.526608276779411 -0.09036468079970715 2.8145498567411 1.51930297796281 4.264981445223091" Properties=species:S:1:pos:R:3:spacegroup_kinds:I:1:forces:R:3 spacegroup="P 1" unit_cell=conventional occupancy="_JSON {\"0\": {\"In\": 1}, \"1\": {\"In\": 1}, \"2\": {\"In\": 1}, \"3\": {\"In\": 1}, \"4\": {\"O\": 1}, \"5\": {\"O\": 1}, \"6\": {\"O\": 1}, \"7\": {\"O\": 1}, \"8\": {\"O\": 1}, \"9\": {\"O\": 1}}" n_minim_iter=1 energy=-11284.163638563288 stress="-0.3105751263605509 0.0027598835320994997 0.0019056607970851895 0.0027598835320994997 -0.31419809132411597 0.0010286817685917157 0.0019056607970851895 0.0010286817685917157 -0.31497759494029975" free_energy=-11284.163638563288 pbc="T T T"
In       9.48717003       5.12120461       3.53611982        0       0.12361201       0.06672616       0.04607347
In       6.94948766       3.75135558       2.59025831        1      -0.12361201      -0.06672616      -0.04607347
In       4.00828414       2.16368455       1.49399377        2       0.12361201       0.06672616       0.04607347
In       1.47060177       0.79383552       0.54813227        3      -0.12361201      -0.06672616      -0.04607347
O        5.40377899       2.06000202       0.03932643        4       0.00000000      -0.02038425       0.02952160
O        6.27042827       4.67815225       0.93069834        5       0.01704134      -0.03156954       0.00000000
O        7.35167958       1.81812986       2.17181715        6      -0.01704134       0.01118528       0.02952160
O        3.60609223       4.09691027       1.91243493        7       0.01704134      -0.01118528      -0.02952160
O        5.55399281       3.85503811       4.04492566        8      -0.00000000       0.02038425      -0.02952160
O        4.68734354       1.23688788       3.15355375        9      -0.01704134       0.03156954      -0.00000000
10
Lattice="5.308009166375129 -0.15314368241166118 -0.10574356073450084 2.784591705424284 4.52155541068196 -0.10574356073449728 2.784591705424284 1.5031314724551395 4.265705194808823" Properties=species:S:1:pos:R:3:spacegroup_kinds:I:1:forces:R:3 spacegroup="P 1" unit_cell=conventional occupancy="_JSON {\"0\": {\"In\": 1}, \"1\": {\"In\": 1}, \"2\": {\"In\": 1}, \"3\": {\"In\": 1}, \"4\": {\"O\": 1}, \"5\": {\"O\": 1}, \"6\": {\"O\": 1}, \"7\": {\"O\": 1}, \"8\": {\"O\": 1}, \"9\": {\"O\": 1}}" n_minim_iter=2 energy=-11284.167066473407 stress="-0.3122504884168499 -0.0013296192964965547 -0.0009180834405246735 -0.0013296192964965547 -0.3105050654419131 -0.0004955843658048001 -0.0009180834405246735 -0.0004955843658048001 -0.3101295267508642" free_energy=-11284.167066473407 pbc="T T T"
In       9.41915795       5.08449147       3.51076991        0       0.22286015       0.12030062       0.08306589
In       6.89663092       3.72282334       2.57055720        1      -0.22286015      -0.12030062      -0.08306589
In       3.98056167       2.14871987       1.48366087        2       0.22286015       0.12030062       0.08306589
In       1.45803463       0.78705174       0.54344817        3      -0.22286015      -0.12030062      -0.08306589
O        5.37330273       2.04009014       0.02108915        4      -0.00000000      -0.06900832       0.09994167
O        6.22321847       4.65686550       0.90781096        5       0.05769130      -0.10687469      -0.00000000
O        7.30797870       1.78688204       2.15394175        6      -0.05769130       0.03786637       0.09994167
O        3.56921389       4.08466117       1.90027633        7       0.05769130      -0.03786637      -0.09994167
O        5.50388985       3.83145307       4.03312893        8      -0.00000000       0.06900832      -0.09994167
O        4.65397412       1.21467771       3.14640712        9      -0.05769130       0.10687469       0.00000000
10
Lattice="5.277413871454685 -0.18642184623448144 -0.1287216652303295 2.7399826878551545 4.514238047071722 -0.1287216652303258 2.739982687855155 1.479051382676503 4.26700379893577" Properties=species:S:1:pos:R:3:spacegroup_kinds:I:1:forces:R:3 spacegroup="P 1" unit_cell=conventional occupancy="_JSON {\"0\": {\"In\": 1}, \"1\": {\"In\": 1}, \"2\": {\"In\": 1}, \"3\": {\"In\": 1}, \"4\": {\"O\": 1}, \"5\": {\"O\": 1}, \"6\": {\"O\": 1}, \"7\": {\"O\": 1}, \"8\": {\"O\": 1}, \"9\": {\"O\": 1}}" n_minim_iter=3 energy=-11284.177669648227 stress="-0.3042021409122835 -1.005537907783406e-05 -6.943098376198154e-06 -1.005537907783406e-05 -0.3041889409781165 -3.747906088367304e-06 -6.943098376198154e-06 -3.747906088367304e-06 -0.3041861009277304" free_energy=-11284.177669648227 pbc="T T T"
In       9.33170195       5.03728244       3.47817274        0       0.05777545       0.03118737       0.02153444
In       6.80436692       3.67301894       2.53616797        1      -0.05777545      -0.03118737      -0.02153444
In       3.95301233       2.13384865       1.47339251        2       0.05777545       0.03118737       0.02153444
In       1.42567730       0.76958515       0.53138773        3      -0.05777545      -0.03118737      -0.02153444
O        5.32805175       2.00647827      -0.00040008        4       0.00000000       0.07804204      -0.11302481
O        6.15633503       4.61915384       0.87366845        5      -0.06524354       0.12086542       0.00000000
O        7.23975116       1.74247512       2.13310182        6       0.06524354      -0.04282337      -0.11302481
O        3.51762810       4.06439247       1.87645865        7      -0.06524354       0.04282337       0.11302481
O        5.42932750       3.80038933       4.00996055        8       0.00000000      -0.07804204       0.11302481
O        4.60104422       1.18771375       3.13589202        9       0.06524354      -0.12086542       0.00000000
10
Lattice="5.275711135409212 -0.18828465815199705 -0.13000791068319303 2.7374910393390914 4.513836716842384 -0.13000791068318918 2.73749103933909 1.4777063828707877 4.2670842280388115" Properties=species:S:1:pos:R:3:spacegroup_kinds:I:1:forces:R:3 spacegroup="P 1" unit_cell=conventional occupancy="_JSON {\"0\": {\"In\": 1}, \"1\": {\"In\": 1}, \"2\": {\"In\": 1}, \"3\": {\"In\": 1}, \"4\": {\"O\": 1}, \"5\": {\"O\": 1}, \"6\": {\"O\": 1}, \"7\": {\"O\": 1}, \"8\": {\"O\": 1}, \"9\": {\"O\": 1}}" n_minim_iter=4 energy=-11284.183993108352 stress="-0.304173541320333 -0.000679296850078629 -0.0004690449300443283 -0.000679296850078629 -0.30328181213578453 -0.0002531919471349307 -0.0004690449300443283 -0.0002531919471349307 -0.3030899510142413" free_energy=-11284.183993108352 pbc="T T T"
In       9.33328052       5.03813456       3.47876111        0       0.06644697       0.03586829       0.02476655
In       6.79275931       3.66675312       2.53184150        1      -0.06644697      -0.03586829      -0.02476655
In       3.95793391       2.13650534       1.47522691        2       0.06644697       0.03586829       0.02476655
In       1.41741270       0.76512390       0.52830730        3      -0.06644697      -0.03586829      -0.02476655
O        5.32552888       2.00925992      -0.00835041        4      -0.00000000       0.01288830      -0.01866555
O        6.14870788       4.62426737       0.87175919        5      -0.01077468       0.01996039       0.00000000
O        7.23984091       1.73743639       2.12519170        6       0.01077468      -0.00707209      -0.01866555
O        3.51085231       4.06582206       1.88187671        7      -0.01077468       0.00707209       0.01866555
O        5.42516435       3.79399853       4.01541882        8      -0.00000000      -0.01288830       0.01866555
O        4.60198534       1.17899109       3.13530922        9       0.01077468      -0.01996039      -0.00000000
10
Lattice="5.2702581735994665 -0.19425803260511065 -0.1341324418053767 2.729505109246097 4.5125557346389815 -0.13413244180537298 2.7295051092460962 1.4733955523686995 4.267347691063851" Properties=species:S:1:pos:R:3:spacegroup_kinds:I:1:forces:R:3 spacegroup="P 1" unit_cell=conventional occupancy="_JSON {\"0\": {\"In\": 1}, \"1\": {\"In\": 1}, \"2\": {\"In\": 1}, \"3\": {\"In\": 1}, \"4\": {\"O\": 1}, \"5\": {\"O\": 1}, \"6\": {\"O\": 1}, \"7\": {\"O\": 1}, \"8\": {\"O\": 1}, \"9\": {\"O\": 1}}" n_minim_iter=5 energy=-11284.186292508317 stress="-0.30175900345021267 -0.0006354818938819457 -0.00043879131796591494 -0.0006354818938819457 -0.3009247912044252 -0.00023686095121402983 -0.00043879131796591494 -0.00023686095121402983 -0.300745305213075" free_energy=-11284.186292508317 pbc="T T T"
In       9.32577383       5.03408242       3.47596317        0       0.01155061       0.00623505       0.00430522
In       6.76812877       3.65345747       2.52266104        1      -0.01155061      -0.00623505      -0.00430522
In       3.96113963       2.13823579       1.47642177        2       0.01155061       0.00623505       0.00430522
In       1.40349457       0.75761084       0.52311964        3      -0.01155061      -0.00623505      -0.00430522
O        5.31744619       2.00727327      -0.01804473        4       0.00000000      -0.00682721       0.00988755
O        6.13337905       4.62377550       0.86563826        5       0.00570759      -0.01057346       0.00000000
O        7.23101844       1.72726773       2.11562911        6      -0.00570759       0.00374624       0.00988755
O        3.49824996       4.06442554       1.88345370        7       0.00570759      -0.00374624      -0.00988755
O        5.41182221       3.78441999       4.01712754        8      -0.00000000       0.00682721      -0.00988755
O        4.59588935       1.16791777       3.13344455        9      -0.00570759       0.01057346      -0.00000000
10
Lattice="5.273906444995529 -0.1902602682544666 -0.13137204169772995 2.734849146388928 4.513412047081179 -0.1313720416977262 2.734849146388927 1.4762802806409665 4.267170427000541" Properties=species:S:1:pos:R:3:spacegroup_kinds:I:1:forces:R:3 spacegroup="P 1" unit_cell=conventional occupancy="_JSON {\"0\": {\"In\": 1}, \"1\": {\"In\": 1}, \"2\": {\"In\": 1}, \"3\": {\"In\": 1}, \"4\": {\"O\": 1}, \"5\": {\"O\": 1}, \"6\": {\"O\": 1}, \"7\": {\"O\": 1}, \"8\": {\"O\": 1}, \"9\": {\"O\": 1}}" n_minim_iter=6 energy=-11284.18634857423 stress="-0.3015924237503846 0.00019853777069835563 0.00013708754091577608 0.00019853777069835563 -0.30185304901794247 7.400029100856842e-05 0.00013708754091577608 7.400029100856842e-05 -0.30190912417718874" free_energy=-11284.18634857423 pbc="T T T"
In       9.33787625       5.04061535       3.48047407        0       0.00017114       0.00009238       0.00006379
In       6.77753086       3.65853275       2.52616545        1      -0.00017114      -0.00009238      -0.00006379
In       3.96607388       2.14089932       1.47826089        2       0.00017114       0.00009238       0.00006379
In       1.40572849       0.75881672       0.52395228        3      -0.00017114      -0.00009238      -0.00006379
O        5.32285441       2.01093881      -0.01494045        4       0.00000000      -0.00189266       0.00274106
O        6.14168338       4.62772211       0.86973455        5       0.00158227      -0.00293121      -0.00000000
O        7.23887459       1.73279076       2.11864477        6      -0.00158227       0.00103854       0.00274106
O        3.50473016       4.06664131       1.88578158        7       0.00158227      -0.00103854      -0.00274106
O        5.42075033       3.78849326       4.01936679        8      -0.00000000       0.00189266      -0.00274106
O        4.60192137       1.17170996       3.13469180        9      -0.00158227       0.00293121      -0.00000000
