10
Lattice="5.813457865133002 -0.01166335567040215 -0.008053383197261038 3.180220706893778 4.866479696760926 -0.008053383197260875 3.1802207068937793 1.716693267660665 4.553641808567699" Properties=species:S:1:pos:R:3:spacegroup_kinds:I:1:forces:R:3 spacegroup="P 1" unit_cell=conventional occupancy="_JSON {\"0\": {\"In\": 1}, \"1\": {\"In\": 1}, \"2\": {\"In\": 1}, \"3\": {\"In\": 1}, \"4\": {\"O\": 1}, \"5\": {\"O\": 1}, \"6\": {\"O\": 1}, \"7\": {\"O\": 1}, \"8\": {\"O\": 1}, \"9\": {\"O\": 1}}" n_minim_iter=8 energy=-11287.63892779846 stress="-0.025468032029220173 -5.7669690928171426e-05 -3.98201116415156e-05 -5.7669690928171426e-05 -0.025392327649811045 -2.149502291378301e-05 -3.98201116415156e-05 -2.149502291378301e-05 -0.025376039378029007" free_energy=-11287.63892779846 pbc="T T T"
In      10.44550490       5.63851682       3.89331663        0       0.00066855       0.00036089       0.00024919
In       7.81534403       4.21874761       2.91298594        1      -0.00066855      -0.00036089      -0.00024919
In       4.35855526       2.35276201       1.62454911        2       0.00066855       0.00036089       0.00024919
In       1.72839439       0.93299280       0.64421842        3      -0.00066855      -0.00036089      -0.00024919
O        5.95020376       2.28435338       0.19289027        4      -0.00000000      -0.00094794       0.00137286
O        6.99916168       5.07278508       1.12633038        5       0.00079248      -0.00146809      -0.00000000
O        8.08146654       2.14020051       2.46971117        6      -0.00079248       0.00052015       0.00137286
O        4.09243275       4.43130911       2.06782388        7       0.00079248      -0.00052015      -0.00137286
O        6.22369553       4.28715624       4.34464478        8       0.00000000       0.00094794      -0.00137286
O        5.17473760       1.49872454       3.41120467        9      -0.00079248       0.00146809       0.00000000
