10
Lattice="6.280194760550095 0.08336691553887182 0.05756368371002802 3.5157752181737165 5.204528882456397 0.05756368371003029 3.5157752181737143 1.8978266617042683 4.846513017431148" Properties=species:S:1:pos:R:3:spacegroup_kinds:I:1:forces:R:3 spacegroup="P 1" unit_cell=conventional occupancy="_JSON {\"0\": {\"In\": 1}, \"1\": {\"In\": 1}, \"2\": {\"In\": 1}, \"3\": {\"In\": 1}, \"4\": {\"O\": 1}, \"5\": {\"O\": 1}, \"6\": {\"O\": 1}, \"7\": {\"O\": 1}, \"8\": {\"O\": 1}, \"9\": {\"O\": 1}}" n_minim_iter=3 energy=-11286.314155864933 stress="0.1006465036535313 0.00011252733534962845 7.769854342222237e-05 0.00011252733534962845 0.10049878633551652 4.1941921341621123e-05 7.769854342222237e-05 4.1941921341621123e-05 0.10046700402849654" free_energy=-11286.314155864933 pbc="T T T"
In      11.32391213       6.11268384       4.22072230        0      -0.00500766      -0.00270315      -0.00186649
In       8.64370568       4.66589986       3.22173829        1       0.00500766       0.00270315       0.00186649
In       4.66803953       2.51982261       1.73990210        2      -0.00500766      -0.00270315      -0.00186649
In       1.98783308       1.07303863       0.74091809        3       0.00500766       0.00270315       0.00186649
O        6.46803368       2.50822860       0.29869497        4       0.00000000       0.00039842      -0.00057702
O        7.66570222       5.47819951       1.29797378        5      -0.00033308       0.00061705      -0.00000000
O        8.78614037       2.41932093       2.72195148        6       0.00033308      -0.00021862      -0.00057702
O        4.52560484       4.76640154       2.23968891        7      -0.00033308       0.00021862       0.00057702
O        6.84371152       4.67749388       4.66294542        8      -0.00000000      -0.00039842       0.00057702
O        5.64604299       1.70752296       3.66366661        9       0.00033308      -0.00061705      -0.00000000
