10
Lattice="6.279563391211168 0.0827291380622824 0.05712330732447601 3.514895586874544 5.204351016975502 0.05712330732447323 3.5148955868745406 1.8973518339270583 4.846502718293598" Properties=species:S:1:pos:R:3:spacegroup_kinds:I:1:forces:R:3 spacegroup="P 1" unit_cell=conventional occupancy="_JSON {\"0\": {\"In\": 1}, \"1\": {\"In\": 1}, \"2\": {\"In\": 1}, \"3\": {\"In\": 1}, \"4\": {\"O\": 1}, \"5\": {\"O\": 1}, \"6\": {\"O\": 1}, \"7\": {\"O\": 1}, \"8\": {\"O\": 1}, \"9\": {\"O\": 1}}" n_minim_iter=3 energy=-11286.632489134048 stress="0.09141667261412144 6.66932498202447e-06 4.605075137584861e-06 6.66932498202447e-06 0.09140791763305663 2.485834503376543e-06 4.605075137584861e-06 2.485834503376543e-06 0.0914060339437038" free_energy=-11286.632489134048 pbc="T T T"
In      11.32731694       6.11452177       4.22199136        0      -0.00440080      -0.00237556      -0.00164029
In       8.63671492       4.66212623       3.21913265        1       0.00440080       0.00237556       0.00164029
In       4.67263966       2.52230577       1.74161669        2      -0.00440080      -0.00237556      -0.00164029
In       1.98203764       1.06991023       0.73875798        3       0.00440080       0.00237556       0.00164029
O        6.46712034       2.50333742       0.30440663        4      -0.00000000      -0.00371050       0.00537376
O        7.66790180       5.47088752       1.29731064        5       0.00310200      -0.00574654       0.00000000
O        8.78123447       2.42077390       2.72765799        6      -0.00310200       0.00203604       0.00537376
O        4.52812011       4.76365810       2.23309135        7       0.00310200      -0.00203604      -0.00537376
O        6.84223423       4.68109458       4.65634271        8       0.00000000       0.00371050      -0.00537376
O        5.64145277       1.71354448       3.66343869        9      -0.00310200       0.00574654      -0.00000000
