10
Lattice="5.328672079712146 -0.13087113656375396 -0.09036468079971759 2.8145498567411025 4.526608276779406 -0.09036468079970841 2.814549856741102 1.5193029779628062 4.264981445223089" Properties=species:S:1:pos:R:3:spacegroup_kinds:I:1:forces:R:3 spacegroup="P 1" unit_cell=conventional occupancy="_JSON {\"0\": {\"In\": 1}, \"1\": {\"In\": 1}, \"2\": {\"In\": 1}, \"3\": {\"In\": 1}, \"4\": {\"O\": 1}, \"5\": {\"O\": 1}, \"6\": {\"O\": 1}, \"7\": {\"O\": 1}, \"8\": {\"O\": 1}, \"9\": {\"O\": 1}}" n_minim_iter=5 energy=-11285.095796352394 stress="-0.25140562291283547 -8.935079347856119e-06 -6.169547361626472e-06 -8.935079347856119e-06 -0.2513938936200454 -3.3303408989069678e-06 -6.169547361626472e-06 -3.3303408989069678e-06 -0.2513913699887019" free_energy=-11285.095796352394 pbc="T T T"
In       9.48717003       5.12120461       3.53611982        0      -0.00768011      -0.00414575      -0.00286258
In       6.94948766       3.75135558       2.59025831        1       0.00768011       0.00414575       0.00286258
In       4.00828414       2.16368455       1.49399377        2      -0.00768011      -0.00414575      -0.00286258
In       1.47060177       0.79383552       0.54813227        3       0.00768011       0.00414575       0.00286258
O        5.40377899       2.06000202       0.03932643        4       0.00000000       0.00522414      -0.00756590
O        6.27042827       4.67815225       0.93069834        5      -0.00436741       0.00809075       0.00000000
O        7.35167958       1.81812986       2.17181715        6       0.00436741      -0.00286660      -0.00756590
O        3.60609223       4.09691027       1.91243493        7      -0.00436741       0.00286660       0.00756590
O        5.55399281       3.85503811       4.04492566        8       0.00000000      -0.00522414       0.00756590
O        4.68734354       1.23688788       3.15355375        9       0.00436741      -0.00809075       0.00000000
