10
Lattice="5.286579295806848 -0.24203247453444074 -0.1671200226324607 2.6985211939134537 4.552415154133332 -0.16712002263244183 2.6985211939134555 1.4566703361778681 4.316309114190841" Properties=species:S:1:pos:R:3:spacegroup_kinds:I:1:forces:R:3 spacegroup="P 1" unit_cell=conventional occupancy="_JSON {\"0\": {\"In\": 1}, \"1\": {\"In\": 1}, \"2\": {\"In\": 1}, \"3\": {\"In\": 1}, \"4\": {\"O\": 1}, \"5\": {\"O\": 1}, \"6\": {\"O\": 1}, \"7\": {\"O\": 1}, \"8\": {\"O\": 1}, \"9\": {\"O\": 1}}" n_minim_iter=1 energy=-11286.359523322017 stress="-0.14099957694890358 0.0025516103586522036 0.001761851096984703 0.0025516103586522036 -0.144349136747823 0.00095105283401214 0.001761851096984703 0.00095105283401214 -0.1450698155312759" free_energy=-11286.359523322017 pbc="T T T"
In       9.28968101       5.01459940       3.46251042        0       0.13627101       0.07355952       0.05079182
In       6.73575151       3.63598012       2.51059318        1      -0.13627101      -0.07355952      -0.05079182
In       3.94787016       2.13107289       1.47147589        2       0.13627101       0.07355952       0.05079182
In       1.39394067       0.75245361       0.51955865        3      -0.13627101      -0.07355952      -0.05079182
O        5.31419506       1.99349248      -0.06235000        4       0.00000000       0.00395954      -0.00573443
O        6.10103710       4.63885019       0.82839724        5      -0.00331020       0.00613223      -0.00000000
O        7.22587422       1.67993205       2.09580456        6       0.00331020      -0.00217269      -0.00573443
O        3.45774745       4.08712096       1.88626450        7      -0.00331020       0.00217269       0.00573443
O        5.36942661       3.77356053       4.04441906        8      -0.00000000      -0.00395954       0.00573443
O        4.58258457       1.12820282       3.15367182        9       0.00331020      -0.00613223      -0.00000000
10
Lattice="5.276623995916334 -0.25313769201669745 -0.1747880192537531 2.6837744862006727 4.550186149227072 -0.1747880192537342 2.683774486200675 1.4487100163812527 4.316941525284905" Properties=species:S:1:pos:R:3:spacegroup_kinds:I:1:forces:R:3 spacegroup="P 1" unit_cell=conventional occupancy="_JSON {\"0\": {\"In\": 1}, \"1\": {\"In\": 1}, \"2\": {\"In\": 1}, \"3\": {\"In\": 1}, \"4\": {\"O\": 1}, \"5\": {\"O\": 1}, \"6\": {\"O\": 1}, \"7\": {\"O\": 1}, \"8\": {\"O\": 1}, \"9\": {\"O\": 1}}" n_minim_iter=2 energy=-11286.361322674622 stress="-0.1433428905262647 -0.000978486159478894 -0.0006756309430969882 -0.000978486159478894 -0.14205840839582365 -0.00036470773532588333 -0.0006756309430969882 -0.00036470773532588333 -0.1417820440198183" free_energy=-11286.361322674622 pbc="T T T"
In       9.25639704       4.99663261       3.45010460        0       0.18948275       0.10228339       0.07062525
In       6.70986240       3.62200510       2.50094362        1      -0.18948275      -0.10228339      -0.07062525
In       3.93431056       2.12375337       1.46642186        2       0.18948275       0.10228339       0.07062525
In       1.38777591       0.74912586       0.51726088        3      -0.18948275      -0.10228339      -0.07062525
O        5.29935523       1.98389146      -0.07170674        4       0.00000000      -0.01420960       0.02057913
O        6.07775782       4.62883441       0.81705335        5       0.01187930      -0.02200672      -0.00000000
O        7.20472713       1.66437590       2.08676402        6      -0.01187930       0.00779712       0.02057913
O        3.43944582       4.08138257       1.88060146        7       0.01187930      -0.00779712      -0.02057913
O        5.34481772       3.76186701       4.03907222        8      -0.00000000       0.01420960      -0.02057913
O        4.56641514       1.11692406       3.15031213        9      -0.01187930       0.02200672      -0.00000000
10
Lattice="5.266711187522352 -0.2642375543301008 -0.18245231820620283 2.6690555714481627 4.547989728925622 -0.18245231820618388 2.669055571448164 1.4407646993131227 4.317603097095071" Properties=species:S:1:pos:R:3:spacegroup_kinds:I:1:forces:R:3 spacegroup="P 1" unit_cell=conventional occupancy="_JSON {\"0\": {\"In\": 1}, \"1\": {\"In\": 1}, \"2\": {\"In\": 1}, \"3\": {\"In\": 1}, \"4\": {\"O\": 1}, \"5\": {\"O\": 1}, \"6\": {\"O\": 1}, \"7\": {\"O\": 1}, \"8\": {\"O\": 1}, \"9\": {\"O\": 1}}" n_minim_iter=3 energy=-11286.36710585166 stress="-0.1410696814992414 -0.0005167953903535554 -0.00035683995426786646 -0.0005167953903535554 -0.14039127185829356 -0.00019262334330170635 -0.00035683995426786646 -0.00019262334330170635 -0.14024530777435237" free_energy=-11286.36710585166 pbc="T T T"
In       9.23366787       4.98436333       3.44163284        0       0.01599334       0.00863326       0.00596114
In       6.67356561       3.60241198       2.48741485        1      -0.01599334      -0.00863326      -0.00596114
In       3.93125670       2.12210489       1.46528361        2       0.01599334       0.00863326       0.00596114
In       1.37115445       0.74015354       0.51106562        3      -0.01599334      -0.00863326      -0.00596114
O        5.28456117       1.97375144      -0.08024883        4       0.00000000       0.05170004      -0.07487486
O        6.05500212       4.61799142       0.80572230        5      -0.04322149       0.08006898       0.00000000
O        7.18317579       1.64914767       2.07855272        6       0.04322149      -0.02836894      -0.07487486
O        3.42164653       4.07536921       1.87414574        7      -0.04322149       0.02836894       0.07487486
O        5.32026115       3.75076544       4.03294729        8       0.00000000      -0.05170004       0.07487486
O        4.54982020       1.10652545       3.14697616        9       0.04322149      -0.08006898      -0.00000000
10
Lattice="5.270556562337811 -0.25992667769460104 -0.17947571846570826 2.6747695269742877 4.548839009258215 -0.1794757184656894 2.67476952697429 1.443849110707007 4.317342656215581" Properties=species:S:1:pos:R:3:spacegroup_kinds:I:1:forces:R:3 spacegroup="P 1" unit_cell=conventional occupancy="_JSON {\"0\": {\"In\": 1}, \"1\": {\"In\": 1}, \"2\": {\"In\": 1}, \"3\": {\"In\": 1}, \"4\": {\"O\": 1}, \"5\": {\"O\": 1}, \"6\": {\"O\": 1}, \"7\": {\"O\": 1}, \"8\": {\"O\": 1}, \"9\": {\"O\": 1}}" n_minim_iter=4 energy=-11286.368588432164 stress="-0.13965735438450294 0.0010120716341127244 0.0006988212396111342 0.0010120716341127244 -0.14098592496491044 0.00037722593309463885 0.0006988212396111342 0.00037722593309463885 -0.14127177525170484" free_energy=-11286.368588432164 pbc="T T T"
In       9.24991653       4.99313441       3.44768914        0      -0.01243429      -0.00671207      -0.00463459
In       6.68022688       3.60600775       2.48989768        1       0.01243429       0.00671207       0.00463459
In       3.93986872       2.12675369       1.46849353        2      -0.01243429      -0.00671207      -0.00463459
In       1.37017908       0.73962703       0.51070207        3       0.01243429       0.00671207       0.00463459
O        5.29030218       1.98007116      -0.08038324        4       0.00000000       0.01279098      -0.01852460
O        6.06184187       4.62588983       0.81012208        5      -0.01069332       0.01980967      -0.00000000
O        7.19353202       1.65375241       2.07828809        6       0.01069332      -0.00701869      -0.01852460
O        3.42656359       4.07900903       1.88010312        7      -0.01069332       0.00701869       0.01852460
O        5.32979342       3.75269028       4.03877445        8       0.00000000      -0.01279098       0.01852460
O        4.55825374       1.10687161       3.14826913        9       0.01069332      -0.01980967      -0.00000000
10
Lattice="5.268067568236564 -0.26271624749627354 -0.18140187721480627 2.671071667274981 4.548288895671124 -0.18140187721478745 2.6710716672749837 1.4418529942623866 4.317510678907337" Properties=species:S:1:pos:R:3:spacegroup_kinds:I:1:forces:R:3 spacegroup="P 1" unit_cell=conventional occupancy="_JSON {\"0\": {\"In\": 1}, \"1\": {\"In\": 1}, \"2\": {\"In\": 1}, \"3\": {\"In\": 1}, \"4\": {\"O\": 1}, \"5\": {\"O\": 1}, \"6\": {\"O\": 1}, \"7\": {\"O\": 1}, \"8\": {\"O\": 1}, \"9\": {\"O\": 1}}" n_minim_iter=5 energy=-11286.368756131478 stress="-0.1404020464740796 8.259008563923814e-05 5.702729267338678e-05 8.259008563923814e-05 -0.14051046444903323 3.0783513761710725e-05 5.702729267338678e-05 3.0783513761710725e-05 -0.14053379125484056" free_energy=-11286.368756131478 pbc="T T T"
In       9.24204090       4.98888312       3.44475369        0      -0.00232254      -0.00125372      -0.00086567
In       6.67327544       3.60225534       2.48730669        1       0.00232254       0.00125372       0.00086567
In       3.93693545       2.12517030       1.46740023        2      -0.00232254      -0.00125372      -0.00086567
In       1.36816999       0.73854252       0.50995323        3       0.00232254       0.00125372       0.00086567
O        5.28658650       1.97803990      -0.08327751        4      -0.00000000       0.00145589      -0.00210850
O        6.05569417       4.62396623       0.80727485        5      -0.00121713       0.00225477       0.00000000
O        7.18855050       1.64964290       2.07547783        6       0.00121713      -0.00079888      -0.00210850
O        3.42166039       4.07778274       1.87922909        7      -0.00121713       0.00079888       0.00210850
O        5.32362439       3.74938574       4.03798443        8       0.00000000      -0.00145589       0.00210850
O        4.55451672       1.10345941       3.14743207        9       0.00121713      -0.00225477      -0.00000000
