10
Lattice="6.421041735508351 0.09121006187290542 0.06297926604199282 3.599617939689557 5.317973949991862 0.06297926604200103 3.5996179396895616 1.9430852298459829 4.950680065435212" Properties=species:S:1:pos:R:3:spacegroup_kinds:I:1:forces:R:3 spacegroup="P 1" unit_cell=conventional occupancy="_JSON {\"0\": {\"In\": 1}, \"1\": {\"In\": 1}, \"2\": {\"In\": 1}, \"3\": {\"In\": 1}, \"4\": {\"O\": 1}, \"5\": {\"O\": 1}, \"6\": {\"O\": 1}, \"7\": {\"O\": 1}, \"8\": {\"O\": 1}, \"9\": {\"O\": 1}}" n_minim_iter=1 energy=-11286.04759493832 stress="0.10787058156399702 -0.0028934191141157927 -0.001997865240478663 -0.0028934191141157927 0.11166884187157858 -0.001078454020291657 -0.001997865240478663 -0.001078454020291657 0.11248606137863663" free_energy=-11286.04759493832 pbc="T T T"
In      11.56707497       6.24394392       4.31135553        0      -0.07120494      -0.03843665      -0.02653997
In       8.86334146       4.78445996       3.30360237        1       0.07120494       0.03843665       0.02653997
In       4.75693616       2.56780930       1.77303623        2      -0.07120494      -0.03843665      -0.02653997
In       2.05320266       1.10832534       0.76528307        3       0.07120494       0.03843665       0.02653997
O        6.61559028       2.57808721       0.29495922        4       0.00000000       0.06864450      -0.09941477
O        7.83486496       5.61811479       1.33213892        5      -0.05738715       0.10631124       0.00000000
O        8.99593353       2.47417436       2.77029925        6       0.05738715      -0.03766674      -0.09941477
O        4.62434409       4.87809490       2.30633935        7      -0.05738715       0.03766674       0.09941477
O        7.00468735       4.77418205       4.78167939        8      -0.00000000      -0.06864450       0.09941477
O        5.78541266       1.73415447       3.74449968        9       0.05738715      -0.10631124      -0.00000000
10
Lattice="6.441044732250979 0.11133587496790211 0.0768758571767245 3.627419301070467 5.323653081685015 0.0768758571767326 3.627419301070472 1.9580924932761463 4.951067139448481" Properties=species:S:1:pos:R:3:spacegroup_kinds:I:1:forces:R:3 spacegroup="P 1" unit_cell=conventional occupancy="_JSON {\"0\": {\"In\": 1}, \"1\": {\"In\": 1}, \"2\": {\"In\": 1}, \"3\": {\"In\": 1}, \"4\": {\"O\": 1}, \"5\": {\"O\": 1}, \"6\": {\"O\": 1}, \"7\": {\"O\": 1}, \"8\": {\"O\": 1}, \"9\": {\"O\": 1}}" n_minim_iter=2 energy=-11286.051563622532 stress="0.10862882785585165 0.00025289411033908664 0.00017461982862146096 0.00025289411033908664 0.1082968477255403 9.426034074874649e-05 0.00017461982862146096 9.426034074874649e-05 0.10822542011813287" free_energy=-11286.051563622532 pbc="T T T"
In      11.63081598       6.27835152       4.33511350        0      -0.07945255      -0.04288874      -0.02961407
In       8.91300903       4.81127067       3.32211479        1       0.07945255       0.04288874       0.02961407
In       4.78287431       2.58181079       1.78270407        2      -0.07945255      -0.04288874      -0.02961407
In       2.06506736       1.11472994       0.76970536        3       0.07945255       0.04288874       0.02961407
O        6.64449321       2.59688073       0.31108504        4       0.00000000       0.05371737      -0.07779647
O        7.87889954       5.63893991       1.35308057        5      -0.04490799       0.08319326      -0.00000000
O        9.03750617       2.50275191       2.78661861        6       0.04490799      -0.02947589      -0.07779647
O        4.65837717       4.89032955       2.31820025        7      -0.04490799       0.02947589       0.07779647
O        7.05139014       4.79620073       4.79373382        8       0.00000000      -0.05371737       0.07779647
O        5.81698381       1.75414155       3.75173829        9       0.04490799      -0.08319326       0.00000000
10
Lattice="6.43929859154253 0.10958288983811988 0.07566544557750797 3.6249956512097103 5.323155200583348 0.07566544557751606 3.624995651209716 1.9567841993611659 4.951030412579022" Properties=species:S:1:pos:R:3:spacegroup_kinds:I:1:forces:R:3 spacegroup="P 1" unit_cell=conventional occupancy="_JSON {\"0\": {\"In\": 1}, \"1\": {\"In\": 1}, \"2\": {\"In\": 1}, \"3\": {\"In\": 1}, \"4\": {\"O\": 1}, \"5\": {\"O\": 1}, \"6\": {\"O\": 1}, \"7\": {\"O\": 1}, \"8\": {\"O\": 1}, \"9\": {\"O\": 1}}" n_minim_iter=3 energy=-11286.056194934845 stress="0.10640744352279603 0.0001907111119145621 0.00013168334202770198 0.0001907111119145621 0.10615709249700347 7.108308803032513e-05 0.00013168334202770198 7.108308803032513e-05 0.10610322790541989" free_energy=-11286.056194934845 pbc="T T T"
In      11.61904046       6.27199506       4.33072445        0      -0.03718813      -0.02007427      -0.01386100
In       8.91489439       4.81228839       3.32281751        1       0.03718813       0.02007427       0.01386100
In       4.77439552       2.57723391       1.77954380        2      -0.03718813      -0.02007427      -0.01386100
In       2.07024944       1.11752725       0.77163686        3       0.03718813       0.02007427       0.01386100
O        6.64197177       2.59951026       0.30349919        4       0.00000000       0.00967974      -0.01401873
O        7.87149136       5.64373258       1.35125577        5      -0.00809231       0.01499122      -0.00000000
O        9.03744784       2.49791940       2.77901440        6       0.00809231      -0.00531148      -0.01401873
O        4.65184206       4.89160290       2.32334691        7      -0.00809231       0.00531148       0.01401873
O        7.04731813       4.79001204       4.79886212        8       0.00000000      -0.00967974       0.01401873
O        5.81779855       1.74578972       3.75110553        9       0.00809231      -0.01499122      -0.00000000
10
Lattice="6.43756401846804 0.10784078757185435 0.07446254844262401 3.622587446890569 5.322661018416382 0.07446254844263211 3.6225874468905763 1.955484242998748 4.950994482270552" Properties=species:S:1:pos:R:3:spacegroup_kinds:I:1:forces:R:3 spacegroup="P 1" unit_cell=conventional occupancy="_JSON {\"0\": {\"In\": 1}, \"1\": {\"In\": 1}, \"2\": {\"In\": 1}, \"3\": {\"In\": 1}, \"4\": {\"O\": 1}, \"5\": {\"O\": 1}, \"6\": {\"O\": 1}, \"7\": {\"O\": 1}, \"8\": {\"O\": 1}, \"9\": {\"O\": 1}}" n_minim_iter=4 energy=-11286.05667597123 stress="0.10535402511200681 -1.7973041070406765e-05 -1.2410132194163927e-05 -1.7973041070406765e-05 0.10537761875148335 -6.699029375379504e-06 -1.2410132194163927e-05 -6.699029375379504e-06 0.10538269507088237" free_energy=-11286.05667597123 pbc="T T T"
In      11.61054633       6.26740990       4.32755846        0      -0.01446641      -0.00780902      -0.00539202
In       8.91356204       4.81156919       3.32232091        1       0.01446641       0.00780902       0.00539202
In       4.76917688       2.57441687       1.77759867        2      -0.01446641      -0.00780902      -0.00539202
In       2.07219259       1.11857616       0.77236112        3       0.01446641       0.00780902       0.00539202
O        6.63946674       2.59962345       0.29958153        4      -0.00000000      -0.00801063       0.01160144
O        7.86622031       5.64462386       1.34944245        5       0.00669693      -0.01240624       0.00000000
O        9.03530062       2.49448913       2.77507877        6      -0.00669693       0.00439561       0.01160144
O        4.64743830       4.89149693       2.32484081        7       0.00669693      -0.00439561      -0.01160144
O        7.04327218       4.78636261       4.80033806        8      -0.00000000       0.00801063      -0.01160144
O        5.81651861       1.74136220       3.75047714        9      -0.00669693       0.01240623      -0.00000000
10
Lattice="6.438227031105334 0.10850676411780752 0.07492239588932081 3.6235080161214053 5.322849864407093 0.07492239588932893 3.623508016121413 1.9559811692018791 4.95100815088725" Properties=species:S:1:pos:R:3:spacegroup_kinds:I:1:forces:R:3 spacegroup="P 1" unit_cell=conventional occupancy="_JSON {\"0\": {\"In\": 1}, \"1\": {\"In\": 1}, \"2\": {\"In\": 1}, \"3\": {\"In\": 1}, \"4\": {\"O\": 1}, \"5\": {\"O\": 1}, \"6\": {\"O\": 1}, \"7\": {\"O\": 1}, \"8\": {\"O\": 1}, \"9\": {\"O\": 1}}" n_minim_iter=5 energy=-11286.05677859439 stress="0.10544644333921932 1.5103464261655869e-05 1.0428730977970938e-05 1.5103464261655869e-05 0.10542661666003064 5.6294621928579674e-06 1.0428730977970938e-05 5.6294621928579674e-06 0.10542235082602634" free_energy=-11286.05677859439 pbc="T T T"
In      11.61162346       6.26799133       4.32795994        0      -0.00429100      -0.00231630      -0.00159937
In       8.91624115       4.81301538       3.32331948        1       0.00429100       0.00231630       0.00159937
In       4.76900193       2.57432243       1.77753346        2      -0.00429100      -0.00231630      -0.00159937
In       2.07361962       1.11934648       0.77289301        3       0.00429100       0.00231630       0.00159937
O        6.64042429       2.59965015       0.30097780        4       0.00000000      -0.00056997       0.00082546
O        7.86817672       5.64439148       1.35013563        5       0.00047650      -0.00088272       0.00000000
O        9.03617987       2.49576202       2.77648188        6      -0.00047650       0.00031275       0.00082546
O        4.64906321       4.89157579       2.32437107        7       0.00047650      -0.00031275      -0.00082546
O        7.04481879       4.78768766       4.79987514        8       0.00000000       0.00056997      -0.00082546
O        5.81706635       1.74294633       3.75071731        9      -0.00047650       0.00088272      -0.00000000
