10
Lattice="5.997644342043789 -0.024347727288086575 -0.016811763558837796 3.27068365256898 5.0274207015418995 -0.01681176355884001 3.270683652568975 1.7655254538912375 4.707245629595726" Properties=species:S:1:pos:R:3:spacegroup_kinds:I:1:forces:R:3 spacegroup="P 1" unit_cell=conventional occupancy="_JSON {\"0\": {\"In\": 1}, \"1\": {\"In\": 1}, \"2\": {\"In\": 1}, \"3\": {\"In\": 1}, \"4\": {\"O\": 1}, \"5\": {\"O\": 1}, \"6\": {\"O\": 1}, \"7\": {\"O\": 1}, \"8\": {\"O\": 1}, \"9\": {\"O\": 1}}" n_minim_iter=6 energy=-11287.61846225017 stress="0.019449250724037526 -5.571331700546948e-06 -3.846925811406944e-06 -5.571331700546948e-06 0.019456564342224994 -2.076581567410821e-06 -3.846925811406944e-06 -2.076581567410821e-06 0.01945813791499247" free_energy=-11287.61846225017 pbc="T T T"
In      10.74187932       5.79850068       4.00378324        0      -0.00135196      -0.00072979      -0.00050391
In       8.06663816       4.35439698       3.00664992        1       0.00135196       0.00072979       0.00050391
In       4.47237350       2.41420146       1.66697218        2      -0.00135196      -0.00072979      -0.00050391
In       1.79713234       0.97009776       0.66983887        3       0.00135196       0.00072979       0.00050391
O        6.13357509       2.33917135       0.20531606        4       0.00000000       0.00330192      -0.00478203
O        7.21782610       5.21459673       1.15159376        5      -0.00276042       0.00511376       0.00000000
O        8.32000772       2.20102345       2.55893887        6       0.00276042      -0.00181184      -0.00478203
O        4.21900393       4.56757499       2.11468323        7      -0.00276042       0.00181184       0.00478203
O        6.40543657       4.42942709       4.46830605        8      -0.00000000      -0.00330192       0.00478203
O        5.32118555       1.55400171       3.52202834        9       0.00276042      -0.00511376       0.00000000
