10
Lattice="5.076432296637447 -0.2848266499587255 -0.19666879942036988 2.547432800626105 4.400213314052479 -0.1966687994203555 2.5474328006261064 1.3751123402136918 4.184450008976349" Properties=species:S:1:pos:R:3:spacegroup_kinds:I:1:forces:R:3 spacegroup="P 1" unit_cell=conventional occupancy="_JSON {\"0\": {\"In\": 1}, \"1\": {\"In\": 1}, \"2\": {\"In\": 1}, \"3\": {\"In\": 1}, \"4\": {\"O\": 1}, \"5\": {\"O\": 1}, \"6\": {\"O\": 1}, \"7\": {\"O\": 1}, \"8\": {\"O\": 1}, \"9\": {\"O\": 1}}" n_minim_iter=1 energy=-11283.246706056956 stress="-0.5174581951687157 0.011394734808962382 0.00786790426757767 0.011394734808962382 -0.5324163354291102 0.004247119783626976 0.00786790426757767 0.004247119783626976 -0.5356346730422412" free_energy=-11283.246706056956 pbc="T T T"
In       8.84771603       4.77602530       3.29777836        0      -0.52936542      -0.28575314      -0.19730853
In       6.40923080       3.45972321       2.38889026        1       0.52936542       0.28575314       0.19730853
In       3.76206708       2.03077580       1.40222215        2      -0.52936542      -0.28575314      -0.19730853
In       1.32358185       0.71447370       0.49333405        3       0.52936542       0.28575314       0.19730853
O        5.08104062       1.88186862      -0.09432235        4       0.00000000      -0.12688195       0.18375747
O        5.80996835       4.43955382       0.75110930        5       0.10607394      -0.19650485      -0.00000000
O        6.89954568       1.56018905       1.99790265        6      -0.10607394       0.06962290       0.18375747
O        3.27175220       3.93030995       1.79320976        7       0.10607394      -0.06962290      -0.18375747
O        5.09025727       3.60863038       3.88543476        8       0.00000000       0.12688195      -0.18375747
O        4.36132954       1.05094518       3.04000311        9      -0.10607394       0.19650485       0.00000000
10
Lattice="5.045457466376771 -0.32016531693732503 -0.22106965239113155 2.5008929328134917 4.393709300100565 -0.221069652391117 2.500892932813495 1.3499899713232115 4.187013289007485" Properties=species:S:1:pos:R:3:spacegroup_kinds:I:1:forces:R:3 spacegroup="P 1" unit_cell=conventional occupancy="_JSON {\"0\": {\"In\": 1}, \"1\": {\"In\": 1}, \"2\": {\"In\": 1}, \"3\": {\"In\": 1}, \"4\": {\"O\": 1}, \"5\": {\"O\": 1}, \"6\": {\"O\": 1}, \"7\": {\"O\": 1}, \"8\": {\"O\": 1}, \"9\": {\"O\": 1}}" n_minim_iter=2 energy=-11283.27251432839 stress="-0.511558418564319 -0.0016877796102488893 -0.0011653881030896974 -0.0016877796102488893 -0.5093428299977909 -0.0006290802092054851 -0.0011653881030896974 -0.0006290802092054851 -0.5088661322364058" free_energy=-11283.27251432839 pbc="T T T"
In       8.73660176       4.71604546       3.25636312        0      -0.20747105      -0.11199353      -0.07732996
In       6.33426323       3.41925547       2.36094785        1       0.20747105       0.11199353       0.07732996
In       3.71298009       2.00427849       1.38392613        2      -0.20747105      -0.11199353      -0.07732996
In       1.31064156       0.70748849       0.48851086        3       0.20747105       0.11199353       0.07732996
O        5.03453956       1.85068680      -0.12275847        4       0.00000000      -0.27872122       0.40365952
O        5.73749809       4.40689169       0.71514884        5       0.23301233      -0.43166165      -0.00000000
O        6.83247396       1.51144558       1.97074817        6      -0.23301233       0.15294042       0.40365952
O        3.21476936       3.91208838       1.77412581        7       0.23301233      -0.15294042      -0.40365952
O        5.01270376       3.57284716       3.86763245        8      -0.00000000       0.27872122      -0.40365952
O        4.30974523       1.01664227       3.02972514        9      -0.23301233       0.43166165       0.00000000
10
Lattice="5.032034263641945 -0.33562393326873036 -0.2317436097439219 2.4806038479087342 4.390969916179075 -0.23174360974390742 2.480603847908738 1.33903785866402 4.188233460363844" Properties=species:S:1:pos:R:3:spacegroup_kinds:I:1:forces:R:3 spacegroup="P 1" unit_cell=conventional occupancy="_JSON {\"0\": {\"In\": 1}, \"1\": {\"In\": 1}, \"2\": {\"In\": 1}, \"3\": {\"In\": 1}, \"4\": {\"O\": 1}, \"5\": {\"O\": 1}, \"6\": {\"O\": 1}, \"7\": {\"O\": 1}, \"8\": {\"O\": 1}, \"9\": {\"O\": 1}}" n_minim_iter=3 energy=-11283.311704494905 stress="-0.4802839394916232 -0.0049156328872493205 -0.0033941754358058802 -0.0049156328872493205 -0.47383107091297666 -0.0018321867126220672 -0.0033941754358058802 -0.0018321867126220672 -0.4724426958001243" free_energy=-11283.311704494905 pbc="T T T"
In       8.67666277       4.68369020       3.23402227        0      -0.10721095      -0.05787281      -0.03996036
In       6.31320016       3.40788556       2.35309709        1       0.10721095       0.05787281       0.03996036
In       3.68004179       1.98649828       1.37164915        2      -0.10721095      -0.05787281      -0.03996036
In       1.31657918       0.71069364       0.49072397        3       0.10721095       0.05787281       0.03996036
O        5.01432762       1.82453217      -0.11699701        4       0.00000000       0.01541429      -0.02232383
O        5.71645286       4.37325581       0.69944295        5      -0.01288642       0.02387244       0.00000000
O        6.79280622       1.49706424       1.97711972        6       0.01288642      -0.00845816      -0.02232383
O        3.20043573       3.89731960       1.74762652        7      -0.01288642       0.00845816       0.02232383
O        4.97891433       3.56985168       3.84174325        8       0.00000000      -0.01541429       0.02232383
O        4.27678909       1.02112803       3.02530329        9       0.01288642      -0.02387244      -0.00000000
10
Lattice="5.045498332516896 -0.3201183895429435 -0.22103724968473343 2.5009545884929976 4.393717714310988 -0.2210372496847189 2.5009545884930016 1.3500232532554028 4.18700967690165" Properties=species:S:1:pos:R:3:spacegroup_kinds:I:1:forces:R:3 spacegroup="P 1" unit_cell=conventional occupancy="_JSON {\"0\": {\"In\": 1}, \"1\": {\"In\": 1}, \"2\": {\"In\": 1}, \"3\": {\"In\": 1}, \"4\": {\"O\": 1}, \"5\": {\"O\": 1}, \"6\": {\"O\": 1}, \"7\": {\"O\": 1}, \"8\": {\"O\": 1}, \"9\": {\"O\": 1}}" n_minim_iter=4 energy=-11283.317461957475 stress="-0.47831123970807665 -2.2392658853715297e-05 -1.5461815150104348e-05 -2.2392658853715297e-05 -0.4782818443315294 -8.346338530306804e-06 -1.5461815150104348e-05 -8.346338530306804e-06 -0.47827551973086213" free_energy=-11283.317461957475 pbc="T T T"
In       8.72070829       4.70746612       3.25043920        0      -0.16320106      -0.08809645      -0.06082936
In       6.35040296       3.42796775       2.36696356        1       0.16320106       0.08809645       0.06082936
In       3.69700454       1.99565483       1.37797162        2      -0.16320106      -0.08809645      -0.06082936
In       1.32669920       0.71615646       0.49449597        3       0.16320106       0.08809645       0.06082936
O        5.03460104       1.83782786      -0.10403788        4      -0.00000000       0.05086298      -0.07366259
O        5.74837867       4.38695594       0.71519654        5      -0.04252171       0.07877261       0.00000000
O        6.82177799       1.51858885       1.98946696        6       0.04252171      -0.02790963      -0.07366259
O        3.22562950       3.90503373       1.75546821        7      -0.04252171       0.02790963       0.07366259
O        5.01280646       3.58579472       3.84897305        8       0.00000000      -0.05086298       0.07366259
O        4.29902883       1.03666663       3.02973863        9       0.04252171      -0.07877261      -0.00000000
10
Lattice="5.054417599802137 -0.30989565606097513 -0.21397859586499962 2.514395041458341 4.395564829043564 -0.21397859586498513 2.5143950414583456 1.3572784525784876 4.186236043031886" Properties=species:S:1:pos:R:3:spacegroup_kinds:I:1:forces:R:3 spacegroup="P 1" unit_cell=conventional occupancy="_JSON {\"0\": {\"In\": 1}, \"1\": {\"In\": 1}, \"2\": {\"In\": 1}, \"3\": {\"In\": 1}, \"4\": {\"O\": 1}, \"5\": {\"O\": 1}, \"6\": {\"O\": 1}, \"7\": {\"O\": 1}, \"8\": {\"O\": 1}, \"9\": {\"O\": 1}}" n_minim_iter=5 energy=-11283.320742272814 stress="-0.47605258090765895 0.0007703900481437336 0.0005319435022083039 0.0007703900481437336 -0.4770638903033923 0.00028714479695240834 0.0005319435022083039 0.00028714479695240834 -0.4772814798575332" free_energy=-11283.320742272814 pbc="T T T"
In       8.74661382       4.72145000       3.26009488        0      -0.07017013      -0.03787806      -0.02615427
In       6.37819769       3.44297143       2.37732339        1       0.07017013       0.03787806       0.02615427
In       3.70500998       1.99997619       1.38095545        2      -0.07017013      -0.03787806      -0.02615427
In       1.33659385       0.72149762       0.49818397        3       0.07017013       0.03787806       0.02615427
O        5.04801071       1.84683211      -0.09581362        4      -0.00000000       0.02979511      -0.04315092
O        5.76929307       4.39636884       0.72559112        5      -0.02490886       0.04614433       0.00000000
O        6.84112340       1.53267399       1.99730441        6       0.02490886      -0.01634923      -0.04315092
O        3.24208427       3.91027364       1.76097444        7      -0.02490886       0.01634923       0.04315092
O        5.03519696       3.59611552       3.85409246        8       0.00000000      -0.02979511       0.04315092
O        4.31391460       1.04657879       3.03268773        9       0.02490886      -0.04614433      -0.00000000
10
Lattice="5.0567809527114 -0.3071933676807557 -0.212112703710939 2.517950991387386 4.396057799190447 -0.21211270371092447 2.5179509913873903 1.3591979656770907 4.186035936658686" Properties=species:S:1:pos:R:3:spacegroup_kinds:I:1:forces:R:3 spacegroup="P 1" unit_cell=conventional occupancy="_JSON {\"0\": {\"In\": 1}, \"1\": {\"In\": 1}, \"2\": {\"In\": 1}, \"3\": {\"In\": 1}, \"4\": {\"O\": 1}, \"5\": {\"O\": 1}, \"6\": {\"O\": 1}, \"7\": {\"O\": 1}, \"8\": {\"O\": 1}, \"9\": {\"O\": 1}}" n_minim_iter=6 energy=-11283.321178859123 stress="-0.4755395418728665 0.0002291947484924759 0.00015825575398598616 0.0002291947484924759 -0.4758404112855508 8.542696038189407e-05 0.00015825575398598616 8.542696038189407e-05 -0.4759051452248496" free_energy=-11283.321178859123 pbc="T T T"
In       8.75272865       4.72475081       3.26237404        0      -0.00317554      -0.00171417      -0.00118361
In       6.38629575       3.44734279       2.38034175        1       0.00317554       0.00171417       0.00118361
In       3.70638718       2.00071961       1.38146877        2      -0.00317554      -0.00171417      -0.00118361
In       1.33995428       0.72331159       0.49943649        3       0.00317554       0.00171417       0.00118361
O        5.05156120       1.84955600      -0.09413396        4       0.00000000       0.00210776      -0.00305258
O        5.77454290       4.39939082       0.72833993        5      -0.00176210       0.00326434      -0.00000000
O        6.84653050       1.53621197       1.99888401        6       0.00176210      -0.00115658      -0.00305258
O        3.24615242       3.91185042       1.76292652        7      -0.00176210       0.00115658       0.00305258
O        5.04112172       3.59850640       3.85594449        8      -0.00000000      -0.00210776       0.00305258
O        4.31814002       1.04867157       3.03347060        9       0.00176210      -0.00326434       0.00000000
