10
Lattice="5.599128718433956 -0.023538135707638422 -0.016252751948899236 3.0526862465891593 4.693815412786262 -0.016252751948888745 3.052686246589161 1.6478497597477937 4.395083440681747" Properties=species:S:1:pos:R:3:spacegroup_kinds:I:1:forces:R:3 spacegroup="P 1" unit_cell=conventional occupancy="_JSON {\"0\": {\"In\": 1}, \"1\": {\"In\": 1}, \"2\": {\"In\": 1}, \"3\": {\"In\": 1}, \"4\": {\"O\": 1}, \"5\": {\"O\": 1}, \"6\": {\"O\": 1}, \"7\": {\"O\": 1}, \"8\": {\"O\": 1}, \"9\": {\"O\": 1}}" n_minim_iter=1 energy=-11286.93243401504 stress="-0.10783735988338546 0.0046252846289801235 0.0031936940418325565 0.0046252846289801235 -0.11390908137530412 0.0017239662170811126 0.0031936940418325565 0.0017239662170811126 -0.11521545030052129" free_energy=-11286.93243401504 pbc="T T T"
In      10.05694547       5.42877120       3.74849023        0       0.12079153       0.06520365       0.04502220
In       7.49980636       4.04841936       2.79537668        1      -0.12079153      -0.06520365      -0.04502220
In       4.20469486       2.26970768       1.56720126        2       0.12079153       0.06520365       0.04502220
In       1.64755575       0.88935585       0.61408771        3      -0.12079153      -0.06520365      -0.04502220
O        5.72568967       2.20324626       0.16217561        4       0.00000000       0.04135355      -0.05989050
O        6.72076536       4.89885768       1.07439173        5      -0.03457177       0.06404514       0.00000000
O        7.78330022       2.04298386       2.35971733        6       0.03457177      -0.02269159      -0.05989050
O        3.92120100       4.27514319       2.00286061        7      -0.03457177       0.02269159       0.05989050
O        5.97881155       4.11488078       4.20040233        8      -0.00000000      -0.04135355       0.05989050
O        4.98373586       1.41926936       3.28818621        9       0.03457177      -0.06404514      -0.00000000
10
Lattice="5.5581476597993165 -0.06637285679512846 -0.0458295249475065 2.994389004066232 4.683059390673907 -0.04582952494749592 2.994389004066233 1.6163807225374665 4.395504403563395" Properties=species:S:1:pos:R:3:spacegroup_kinds:I:1:forces:R:3 spacegroup="P 1" unit_cell=conventional occupancy="_JSON {\"0\": {\"In\": 1}, \"1\": {\"In\": 1}, \"2\": {\"In\": 1}, \"3\": {\"In\": 1}, \"4\": {\"O\": 1}, \"5\": {\"O\": 1}, \"6\": {\"O\": 1}, \"7\": {\"O\": 1}, \"8\": {\"O\": 1}, \"9\": {\"O\": 1}}" n_minim_iter=2 energy=-11286.938035119545 stress="-0.10842171028836506 -0.0030448341242801215 -0.0021024151761279363 -0.0030448341242801215 -0.10442468388681234 -0.0011348904076694938 -0.0021024151761279363 -0.0011348904076694938 -0.10356469861052382" free_energy=-11286.938035119545 pbc="T T T"
In       9.92325303       5.35660360       3.69865951        0       0.32810319       0.17711115       0.12229276
In       7.39713548       3.99299730       2.75710852        1      -0.32810319      -0.17711115      -0.12229276
In       4.14979019       2.24006997       1.54673683        2       0.32810319       0.17711115       0.12229276
In       1.62367265       0.87646367       0.60518585        3      -0.32810319      -0.17711115      -0.12229276
O        5.66580525       2.16548012       0.12558421        4       0.00000000       0.02022674      -0.02929349
O        6.62762239       4.85841114       1.03013182        5      -0.01690966       0.03132560       0.00000000
O        7.69837712       1.98186943       2.32333641        6       0.01690966      -0.01109885      -0.02929349
O        3.84854856       4.25119784       1.98050894        7      -0.01690966       0.01109885       0.02929349
O        5.88112043       4.06758715       4.17826114        8      -0.00000000      -0.02022674       0.02929349
O        4.91930329       1.37465613       3.27371354        9       0.01690966      -0.03132560      -0.00000000
10
Lattice="5.574318807824717 -0.04940566696525732 -0.0341139187924581 3.0174471215488916 4.687268283323773 -0.03411391879244753 3.017447121548892 1.6288275678025155 4.3952893503926305" Properties=species:S:1:pos:R:3:spacegroup_kinds:I:1:forces:R:3 spacegroup="P 1" unit_cell=conventional occupancy="_JSON {\"0\": {\"In\": 1}, \"1\": {\"In\": 1}, \"2\": {\"In\": 1}, \"3\": {\"In\": 1}, \"4\": {\"O\": 1}, \"5\": {\"O\": 1}, \"6\": {\"O\": 1}, \"7\": {\"O\": 1}, \"8\": {\"O\": 1}, \"9\": {\"O\": 1}}" n_minim_iter=3 energy=-11286.94915407703 stress="-0.10219558646567754 0.0028966687195918664 0.002000109046796673 0.0028966687195918664 -0.10599811260868328 0.0010796652331556292 0.002000109046796673 0.0010796652331556292 -0.10681624993621458" free_energy=-11286.94915407703 pbc="T T T"
In       9.98593092       5.39043732       3.72202122        0       0.06780614       0.03660197       0.02527315
In       7.42788867       4.00959797       2.76857105        1      -0.06780614      -0.03660197      -0.02527315
In       4.18132439       2.25709223       1.55849047        2       0.06780614       0.03660197       0.02527315
In       1.62328214       0.87625287       0.60504029        3      -0.06780614      -0.03660197      -0.02527315
O        5.68946267       2.18158801       0.13837778        4      -0.00000000       0.06971141      -0.10095992
O        6.66346215       4.87619468       1.04765146        5      -0.05827908       0.10796358      -0.00000000
O        7.73291031       2.00541097       2.33602246        6       0.05827908      -0.03825217      -0.10095992
O        3.87630275       4.26127922       1.99103906        7      -0.05827908       0.03825217       0.10095992
O        5.91975039       4.08510219       4.18868373        8       0.00000000      -0.06971141       0.10095992
O        4.94575091       1.39049552       3.27941006        9       0.05827908      -0.10796358       0.00000000
10
Lattice="5.500971373078041 -0.12706741920109624 -0.08773826741053133 2.9122741697101326 4.668564162232938 -0.0877382674105207 2.9122741697101326 1.5720548733885025 4.396798018502709" Properties=species:S:1:pos:R:3:spacegroup_kinds:I:1:forces:R:3 spacegroup="P 1" unit_cell=conventional occupancy="_JSON {\"0\": {\"In\": 1}, \"1\": {\"In\": 1}, \"2\": {\"In\": 1}, \"3\": {\"In\": 1}, \"4\": {\"O\": 1}, \"5\": {\"O\": 1}, \"6\": {\"O\": 1}, \"7\": {\"O\": 1}, \"8\": {\"O\": 1}, \"9\": {\"O\": 1}}" n_minim_iter=4 energy=-11286.97349378464 stress="-0.08314634409150541 -0.0006700745157999967 -0.0004626770373048275 -0.0006700745157999967 -0.08226672128731112 -0.000249754538607444 -0.0004626770373048275 -0.000249754538607444 -0.08207746492830369" free_energy=-11286.97349378464 pbc="T T T"
In       9.77660104       5.27744039       3.64399843        0      -0.00317565      -0.00171423      -0.00118365
In       7.21167854       3.89288705       2.68798380        1       0.00317565       0.00171423       0.00118365
In       4.11384118       2.22066458       1.53333768        2      -0.00317565      -0.00171423      -0.00118365
In       1.54891868       0.83611124       0.57732306        3       0.00317565       0.00171423       0.00118365
O        5.58186562       2.12072409       0.06159413        4      -0.00000000       0.06591213      -0.09545760
O        6.48969220       4.81489631       0.96759211        5      -0.05510287       0.10207956      -0.00000000
O        7.58631320       1.89099150       2.25999314        6       0.05510287      -0.03616743      -0.09545760
O        3.73920652       4.22256013       1.96132835        7      -0.05510287       0.03616743       0.09545760
O        5.74365410       3.99282754       4.15972736        8       0.00000000      -0.06591213       0.09545760
O        4.83582752       1.29865532       3.25372938        9       0.05510287      -0.10207956      -0.00000000
10
Lattice="5.489489465520237 -0.13939304136352015 -0.09624893631438673 2.895669514623262 4.665728568414563 -0.09624893631437585 2.895669514623263 1.563091627681163 4.397161754511019" Properties=species:S:1:pos:R:3:spacegroup_kinds:I:1:forces:R:3 spacegroup="P 1" unit_cell=conventional occupancy="_JSON {\"0\": {\"In\": 1}, \"1\": {\"In\": 1}, \"2\": {\"In\": 1}, \"3\": {\"In\": 1}, \"4\": {\"O\": 1}, \"5\": {\"O\": 1}, \"6\": {\"O\": 1}, \"7\": {\"O\": 1}, \"8\": {\"O\": 1}, \"9\": {\"O\": 1}}" n_minim_iter=5 energy=-11286.975910733989 stress="-0.07679240036422819 0.00020294874003393566 0.00014013325178871476 0.00020294874003393566 -0.07705881601735602 7.564437564976364e-05 0.00014013325178871476 7.564437564976364e-05 -0.0771161370153811" free_energy=-11286.975910733989 pbc="T T T"
In       9.74873447       5.26239792       3.63361182        0      -0.04271588      -0.02305817      -0.01592134
In       7.17250828       3.87174282       2.67338401        1       0.04271588       0.02305817       0.01592134
In       4.10832022       2.21768434       1.53127988        2      -0.04271588      -0.02305817      -0.01592134
In       1.53209403       0.82702924       0.57105207        3       0.04271588       0.02305817       0.01592134
O        5.56495186       2.11460973       0.04436963        4       0.00000000       0.02664191      -0.03858429
O        6.45939357       4.81070015       0.95491704        5      -0.02227277       0.04126091       0.00000000
O        7.56617967       1.87097996       2.24295050        6       0.02227277      -0.01461900      -0.03858429
O        3.71464884       4.21844721       1.96171338        7      -0.02227277       0.01461900       0.03858429
O        5.71587664       3.97481743       4.16029426        8      -0.00000000      -0.02664191       0.03858429
O        4.82143493       1.27872702       3.24974685        9       0.02227277      -0.04126091       0.00000000
10
Lattice="5.494665872931678 -0.1338304223272109 -0.09240802603558258 2.9031602997000454 4.667003740232691 -0.09240802603557169 2.9031602997000463 1.567135177326297 4.396993346664071" Properties=species:S:1:pos:R:3:spacegroup_kinds:I:1:forces:R:3 spacegroup="P 1" unit_cell=conventional occupancy="_JSON {\"0\": {\"In\": 1}, \"1\": {\"In\": 1}, \"2\": {\"In\": 1}, \"3\": {\"In\": 1}, \"4\": {\"O\": 1}, \"5\": {\"O\": 1}, \"6\": {\"O\": 1}, \"7\": {\"O\": 1}, \"8\": {\"O\": 1}, \"9\": {\"O\": 1}}" n_minim_iter=6 energy=-11286.976483952352 stress="-0.07898715580774586 -0.0004268251523863945 -0.00029471676974481497 -0.0004268251523863945 -0.07842685224531674 -0.00015908905097203742 -0.00029471676974481497 -0.00015908905097203742 -0.07830629942401703" free_energy=-11286.976483952352 pbc="T T T"
In       9.76214391       5.26963638       3.63860987        0       0.01017512       0.00549256       0.00379254
In       7.18933580       3.88082637       2.67965607        1      -0.01017512      -0.00549256      -0.00379254
In       4.11165068       2.21948214       1.53252123        2       0.01017512       0.00549256       0.00379254
In       1.53884257       0.83067212       0.57356743        3      -0.01017512      -0.00549256      -0.00379254
O        5.57257956       2.12009555       0.04819135        4      -0.00000000      -0.00151544       0.00219475
O        6.47077989       4.81681487       0.96063630        5       0.00126692      -0.00234700       0.00000000
O        7.57753953       1.87851206       2.24668803        6      -0.00126692       0.00083156       0.00219475
O        3.72344695       4.22179645       1.96548927        7       0.00126692      -0.00083156      -0.00219475
O        5.72840692       3.98021295       4.16398595        8       0.00000000       0.00151544      -0.00219475
O        4.83020659       1.28349364       3.25154100        9      -0.00126692       0.00234700      -0.00000000
10
Lattice="5.498210449916727 -0.13002692060463003 -0.08978176154284045 2.9082850329286924 4.667879959778154 -0.08978176154282952 2.908285032928693 1.5699015246471295 4.396882223407255" Properties=species:S:1:pos:R:3:spacegroup_kinds:I:1:forces:R:3 spacegroup="P 1" unit_cell=conventional occupancy="_JSON {\"0\": {\"In\": 1}, \"1\": {\"In\": 1}, \"2\": {\"In\": 1}, \"3\": {\"In\": 1}, \"4\": {\"O\": 1}, \"5\": {\"O\": 1}, \"6\": {\"O\": 1}, \"7\": {\"O\": 1}, \"8\": {\"O\": 1}, \"9\": {\"O\": 1}}" n_minim_iter=7 energy=-11286.976546536367 stress="-0.07945223337062204 -8.902955089393518e-05 -6.147365212252865e-05 -8.902955089393518e-05 -0.0793353621581342 -3.318367473397392e-05 -6.147365212252865e-05 -3.318367473397392e-05 -0.07931021658484157" free_energy=-11286.976546536367 pbc="T T T"
In       9.77302942       5.27551242       3.64266719        0       0.00249233       0.00134537       0.00092896
In       7.19914136       3.88611944       2.68331086        1      -0.00249233      -0.00134537      -0.00092896
In       4.11563917       2.22163513       1.53400784        2       0.00249233       0.00134537       0.00092896
In       1.54175110       0.83224216       0.57465151        3      -0.00249233      -0.00134537      -0.00092896
O        5.57780036       2.12328399       0.05162235        4      -0.00000000      -0.00030892       0.00044739
O        6.47904362       4.82012599       0.96454792        5       0.00025826      -0.00047843      -0.00000000
O        7.58484213       1.88397393       2.25006346        6      -0.00025826       0.00016951       0.00044739
O        3.72993840       4.22378065       1.96725525        7       0.00025826      -0.00016951      -0.00044739
O        5.73698017       3.98447059       4.16569636        8       0.00000000       0.00030892      -0.00044739
O        4.83573690       1.28762859       3.25277079        9      -0.00025826       0.00047843       0.00000000
