10
Lattice="5.339448596052074 -0.24445295985193677 -0.16879133373159744 2.7255081961385583 4.5979423258936505 -0.16879133373157718 2.725508196138557 1.471238005941711 4.359475068911384" Properties=species:S:1:pos:R:3:spacegroup_kinds:I:1:forces:R:3 spacegroup="P 1" unit_cell=conventional occupancy="_JSON {\"0\": {\"In\": 1}, \"1\": {\"In\": 1}, \"2\": {\"In\": 1}, \"3\": {\"In\": 1}, \"4\": {\"O\": 1}, \"5\": {\"O\": 1}, \"6\": {\"O\": 1}, \"7\": {\"O\": 1}, \"8\": {\"O\": 1}, \"9\": {\"O\": 1}}" n_minim_iter=7 energy=-11286.724083474208 stress="-0.08211184023375288 -2.096394053189071e-05 -1.4475307560212805e-05 -2.096394053189071e-05 -0.08208432036484566 -7.81381680362399e-06 -1.4475307560212805e-05 -7.81381680362399e-06 -0.08207839929274949" free_energy=-11286.724083474208 pbc="T T T"
In       9.38258398       5.06474872       3.49713782        0       0.00083373       0.00045005       0.00031075
In       6.80311351       3.67234235       2.53570079        1      -0.00083373      -0.00045005      -0.00031075
In       3.98735148       2.15238504       1.48619162        2       0.00083373       0.00045005       0.00031075
In       1.40788102       0.75997866       0.52475458        3      -0.00083373      -0.00045005      -0.00031075
O        5.36734055       2.01342873      -0.06297353        4      -0.00000000      -0.00034772       0.00050359
O        6.16205153       4.68524178       0.83668177        5       0.00029070      -0.00053853       0.00000000
O        7.29813777       1.69673249       2.11676400        6      -0.00029070       0.00019080       0.00050359
O        3.49232723       4.12799489       1.90512840        7       0.00029070      -0.00019080      -0.00050359
O        5.42312445       3.81129865       4.08486594        8      -0.00000000       0.00034772      -0.00050359
O        4.62841347       1.13948561       3.18521064        9      -0.00029070       0.00053853      -0.00000000
