10
Lattice="6.075324007777944 -0.039183664177686796 -0.027055769506935494 3.300905264928255 5.100502092048425 -0.02705576950693194 3.300905264928254 1.7818391765088408 4.7792157049784105" Properties=species:S:1:pos:R:3:spacegroup_kinds:I:1:forces:R:3 spacegroup="P 1" unit_cell=conventional occupancy="_JSON {\"0\": {\"In\": 1}, \"1\": {\"In\": 1}, \"2\": {\"In\": 1}, \"3\": {\"In\": 1}, \"4\": {\"O\": 1}, \"5\": {\"O\": 1}, \"6\": {\"O\": 1}, \"7\": {\"O\": 1}, \"8\": {\"O\": 1}, \"9\": {\"O\": 1}}" n_minim_iter=1 energy=-11287.255178049543 stress="0.05458673608806087 -0.0015888768169648136 -0.0010970971156517816 -0.0015888768169648136 0.05667249259663804 -0.0005922165179749452 -0.0010970971156517816 -0.0005922165179749452 0.05712125617891016" free_energy=-11287.255178049543 pbc="T T T"
In      10.83787470       5.85031929       4.03956326        0      -0.11108549      -0.05996430      -0.04140451
In       8.17782711       4.41441713       3.04809299        1       0.11108549       0.05996430       0.04140451
In       4.49930744       2.42874049       1.67701118        2      -0.11108549      -0.05996430      -0.04140451
In       1.83925984       0.99283833       0.68554091        3       0.11108549       0.05996430       0.04140451
O        6.20694564       2.35711332       0.20333209        4       0.00000000       0.01910344      -0.02766665
O        7.30068940       5.27276688       1.15422027        5      -0.01597057       0.02958591      -0.00000000
O        8.41410716       2.21671465       2.59293994        6       0.01597057      -0.01048247      -0.02766665
O        4.26302739       4.62644297       2.13216423        7      -0.01597057       0.01048247       0.02766665
O        6.47018890       4.48604430       4.52177208        8      -0.00000000      -0.01910344       0.02766665
O        5.37644515       1.57039074       3.57088390        9       0.01597057      -0.02958591       0.00000000
10
Lattice="6.095168985524867 -0.018552566832840567 -0.012810286697922956 3.3290423379861798 5.105771858567106 -0.012810286697919416 3.3290423379861793 1.7970276581716103 4.779096355059958" Properties=species:S:1:pos:R:3:spacegroup_kinds:I:1:forces:R:3 spacegroup="P 1" unit_cell=conventional occupancy="_JSON {\"0\": {\"In\": 1}, \"1\": {\"In\": 1}, \"2\": {\"In\": 1}, \"3\": {\"In\": 1}, \"4\": {\"O\": 1}, \"5\": {\"O\": 1}, \"6\": {\"O\": 1}, \"7\": {\"O\": 1}, \"8\": {\"O\": 1}, \"9\": {\"O\": 1}}" n_minim_iter=2 energy=-11287.257225510548 stress="0.05468842775698187 0.0007236024093904546 0.0004996372957846508 0.0007236024093904546 0.053738537607400036 0.0002697058031975228 0.0004996372957846508 0.0002697058031975228 0.05353416278972106" free_energy=-11287.257225510548 pbc="T T T"
In      10.90135363       5.88458542       4.06322354        0      -0.12661646      -0.06834797      -0.04719331
In       8.22852687       4.44178502       3.06699014        1       0.12661646       0.06834797       0.04719331
In       4.52472680       2.44246194       1.68648565        2      -0.12661646      -0.06834797      -0.04719331
In       1.85190004       0.99966154       0.69025225        3       0.12661646       0.06834797       0.04719331
O        6.23589791       2.37598302       0.22003610        4      -0.00000000       0.01733711      -0.02510857
O        7.34514661       5.29332867       1.17555866        5      -0.01449391       0.02685036      -0.00000000
O        8.45569156       2.24583958       2.60958427        6       0.01449391      -0.00951325      -0.02510857
O        4.29756211       4.63840739       2.14389151        7      -0.01449391       0.00951325       0.02510857
O        6.51735576       4.50826394       4.53343969        8       0.00000000      -0.01733711       0.02510857
O        5.40810706       1.59091829       3.57791713        9       0.01449391      -0.02685036      -0.00000000
10
Lattice="6.090229267217756 -0.023677337208224392 -0.01634886862899526 3.322047473055075 5.104454302894817 -0.01634886862899175 3.322047473055074 1.7932518078007875 4.7791180116906595" Properties=species:S:1:pos:R:3:spacegroup_kinds:I:1:forces:R:3 spacegroup="P 1" unit_cell=conventional occupancy="_JSON {\"0\": {\"In\": 1}, \"1\": {\"In\": 1}, \"2\": {\"In\": 1}, \"3\": {\"In\": 1}, \"4\": {\"O\": 1}, \"5\": {\"O\": 1}, \"6\": {\"O\": 1}, \"7\": {\"O\": 1}, \"8\": {\"O\": 1}, \"9\": {\"O\": 1}}" n_minim_iter=3 energy=-11287.263137606938 stress="0.051743163949815506 -0.0005334166618609806 -0.00036831670913694967 -0.0005334166618609806 0.05244339272903733 -0.00019881853348312412 -0.00036831670913694967 -0.00019881853348312412 0.05259405133840335" free_energy=-11287.263137606938 pbc="T T T"
In      10.87392248       5.86977800       4.05299922        0      -0.04576333      -0.02470319      -0.01705721
In       8.22756385       4.44126518       3.06663119        1       0.04576333       0.02470319       0.01705721
In       4.50676037       2.43276361       1.67978909        2      -0.04576333      -0.02470319      -0.01705721
In       1.86040174       1.00425079       0.69342106        3       0.04576333       0.02470319       0.01705721
O        6.22869569       2.37298102       0.21343997        4      -0.00000000      -0.00160805       0.00232887
O        7.33267886       5.29082840       1.17025620        5       0.00134434      -0.00249042       0.00000000
O        8.44675999       2.23767421       2.60299898        6      -0.00134434       0.00088237       0.00232887
O        4.28756423       4.63635457       2.14342130        7       0.00134434      -0.00088237      -0.00232887
O        6.50562853       4.50104776       4.53298031        8      -0.00000000       0.00160805      -0.00232887
O        5.40164536       1.58320039       3.57616408        9      -0.00134434       0.00249042       0.00000000
10
Lattice="6.097138399354198 -0.01651132220553771 -0.011400835966282769 3.3318294890630202 5.106298222827427 -0.01140083596627932 3.33182948906302 1.7985321712009081 4.779089196558967" Properties=species:S:1:pos:R:3:spacegroup_kinds:I:1:forces:R:3 spacegroup="P 1" unit_cell=conventional occupancy="_JSON {\"0\": {\"In\": 1}, \"1\": {\"In\": 1}, \"2\": {\"In\": 1}, \"3\": {\"In\": 1}, \"4\": {\"O\": 1}, \"5\": {\"O\": 1}, \"6\": {\"O\": 1}, \"7\": {\"O\": 1}, \"8\": {\"O\": 1}, \"9\": {\"O\": 1}}" n_minim_iter=4 energy=-11287.264360341758 stress="0.049855061921243 -0.00023127064604211035 -0.00015968913134040393 -0.00023127064604211035 0.05015865641699083 -8.620070190500717e-05 -0.00015968913134040393 -8.620070190500717e-05 0.05022397667498486" free_energy=-11287.264360341758 pbc="T T T"
In      10.88937016       5.87811670       4.05875698        0      -0.00371837      -0.00200719      -0.00138593
In       8.25182591       4.45436192       3.07567431        1       0.00371837       0.00200719       0.00138593
In       4.50897148       2.43395717       1.68061322        2      -0.00371837      -0.00200719      -0.00138593
In       1.87142722       1.01020238       0.69753055        3       0.00371837       0.00200719       0.00138593
O        6.23876855       2.38030967       0.21813016        4      -0.00000000      -0.01271239       0.01841078
O        7.34749804       5.29917397       1.17767105        5       0.01062762      -0.01968795       0.00000000
O        8.46186854       2.24737501       2.60767476        6      -0.01062762       0.00697556       0.01841078
O        4.29892885       4.64094407       2.14861277        7       0.01062762      -0.00697556      -0.01841078
O        6.52202884       4.50800941       4.53815737        8       0.00000000       0.01271239      -0.01841078
O        5.41329934       1.58914512       3.57861648        9      -0.01062762       0.01968795       0.00000000
10
Lattice="6.0992663624800505 -0.014306989192796174 -0.009878774996210756 3.334839982305813 5.106867644930204 -0.00987877499620726 3.3348399823058132 1.8001572450428078 4.779082404201695" Properties=species:S:1:pos:R:3:spacegroup_kinds:I:1:forces:R:3 spacegroup="P 1" unit_cell=conventional occupancy="_JSON {\"0\": {\"In\": 1}, \"1\": {\"In\": 1}, \"2\": {\"In\": 1}, \"3\": {\"In\": 1}, \"4\": {\"O\": 1}, \"5\": {\"O\": 1}, \"6\": {\"O\": 1}, \"7\": {\"O\": 1}, \"8\": {\"O\": 1}, \"9\": {\"O\": 1}}" n_minim_iter=5 energy=-11287.264432581142 stress="0.049807272632033286 -1.3152162929612207e-05 -9.081382972500646e-06 -1.3152162929612207e-05 0.04982453779045744 -4.902159692853696e-06 -9.081382972500646e-06 -4.902159692853696e-06 0.04982825249558072" free_energy=-11287.264432581142 pbc="T T T"
In      10.89593926       5.88166272       4.06120546        0      -0.00400497      -0.00216190      -0.00149276
In       8.25748024       4.45741414       3.07778183        1       0.00400497       0.00216190       0.00149276
In       4.51146610       2.43530377       1.68154303        2      -0.00400497      -0.00216190      -0.00149276
In       1.87300707       1.01105519       0.69811940        3       0.00400497       0.00216190       0.00149276
O        6.24186977       2.38215070       0.22017311        4      -0.00000000      -0.01117878       0.01618973
O        7.35240617       5.30110171       1.17995244        5       0.00934552      -0.01731282       0.00000000
O        8.46617334       2.25058742       2.60971431        6      -0.00934552       0.00613404       0.01618973
O        4.30277299       4.64213049       2.14961055        7       0.00934552      -0.00613404      -0.01618973
O        6.52707657       4.51056721       4.53915175        8       0.00000000       0.01117878      -0.01618973
O        5.41654016       1.59161620       3.57937242        9      -0.00934552       0.01731282      -0.00000000
10
Lattice="6.100571075397806 -0.012956089345353465 -0.008945997634358509 3.3366852657937955 5.107217123176383 -0.00894599763435503 3.3366852657937964 1.8011533349474735 4.779078722740117" Properties=species:S:1:pos:R:3:spacegroup_kinds:I:1:forces:R:3 spacegroup="P 1" unit_cell=conventional occupancy="_JSON {\"0\": {\"In\": 1}, \"1\": {\"In\": 1}, \"2\": {\"In\": 1}, \"3\": {\"In\": 1}, \"4\": {\"O\": 1}, \"5\": {\"O\": 1}, \"6\": {\"O\": 1}, \"7\": {\"O\": 1}, \"8\": {\"O\": 1}, \"9\": {\"O\": 1}}" n_minim_iter=6 energy=-11287.264491296944 stress="0.04978317049333791 0.00011144006268685609 7.69477977009977e-05 0.00011144006268685609 0.049636880463220644 4.1536667396219246e-05 7.69477977009977e-05 4.1536667396219246e-05 0.04960540524628031" free_energy=-11287.264491296944 pbc="T T T"
In      10.89985796       5.88377805       4.06266606        0      -0.00352884      -0.00190488      -0.00131529
In       8.26105446       4.45934352       3.07911403        1       0.00352884       0.00190488       0.00131529
In       4.51288716       2.43607087       1.68207270        2      -0.00352884      -0.00190488      -0.00131529
In       1.87408366       1.01163633       0.69852067        3       0.00352884       0.00190488       0.00131529
O        6.24377094       2.38302955       0.22178669        4       0.00000000      -0.00744195       0.01077784
O        7.35562351       5.30189701       1.18135069        5       0.00622151      -0.01152551       0.00000000
O        8.46860364       2.25269333       2.61132605        6      -0.00622151       0.00408356       0.01077784
O        4.30533798       4.64272105       2.14986068        7       0.00622151      -0.00408356      -0.01077784
O        6.53017067       4.51238483       4.53940005        8      -0.00000000       0.00744195      -0.01077784
O        5.41831810       1.59351737       3.57983605        9      -0.00622151       0.01152551       0.00000000
10
Lattice="6.1008355346458565 -0.012682327213969311 -0.00875696872953571 3.3370592468672307 5.107287993164183 -0.008756968729532204 3.3370592468672324 1.80135521112217 4.779078021227876" Properties=species:S:1:pos:R:3:spacegroup_kinds:I:1:forces:R:3 spacegroup="P 1" unit_cell=conventional occupancy="_JSON {\"0\": {\"In\": 1}, \"1\": {\"In\": 1}, \"2\": {\"In\": 1}, \"3\": {\"In\": 1}, \"4\": {\"O\": 1}, \"5\": {\"O\": 1}, \"6\": {\"O\": 1}, \"7\": {\"O\": 1}, \"8\": {\"O\": 1}, \"9\": {\"O\": 1}}" n_minim_iter=7 energy=-11287.264534563385 stress="0.049760174609795406 0.00011658975037959226 8.050358405410091e-05 0.00011658975037959226 0.04960712446391303 4.345609099004325e-05 8.050358405410091e-05 4.345609099004325e-05 0.04957419476616773" free_energy=-11287.264534563385 pbc="T T T"
In      10.90038223       5.88406105       4.06286147        0      -0.00169833      -0.00091676      -0.00063301
In       8.26204882       4.45988027       3.07948466        1       0.00169833       0.00091676       0.00063301
In       4.51290522       2.43608061       1.68207943        2      -0.00169833      -0.00091676      -0.00063301
In       1.87457181       1.01189984       0.69870262        3       0.00169833       0.00091676       0.00063301
O        6.24415628       2.38281681       0.22267976        4       0.00000000      -0.00233368       0.00337976
O        7.35660235       5.30145288       1.18163405        5       0.00195097      -0.00361422      -0.00000000
O        8.46876945       2.25333459       2.61221877        6      -0.00195097       0.00128054       0.00337976
O        4.30618458       4.64262629       2.14934532        7       0.00195097      -0.00128054      -0.00337976
O        6.53079776       4.51314408       4.53888433        8      -0.00000000       0.00233368      -0.00337976
O        5.41835169       1.59450801       3.57993003        9      -0.00195097       0.00361422       0.00000000
