10
Lattice="5.930823563256874 0.004632813063293323 0.0031988923200462352 3.2582455077120875 4.955655941741097 0.0031988923200462352 3.2582455077120867 1.7588113036777913 4.633046389135463" Properties=species:S:1:pos:R:3:spacegroup_kinds:I:1:forces:R:3 spacegroup="P 1" unit_cell=conventional occupancy="_JSON {\"0\": {\"In\": 1}, \"1\": {\"In\": 1}, \"2\": {\"In\": 1}, \"3\": {\"In\": 1}, \"4\": {\"O\": 1}, \"5\": {\"O\": 1}, \"6\": {\"O\": 1}, \"7\": {\"O\": 1}, \"8\": {\"O\": 1}, \"9\": {\"O\": 1}}" n_minim_iter=1 energy=-11287.66427119859 stress="0.014702685623144791 0.0028176910023901503 0.0019455760436188085 0.0028176910023901503 0.011003835418103241 0.0010502281435199779 0.0019455760436188085 0.0010502281435199779 0.01020800461368303" free_energy=-11287.66427119859 pbc="T T T"
In      10.66927768       5.75931008       3.97672268        0      -0.03555620      -0.01919335      -0.01325274
In       8.00169420       4.31934002       2.98244359        1       0.03555620       0.01919335       0.01325274
In       4.44562039       2.39976005       1.65700059        2      -0.03555620      -0.01919335      -0.01325274
In       1.77803691       0.95978999       0.66272150        3       0.03555620       0.01919335       0.01325274
O        6.07724043       2.33307715       0.21866690        4      -0.00000000      -0.02500968       0.03622041
O        7.16213587       5.16811521       1.16305994        5       0.02090822      -0.03873304      -0.00000000
O        8.25059050       2.20428699       2.53519010        6      -0.02090822       0.01372336       0.03622041
O        4.19672409       4.51481308       2.10425408        7       0.02090822      -0.01372336      -0.03622041
O        6.37007416       4.38602292       4.42077727        8      -0.00000000       0.02500968      -0.03622041
O        5.28517871       1.55098486       3.47638424        9      -0.02090822       0.03873304       0.00000000
10
Lattice="5.9131984297247 -0.013572759494473164 -0.009371799706894337 3.233354262483773 4.950911037614894 -0.00937179970689434 3.2333542624837714 1.7453749302165051 4.63306316447105" Properties=species:S:1:pos:R:3:spacegroup_kinds:I:1:forces:R:3 spacegroup="P 1" unit_cell=conventional occupancy="_JSON {\"0\": {\"In\": 1}, \"1\": {\"In\": 1}, \"2\": {\"In\": 1}, \"3\": {\"In\": 1}, \"4\": {\"O\": 1}, \"5\": {\"O\": 1}, \"6\": {\"O\": 1}, \"7\": {\"O\": 1}, \"8\": {\"O\": 1}, \"9\": {\"O\": 1}}" n_minim_iter=2 energy=-11287.667107848409 stress="0.01035278787070699 -2.1923011010610196e-05 -1.5137530964371243e-05 -2.1923011010610196e-05 0.010381566731386871 -8.17128733554571e-06 -1.5137530964371243e-05 -8.17128733554571e-06 0.010387758682616996" free_energy=-11287.667107848409 pbc="T T T"
In      10.61121528       5.72796781       3.95508128        0       0.01692477       0.00913604       0.00630831
In       7.95864516       4.29610201       2.96639807        1      -0.01692477      -0.00913604      -0.00630831
In       4.42126181       2.38661121       1.64792150        2       0.01692477       0.00913604       0.00630831
In       1.76869168       0.95474541       0.65923829        3      -0.01692477      -0.00913604      -0.00630831
O        6.05157596       2.31644641       0.20382844        4      -0.00000000      -0.02121525       0.03072511
O        7.12271429       5.14997283       1.14420809        5       0.01773606      -0.03285653      -0.00000000
O        8.21379189       2.17850849       2.52036003        6      -0.01773606       0.01164127       0.03072511
O        4.16611507       4.50420473       2.09395954        7       0.01773606      -0.01164127      -0.03072511
O        6.32833101       4.36626681       4.41049113        8      -0.00000000       0.02121525      -0.03072511
O        5.25719267       1.53274039       3.47011148        9      -0.01773606       0.03285653      -0.00000000
10
Lattice="5.912294890676153 -0.01450849532052215 -0.010017912145847458 3.232076191053517 4.950669133155317 -0.010017912145847511 3.232076191053516 1.7446850231873627 4.633065874170831" Properties=species:S:1:pos:R:3:spacegroup_kinds:I:1:forces:R:3 spacegroup="P 1" unit_cell=conventional occupancy="_JSON {\"0\": {\"In\": 1}, \"1\": {\"In\": 1}, \"2\": {\"In\": 1}, \"3\": {\"In\": 1}, \"4\": {\"O\": 1}, \"5\": {\"O\": 1}, \"6\": {\"O\": 1}, \"7\": {\"O\": 1}, \"8\": {\"O\": 1}, \"9\": {\"O\": 1}}" n_minim_iter=3 energy=-11287.667466203533 stress="0.01013818284903272 -8.098125387153705e-06 -5.591641865824083e-06 -8.098125387153705e-06 0.010148813451872424 -3.0183856917213896e-06 -5.591641865824083e-06 -3.0183856917213896e-06 0.010151100691314101" free_energy=-11287.667466203533 pbc="T T T"
In      10.60940577       5.72699103       3.95440683        0       0.00201688       0.00108872       0.00075175
In       7.95526515       4.29427747       2.96513825        1      -0.00201688      -0.00108872      -0.00075175
In       4.42118213       2.38656820       1.64789181        2       0.00201688       0.00108872       0.00075175
In       1.76704151       0.95385464       0.65862322        3      -0.00201688      -0.00108872      -0.00075175
O        6.05025927       2.31406177       0.20528282        4      -0.00000000       0.00044365      -0.00064252
O        7.12197068       5.14667165       1.14323960        5      -0.00037090       0.00068709      -0.00000000
O        8.21062405       2.17802437       2.52181575        6       0.00037090      -0.00024344      -0.00064252
O        4.16582323       4.50282130       2.09121430        7      -0.00037090       0.00024344       0.00064252
O        6.32618801       4.36678391       4.40774724        8      -0.00000000      -0.00044365       0.00064252
O        5.25447661       1.53417402       3.46979045        9       0.00037090      -0.00068709      -0.00000000
