10
Lattice="5.800937263492031 0.02347444711912078 0.01620877587348055 3.2027257575648727 4.836731531361698 0.016208775873485213 3.202725757564871 1.7288415656991147 4.517227188397197" Properties=species:S:1:pos:R:3:spacegroup_kinds:I:1:forces:R:3 spacegroup="P 1" unit_cell=conventional occupancy="_JSON {\"0\": {\"In\": 1}, \"1\": {\"In\": 1}, \"2\": {\"In\": 1}, \"3\": {\"In\": 1}, \"4\": {\"O\": 1}, \"5\": {\"O\": 1}, \"6\": {\"O\": 1}, \"7\": {\"O\": 1}, \"8\": {\"O\": 1}, \"9\": {\"O\": 1}}" n_minim_iter=1 energy=-11287.595876834328 stress="-0.031547988716391175 -0.0012467007029645523 -0.0008608293166069636 -0.0012467007029645523 -0.029911414956448782 -0.000464678407155193 -0.0008608293166069636 -0.000464678407155193 -0.02955929585622106" free_energy=-11287.595876834328 pbc="T T T"
In      10.45940149       5.64601824       3.89849626        0       0.00278392       0.00150277       0.00103764
In       7.85018169       4.23755309       2.92597086        1      -0.00278392      -0.00150277      -0.00103764
In       4.35620710       2.35149447       1.62367389        2       0.00278392       0.00150277       0.00103764
In       1.74698730       0.94302931       0.65114849        3      -0.00278392      -0.00150277      -0.00103764
O        5.95206583       2.29372706       0.22626741        4       0.00000000       0.02321327      -0.03361874
O        7.02279299       5.06038191       1.15361996        5      -0.01940641       0.03595089      -0.00000000
O        8.08406443       2.17513081       2.48488100        6       0.01940641      -0.01273763      -0.03361874
O        4.12232436       4.41391674       2.06476374        7      -0.01940641       0.01273763       0.03361874
O        6.25432296       4.29532050       4.32337733        8       0.00000000      -0.02321327       0.03361874
O        5.18359580       1.52866565       3.39602478        9       0.01940641      -0.03595089      -0.00000000
10
Lattice="5.813676555275089 0.03650888095377734 0.025208869276810673 3.2206129369365586 4.84022936421205 0.025208869276815312 3.2206129369365577 1.738497122100672 4.51730932544125" Properties=species:S:1:pos:R:3:spacegroup_kinds:I:1:forces:R:3 spacegroup="P 1" unit_cell=conventional occupancy="_JSON {\"0\": {\"In\": 1}, \"1\": {\"In\": 1}, \"2\": {\"In\": 1}, \"3\": {\"In\": 1}, \"4\": {\"O\": 1}, \"5\": {\"O\": 1}, \"6\": {\"O\": 1}, \"7\": {\"O\": 1}, \"8\": {\"O\": 1}, \"9\": {\"O\": 1}}" n_minim_iter=2 energy=-11287.596518908284 stress="-0.029747054203033637 0.00045241619647701887 0.00031238702648069005 0.00045241619647701887 -0.030340951738759864 0.00016862751217238927 0.00031238702648069005 0.00016862751217238927 -0.030468732515036262" free_energy=-11287.596518908284 pbc="T T T"
In      10.50101176       5.66847960       3.91400551        0      -0.04089214      -0.02207370      -0.01524158
In       7.88134190       4.25437346       2.93758509        1       0.04089214       0.02207370       0.01524158
In       4.37356054       2.36086191       1.63014198        2      -0.04089214      -0.02207370      -0.01524158
In       1.75389068       0.94675578       0.65372156        3       0.04089214       0.02207370       0.01524158
O        5.97056389       2.30586459       0.23663005        4       0.00000000       0.01900548      -0.02752479
O        7.05100931       5.07375989       1.16714064        5      -0.01588867       0.02943420      -0.00000000
O        8.11073141       2.19353123       2.49528471        6       0.01588867      -0.01042872      -0.02752479
O        4.14417103       4.42170415       2.07244236        7      -0.01588867       0.01042872       0.02752479
O        6.28433855       4.30937079       4.33109702        8      -0.00000000      -0.01900548       0.02752479
O        5.20389313       1.54147548       3.40058643        9       0.01588867      -0.02943420      -0.00000000
10
Lattice="5.809438447648357 0.032177743661851096 0.02221827983775589 3.2146665423275294 4.839062874756025 0.022218279837760535 3.214666542327529 1.7352872393494387 4.517278091367852" Properties=species:S:1:pos:R:3:spacegroup_kinds:I:1:forces:R:3 spacegroup="P 1" unit_cell=conventional occupancy="_JSON {\"0\": {\"In\": 1}, \"1\": {\"In\": 1}, \"2\": {\"In\": 1}, \"3\": {\"In\": 1}, \"4\": {\"O\": 1}, \"5\": {\"O\": 1}, \"6\": {\"O\": 1}, \"7\": {\"O\": 1}, \"8\": {\"O\": 1}, \"9\": {\"O\": 1}}" n_minim_iter=3 energy=-11287.596801571568 stress="-0.030438279764217636 -0.000279669990502922 -0.00019310819754204934 -0.000279669990502922 -0.030071150292453067 -0.0001042404211145159 -0.00019310819754204934 -0.0001042404211145159 -0.029992160086146774" free_energy=-11287.596801571568 pbc="T T T"
In      10.48632872       5.66055365       3.90853275        0      -0.00794268      -0.00428748      -0.00296045
In       7.87182859       4.24923815       2.93403923        1       0.00794268       0.00428748       0.00296045
In       4.36694295       2.35728972       1.62767542        2      -0.00794268      -0.00428748      -0.00296045
In       1.75244282       0.94597422       0.65318191        3       0.00794268       0.00428748       0.00296045
O        5.96441211       2.30240714       0.23234994        4      -0.00000000       0.00950578      -0.01376679
O        7.04114447       5.07020482       1.16264694        5      -0.00794688       0.01472180       0.00000000
O        8.10234630       2.18709822       2.49098899        6       0.00794688      -0.00521603      -0.01376679
O        4.13642525       4.41942965       2.07072567        7      -0.00794688       0.00521603       0.01376679
O        6.27435943       4.30412073       4.32936471        8      -0.00000000      -0.00950578       0.01376679
O        5.19762707       1.53632305       3.39906771        9       0.00794688      -0.01472180      -0.00000000
10
Lattice="5.812790469196783 0.03560376791433026 0.02458390144169562 3.219370043134618 4.839985247130616 0.024583901441700258 3.219370043134618 1.7378262040673473 4.517302474387675" Properties=species:S:1:pos:R:3:spacegroup_kinds:I:1:forces:R:3 spacegroup="P 1" unit_cell=conventional occupancy="_JSON {\"0\": {\"In\": 1}, \"1\": {\"In\": 1}, \"2\": {\"In\": 1}, \"3\": {\"In\": 1}, \"4\": {\"O\": 1}, \"5\": {\"O\": 1}, \"6\": {\"O\": 1}, \"7\": {\"O\": 1}, \"8\": {\"O\": 1}, \"9\": {\"O\": 1}}" n_minim_iter=4 energy=-11287.596919962265 stress="-0.030074418934174448 -2.473529121775863e-06 -1.7079373134982097e-06 -2.473529121775863e-06 -0.03007117187252715 -9.21949938225568e-07 -1.7079373134982097e-06 -9.21949938225568e-07 -0.030070473247288333" free_energy=-11287.596919962265 pbc="T T T"
In      10.49647241       5.66602924       3.91231357        0      -0.00240639      -0.00129898      -0.00089692
In       7.88082343       4.25409360       2.93739185        1       0.00240639       0.00129898       0.00089692
In       4.37070713       2.35932164       1.62907843        2      -0.00240639      -0.00129898      -0.00089692
In       1.75505815       0.94738599       0.65415671        3       0.00240639       0.00129898       0.00089692
O        5.96927788       2.30609800       0.23435091        4      -0.00000000      -0.00107622       0.00155863
O        7.04814797       5.07449733       1.16620147        5       0.00089972      -0.00166676       0.00000000
O        8.10977783       2.19166208       2.49300214        6      -0.00089972       0.00059054       0.00155863
O        4.14175273       4.42175315       2.07346814        7       0.00089972      -0.00059054      -0.00155863
O        6.28225269       4.30731723       4.33211938        8       0.00000000       0.00107622      -0.00155863
O        5.20338260       1.53891790       3.40026881        9      -0.00089972       0.00166676       0.00000000
