10
Lattice="6.313521915337939 0.06900680820744132 0.04764823138549087 3.522057434742446 5.240270254615391 0.047648231385495086 3.522057434742453 1.9012178222190683 4.883448933677666" Properties=species:S:1:pos:R:3:spacegroup_kinds:I:1:forces:R:3 spacegroup="P 1" unit_cell=conventional occupancy="_JSON {\"0\": {\"In\": 1}, \"1\": {\"In\": 1}, \"2\": {\"In\": 1}, \"3\": {\"In\": 1}, \"4\": {\"O\": 1}, \"5\": {\"O\": 1}, \"6\": {\"O\": 1}, \"7\": {\"O\": 1}, \"8\": {\"O\": 1}, \"9\": {\"O\": 1}}" n_minim_iter=5 energy=-11286.654503714293 stress="0.07632961223767047 2.7606712138535305e-05 1.9062046426374563e-05 2.7606712138535305e-05 0.0762933722501334 1.0289753117286139e-05 1.9062046426374563e-05 1.0289753117286139e-05 0.07628557498890899" free_energy=-11286.654503714293 pbc="T T T"
In      11.35490649       6.12941469       4.23227471        0      -0.00795307      -0.00429309      -0.00296432
In       8.68154870       4.68632765       3.23584339        1       0.00795307       0.00429309       0.00296432
In       4.67608809       2.52416725       1.74290202        2      -0.00795307      -0.00429309      -0.00296432
In       2.00273031       1.08108020       0.74647069        3       0.00795307       0.00429309       0.00296432
O        6.49617016       2.51923283       0.28064721        4       0.00000000      -0.00214526       0.00310688
O        7.68695511       5.51365425       1.29233458        5       0.00179345      -0.00332241       0.00000000
O        8.82744264       2.41344975       2.72237168        6      -0.00179345       0.00117715       0.00310688
O        4.53019416       4.79704515       2.25637372        7       0.00179345      -0.00117715      -0.00310688
O        6.86146664       4.69126207       4.69809819        8       0.00000000       0.00214526      -0.00310688
O        5.67068168       1.69684064       3.68641082        9      -0.00179345       0.00332241       0.00000000
