10
Lattice="5.4453397670286074 -0.1287765843090613 -0.08891842190044096 2.880319021601031 4.6229937184526735 -0.08891842190043012 2.8803190216010313 1.5548053826512458 4.354601890952229" Properties=species:S:1:pos:R:3:spacegroup_kinds:I:1:forces:R:3 spacegroup="P 1" unit_cell=conventional occupancy="_JSON {\"0\": {\"In\": 1}, \"1\": {\"In\": 1}, \"2\": {\"In\": 1}, \"3\": {\"In\": 1}, \"4\": {\"O\": 1}, \"5\": {\"O\": 1}, \"6\": {\"O\": 1}, \"7\": {\"O\": 1}, \"8\": {\"O\": 1}, \"9\": {\"O\": 1}}" n_minim_iter=7 energy=-11286.976546536367 stress="-0.07945223337062204 -8.902955089393518e-05 -6.147365212252865e-05 -8.902955089393518e-05 -0.0793353621581342 -3.318367473397392e-05 -6.147365212252865e-05 -3.318367473397392e-05 -0.07931021658484157" free_energy=-11286.976546536367 pbc="T T T"
In       9.67905217       5.22478319       3.60763937        0       0.00249233       0.00134537       0.00092896
In       7.12991456       3.84875059       2.65750820        1      -0.00249233      -0.00134537      -0.00092896
In       4.07606326       2.20027194       1.51925685        2       0.00249233       0.00134537       0.00092896
In       1.52692565       0.82423933       0.56912568        3      -0.00249233      -0.00134537      -0.00092896
O        5.52416434       2.10286653       0.05112595        4      -0.00000000      -0.00030892       0.00044739
O        6.41674127       4.77377575       0.95527284        5       0.00025826      -0.00047843      -0.00000000
O        7.51190644       1.86585767       2.22842689        6      -0.00025826       0.00016951       0.00044739
O        3.69407138       4.18316486       1.94833816        7       0.00025826      -0.00016951      -0.00044739
O        5.68181348       3.94615600       4.12563910        8       0.00000000       0.00030892      -0.00044739
O        4.78923655       1.27524678       3.22149221        9      -0.00025826       0.00047843       0.00000000
