10
Lattice="5.0567809527114 -0.3071933676807557 -0.212112703710939 2.517950991387386 4.396057799190447 -0.21211270371092447 2.5179509913873903 1.3591979656770907 4.186035936658686" Properties=species:S:1:pos:R:3:spacegroup_kinds:I:1:forces:R:3 spacegroup="P 1" unit_cell=conventional occupancy="_JSON {\"0\": {\"In\": 1}, \"1\": {\"In\": 1}, \"2\": {\"In\": 1}, \"3\": {\"In\": 1}, \"4\": {\"O\": 1}, \"5\": {\"O\": 1}, \"6\": {\"O\": 1}, \"7\": {\"O\": 1}, \"8\": {\"O\": 1}, \"9\": {\"O\": 1}}" n_minim_iter=6 energy=-11283.321178859123 stress="-0.4755395418728665 0.0002291947484924759 0.00015825575398598616 0.0002291947484924759 -0.4758404112855508 8.542696038189407e-05 0.00015825575398598616 8.542696038189407e-05 -0.4759051452248496" free_energy=-11283.321178859123 pbc="T T T"
In       8.75272865       4.72475081       3.26237404        0      -0.00317554      -0.00171417      -0.00118361
In       6.38629575       3.44734279       2.38034175        1       0.00317554       0.00171417       0.00118361
In       3.70638718       2.00071961       1.38146877        2      -0.00317554      -0.00171417      -0.00118361
In       1.33995428       0.72331159       0.49943649        3       0.00317554       0.00171417       0.00118361
O        5.05156120       1.84955600      -0.09413396        4       0.00000000       0.00210776      -0.00305258
O        5.77454290       4.39939082       0.72833993        5      -0.00176210       0.00326434      -0.00000000
O        6.84653050       1.53621197       1.99888401        6       0.00176210      -0.00115658      -0.00305258
O        3.24615242       3.91185042       1.76292652        7      -0.00176210       0.00115658       0.00305258
O        5.04112172       3.59850640       3.85594449        8      -0.00000000      -0.00210776       0.00305258
O        4.31814002       1.04867157       3.03347060        9       0.00176210      -0.00326434       0.00000000
