10
Lattice="5.950785831398037 -0.024157502897765377 -0.016680416290348846 3.2451303926535107 4.988142372746632 -0.016680416290351042 3.2451303926535053 1.7517317227930849 4.6704687707379335" Properties=species:S:1:pos:R:3:spacegroup_kinds:I:1:forces:R:3 spacegroup="P 1" unit_cell=conventional occupancy="_JSON {\"0\": {\"In\": 1}, \"1\": {\"In\": 1}, \"2\": {\"In\": 1}, \"3\": {\"In\": 1}, \"4\": {\"O\": 1}, \"5\": {\"O\": 1}, \"6\": {\"O\": 1}, \"7\": {\"O\": 1}, \"8\": {\"O\": 1}, \"9\": {\"O\": 1}}" n_minim_iter=6 energy=-11287.61846225017 stress="0.019449250724037526 -5.571331700546948e-06 -3.846925811406944e-06 -5.571331700546948e-06 0.019456564342224994 -2.076581567410821e-06 -3.846925811406944e-06 -2.076581567410821e-06 0.01945813791499247" free_energy=-11287.61846225017 pbc="T T T"
In      10.65795496       5.75319804       3.97250240        0      -0.00135196      -0.00072979      -0.00050391
In       8.00361497       4.32037686       2.98315951        1       0.00135196       0.00072979       0.00050391
In       4.43743165       2.39533974       1.65394843        2      -0.00135196      -0.00072979      -0.00050391
In       1.78309167       0.96251856       0.66460554        3       0.00135196       0.00072979       0.00050391
O        6.08565457       2.32089583       0.20371196        4       0.00000000       0.00330192      -0.00478203
O        7.16143453       5.17385603       1.14259657        5      -0.00276042       0.00511376       0.00000000
O        8.25500501       2.18382725       2.53894635        6       0.00276042      -0.00181184      -0.00478203
O        4.18604162       4.53188935       2.09816160        7      -0.00276042       0.00181184       0.00478203
O        6.35539205       4.39482078       4.43339598        8      -0.00000000      -0.00330192       0.00478203
O        5.27961209       1.54186058       3.49451137        9       0.00276042      -0.00511376       0.00000000
