320
Lattice="17.82335318415201 1.3969445330313008e-09 -1.1638513311060052e-15 -5.941117729367724 16.804018532863342 -2.4195810530702495e-09 -5.9411177273921485 -8.402009265034724 14.552706936737213" Properties=species:S:1:pos:R:3:spacegroup_kinds:I:1:forces:R:3 spacegroup="P 1" unit_cell=conventional occupancy="_JSON {\"0\": {\"In\": 1}, \"1\": {\"In\": 1}, \"2\": {\"In\": 1}, \"3\": {\"In\": 1}, \"4\": {\"In\": 1}, \"5\": {\"In\": 1}, \"6\": {\"In\": 1}, \"7\": {\"In\": 1}, \"8\": {\"In\": 1}, \"9\": {\"In\": 1}, \"10\": {\"In\": 1}, \"11\": {\"In\": 1}, \"12\": {\"In\": 1}, \"13\": {\"In\": 1}, \"14\": {\"In\": 1}, \"15\": {\"In\": 1}, \"16\": {\"O\": 1}, \"17\": {\"O\": 1}, \"18\": {\"O\": 1}, \"19\": {\"O\": 1}, \"20\": {\"O\": 1}, \"21\": {\"O\": 1}, \"22\": {\"O\": 1}, \"23\": {\"O\": 1}, \"24\": {\"O\": 1}, \"25\": {\"O\": 1}, \"26\": {\"O\": 1}, \"27\": {\"O\": 1}, \"28\": {\"O\": 1}, \"29\": {\"O\": 1}, \"30\": {\"O\": 1}, \"31\": {\"O\": 1}, \"32\": {\"O\": 1}, \"33\": {\"O\": 1}, \"34\": {\"O\": 1}, \"35\": {\"O\": 1}, \"36\": {\"O\": 1}, \"37\": {\"O\": 1}, \"38\": {\"O\": 1}, \"39\": {\"O\": 1}}" n_minim_iter=5 energy=-361215.27344352636 stress="8.163085584703779e-05 -7.70878956500023e-06 -8.128304102237785e-06 -7.70878956500023e-06 8.863164201065148e-05 3.6460213950641917e-06 -8.128304102237785e-06 3.6460213950641917e-06 7.574244926979309e-05" free_energy=-45151.90924097551 pbc="T T T"
In      -4.25567210       3.00921460       5.70241762        0       0.00567655      -0.00387599       0.00663537
In       4.65600449       3.00921460       5.70241762        0       0.00602159      -0.00351088       0.00770270
In      -7.22623096      11.41122387       5.70241762        0       0.00545266      -0.00386099       0.00670804
In       1.68544563      11.41122387       5.70241762        0       0.00539770      -0.00403285       0.00675283
In      -7.22623096      -1.19179003      12.97877109        0       0.00553888      -0.00387951       0.00657101
In       1.68544563      -1.19179003      12.97877109        0       0.00547972      -0.00387464       0.00669498
In     -10.19678983       7.21021923      12.97877109        0       0.00546934      -0.00393997       0.00664954
In      -1.28511324       7.21021923      12.97877109        0       0.00547598      -0.00386331       0.00671362
In       7.22623096       1.19179004       1.57393584        1      -0.00533104       0.00388411      -0.00681187
In      16.13790755       1.19179004       1.57393584        1      -0.00579380       0.00429488      -0.00725930
In       4.25567210       9.59379931       1.57393584        1      -0.00542466       0.00384205      -0.00671309
In      13.16734869       9.59379931       1.57393584        1      -0.00540591       0.00378060      -0.00658612
In       4.25567210      -3.00921459       8.85028931        1      -0.00548497       0.00387093      -0.00670522
In      13.16734869      -3.00921459       8.85028931        1      -0.00550254       0.00384165      -0.00667281
In       1.28511323       5.39279467       8.85028931        1      -0.00533180       0.00396242      -0.00679260
In      10.19678982       5.39279467       8.85028931        1      -0.00547138       0.00387781      -0.00669706
In       1.28511323      -0.90871228       5.21211257        2      -0.00550369       0.00324120      -0.00686691
In      10.19678982      -0.90871228       5.21211257        2      -0.00545359       0.00387269      -0.00669801
In      -1.68544563       7.49329699       5.21211257        2      -0.00502843       0.00319558      -0.00641759
In       7.22623096       7.49329699       5.21211257        2      -0.00554903       0.00390411      -0.00668317
In      -1.68544563      -5.10971691      12.48846604        2      -0.00541592       0.00380954      -0.00674750
In       7.22623096      -5.10971691      12.48846604        2      -0.00550786       0.00386974      -0.00673686
In      -4.65600450       3.29229235      12.48846604        2      -0.00545246       0.00388235      -0.00671300
In       4.25567209       3.29229235      12.48846604        2      -0.00549421       0.00387155      -0.00669501
In      -1.48527943      -2.10050231       3.63817673        3       0.00002118       0.00012356       0.00001431
In       7.42639716      -2.10050231       3.63817673        3      -0.00001228       0.00001561      -0.00000703
In      -4.45583829       6.30150696       3.63817673        3       0.00041724      -0.00015638       0.00002585
In       4.45583830       6.30150696       3.63817673        3      -0.00126272       0.00019518       0.00004225
In      -4.45583829      -6.30150694      10.91453020        3       0.00002381      -0.00000680       0.00003971
In       4.45583830      -6.30150694      10.91453020        3       0.00000227      -0.00000084      -0.00000329
In      -7.42639716       2.10050232      10.91453020        3      -0.00000809       0.00001336      -0.00004160
In       1.48527943       2.10050232      10.91453020        3       0.00000460       0.00005313       0.00005284
In      -1.28511324       4.05946576       3.39302421        4      -0.00213366      -0.00082414      -0.00684485
In       7.62656335       4.05946576       3.39302421        4       0.00549260      -0.00395055      -0.00670602
In      -4.25567210      12.46147503       3.39302421        4       0.00548997      -0.00383986      -0.00669586
In       4.65600449      12.46147503       3.39302421        4       0.00558971      -0.00380487      -0.00670755
In      -4.25567210      -0.14153887      10.66937768        4       0.00546362      -0.00383789      -0.00669214
In       4.65600449      -0.14153887      10.66937768        4       0.00546824      -0.00387336      -0.00667650
In      -7.22623097       8.26047039      10.66937768        4       0.00547023      -0.00385418      -0.00668380
In       1.68544562       8.26047039      10.66937768        4       0.00545922      -0.00389283      -0.00688977
In       4.65600449      -2.86767572       5.45726510        5       0.00560975       0.00754059       0.00008131
In      13.56768108      -2.86767572       5.45726510        5       0.00549656       0.00776855       0.00004204
In       1.68544563       5.53433355       5.45726510        5       0.01249237       0.02392684       0.01597659
In      10.59712222       5.53433355       5.45726510        5       0.00552329       0.00773983      -0.00001835
In       1.68544563      -7.06868035      12.73361857        5       0.00538976       0.00776652       0.00007504
In      10.59712222      -7.06868035      12.73361857        5       0.00543744       0.00765066      -0.00006130
In      -1.28511324       1.33332891      12.73361857        5       0.00545294       0.00774375      -0.00002481
In       7.62656335       1.33332891      12.73361857        5       0.00537777       0.00782518      -0.00009863
In      -1.28511323       1.33332891       5.45726510        6       0.00404764       0.00760996       0.00088013
In       7.62656336       1.33332891       5.45726510        6       0.00558834       0.00776348       0.00006528
In      -4.25567209       9.73533818       5.45726510        6       0.00565881       0.00757538      -0.00010726
In       4.65600450       9.73533818       5.45726510        6       0.00546009       0.00773651       0.00003664
In      -4.25567209      -2.86767572      12.73361857        6       0.00548955       0.00783698       0.00016026
In       4.65600450      -2.86767572      12.73361857        6       0.00550464       0.00774396       0.00001424
In      -7.22623096       5.53433354      12.73361857        6       0.00544646       0.00770577      -0.00001705
In       1.68544563       5.53433354      12.73361857        6       0.00546334       0.00772687      -0.00003646
In      -1.68544563       7.06868036       1.81908836        7      -0.00518029      -0.00767561       0.00010907
In       7.22623096       7.06868036       1.81908836        7      -0.00552514      -0.00771262      -0.00002469
In      -4.65600449      15.47068963       1.81908836        7      -0.00568558      -0.00879349      -0.00055332
In       4.25567210      15.47068963       1.81908836        7      -0.00545586      -0.00774845      -0.00000066
In      -4.65600449       2.86767573       9.09544183        7      -0.00548966      -0.00773457      -0.00000159
In       4.25567210       2.86767573       9.09544183        7      -0.00544945      -0.00764960       0.00007992
In      -7.62656336      11.26968499       9.09544183        7      -0.00547091      -0.00773703      -0.00003907
In       1.28511323      11.26968499       9.09544183        7      -0.00550530      -0.00773297       0.00001705
In       4.25567210       0.14153888       3.88332926        8      -0.00516020       0.00333575       0.00654557
In      13.16734869       0.14153888       3.88332926        8      -0.00547562       0.00381182       0.00675252
In       1.28511324       8.54354815       3.88332926        8      -0.00527256       0.00365369       0.00680784
In      10.19678983       8.54354815       3.88332926        8      -0.00549967       0.00386795       0.00670922
In       1.28511324      -4.05946575      11.15968273        8      -0.00544878       0.00388739       0.00668117
In      10.19678983      -4.05946575      11.15968273        8      -0.00546798       0.00389578       0.00668837
In      -1.68544563       4.34254351      11.15968273        8      -0.00547820       0.00390071       0.00671177
In       7.22623096       4.34254351      11.15968273        8      -0.00547600       0.00386196       0.00667417
In      -1.48527943       4.20100463       0.00000000        9       0.00067787       0.00029024       0.00097272
In       7.42639716       4.20100463      -0.00000000        9       0.00001107      -0.00001505      -0.00003194
In      -4.45583829      12.60301390      -0.00000000        9      -0.00000957       0.00000743      -0.00001748
In       4.45583830      12.60301390      -0.00000000        9       0.00004708       0.00002369      -0.00002443
In      -4.45583829      -0.00000000       7.27635347        9      -0.00003005      -0.00002120      -0.00000037
In       4.45583830      -0.00000000       7.27635347        9       0.00000370       0.00013710      -0.00000481
In      -7.42639716       8.40200926       7.27635347        9      -0.00000781       0.00000055       0.00000585
In       1.48527943       8.40200926       7.27635347        9      -0.00018297      -0.00002981       0.00003848
In       4.25567210       6.44304583       0.24515252       10      -0.00560450       0.00393170       0.00664187
In      13.16734869       6.44304583       0.24515252       10      -0.00559179       0.00379388       0.00674599
In       1.28511324      14.84505510       0.24515252       10      -0.00544212       0.00386118       0.00671989
In      10.19678983      14.84505510       0.24515252       10      -0.00549617       0.00385046       0.00665781
In       1.28511324       2.24204120       7.52150599       10      -0.00552273       0.00456486       0.00832161
In      10.19678983       2.24204120       7.52150599       10      -0.00546549       0.00386529       0.00670538
In      -1.68544563      10.64405046       7.52150599       10      -0.00532267       0.00373144       0.00662100
In       7.22623096      10.64405046       7.52150599       10      -0.00552488       0.00387367       0.00669497
In      -1.28511323      -2.24204119       7.03120094       11       0.00534849      -0.00397702      -0.00661695
In       7.62656336      -2.24204119       7.03120094       11       0.00548399      -0.00389544      -0.00670551
In      -4.25567209       6.15996808       7.03120094       11       0.00542147      -0.00385707      -0.00662168
In       4.65600450       6.15996808       7.03120094       11       0.00540817      -0.00371079      -0.00648945
In      -4.25567209      -6.44304582      14.30755441       11       0.00564818      -0.00442416      -0.00758215
In       4.65600450      -6.44304582      14.30755441       11       0.00547467      -0.00386621      -0.00670285
In      -7.22623096       1.95896344      14.30755441       11       0.00550975      -0.00388506      -0.00665047
In       1.68544563       1.95896344      14.30755441       11       0.00548138      -0.00386365      -0.00670180
In       4.25567210       2.86767572       1.81908836       12      -0.00477653      -0.00759186      -0.00074117
In      13.16734869       2.86767572       1.81908836       12      -0.00528221      -0.00767645       0.00003272
In       1.28511324      11.26968499       1.81908836       12      -0.00554244      -0.00774428      -0.00000800
In      10.19678983      11.26968499       1.81908836       12      -0.00547360      -0.00773292      -0.00000636
In       1.28511324      -1.33332891       9.09544183       12      -0.00546259      -0.00783361       0.00015172
In      10.19678983      -1.33332891       9.09544183       12      -0.00548047      -0.00774142       0.00001767
In      -1.68544563       7.06868035       9.09544183       12      -0.00553263      -0.00769310       0.00002883
In       7.22623096       7.06868035       9.09544183       12      -0.00547024      -0.00775048       0.00000900
In       1.68544563       5.10971692       2.06424089       13       0.00664371       0.00144110       0.00260422
In      10.59712222       5.10971692       2.06424089       13       0.00554707      -0.00385729       0.00669878
In      -1.28511323      13.51172619       2.06424089       13       0.00546888      -0.00383983       0.00669345
In       7.62656336      13.51172619       2.06424089       13       0.00549090      -0.00386065       0.00664394
In      -1.28511323       0.90871229       9.34059436       13       0.00555470      -0.00396439       0.00667836
In       7.62656336       0.90871229       9.34059436       13       0.00543958      -0.00383280       0.00665077
In      -4.25567210       9.31072155       9.34059436       13       0.00546441      -0.00387420       0.00674649
In       4.65600449       9.31072155       9.34059436       13       0.00545498      -0.00386375       0.00671093
In       1.48527943       8.40200927      -0.00000000       14      -0.00007681      -0.00018729       0.00012486
In      10.39695602       8.40200927      -0.00000000       14       0.00002244      -0.00001148      -0.00000694
In      -1.48527944      16.80401853      -0.00000000       14      -0.00002795       0.00013500       0.00005189
In       7.42639715      16.80401853      -0.00000000       14       0.00003613      -0.00003281       0.00000739
In      -1.48527944       4.20100463       7.27635347       14       0.00029224      -0.00002165      -0.00059270
In       7.42639715       4.20100463       7.27635347       14      -0.00002865       0.00001570       0.00002733
In      -4.45583830      12.60301390       7.27635347       14      -0.00001035       0.00000272      -0.00000399
In       4.45583829      12.60301390       7.27635347       14       0.00003188       0.00001156       0.00001963
In       1.48527943       2.10050232       3.63817673       15      -0.00830954       0.02781287       0.00371204
In      10.39695602       2.10050232       3.63817673       15       0.00002281      -0.00001444       0.00000366
In      -1.48527943      10.50251159       3.63817673       15      -0.00005165       0.00001978      -0.00011074
In       7.42639716      10.50251159       3.63817673       15      -0.00005272       0.00000015       0.00001085
In      -1.48527943      -2.10050231      10.91453020       15       0.00001700      -0.00000903      -0.00001198
In       7.42639716      -2.10050231      10.91453020       15      -0.00000626      -0.00000246      -0.00002194
In      -4.45583830       6.30150695      10.91453020       15       0.00000340       0.00000484      -0.00000575
In       4.45583829       6.30150695      10.91453020       15       0.00002157      -0.00003201       0.00001015
O        0.87115136       4.21094541       3.95970891       16       0.00612989      -0.09136573      -0.01843457
O        9.78616128       4.20151732       3.95970891       16       0.00047959      -0.00848476      -0.00358253
O       -2.09607417      12.60352659       3.95970891       16       0.00046628      -0.00841589      -0.00356377
O        6.81560242      12.60352659       3.95970891       16       0.00043342      -0.00854590      -0.00358085
O       -2.09607417       0.00051269      11.23606238       16       0.00047563      -0.00848885      -0.00356738
O        6.81560242       0.00051269      11.23606238       16       0.00049009      -0.00847582      -0.00357726
O       -5.06663304       8.40252195      11.23606238       16       0.00048352      -0.00847881      -0.00359370
O        3.84504355       8.40252195      11.23606238       16       0.00051449      -0.00848526      -0.00355293
O       -2.09607417       3.42895217       5.29605501       17      -0.00000796       0.00076969       0.00952817
O        6.81560242       3.42895217       5.29605501       17       0.00029576       0.00092999       0.00908618
O       -5.06663303      11.83096144       5.29605501       17       0.00047684       0.00127185       0.00912213
O        3.84504356      11.83096144       5.29605501       17       0.00049822       0.00119195       0.00917482
O       -5.06663303      -0.77205246      12.57240848       17       0.00047036       0.00105238       0.00909738
O        3.84504356      -0.77205246      12.57240848       17       0.00048648       0.00113298       0.00914429
O       -8.03719190       7.62995680      12.57240848       17       0.00044203       0.00118139       0.00920955
O        0.87448469       7.62995680      12.57240848       17       0.00048901       0.00117846       0.00919653
O       -0.43591979       2.25504574       0.05296711       18      -0.00650238       0.00652318       0.00131430
O        8.47575680       2.25504574       0.05296711       18      -0.00684116       0.00626744       0.00029967
O       -3.40647865      10.65705501       0.05296711       18      -0.00677693       0.00633168       0.00028145
O        5.50519794      10.65705501       0.05296711       18      -0.00670397       0.00632245       0.00021881
O       -3.40647865      -1.94595889       7.32932058       18      -0.00672254       0.00632535       0.00024076
O        5.50519794      -1.94595889       7.32932058       18      -0.00681694       0.00630118       0.00014719
O       -6.37703752       6.45605037       7.32932058       18      -0.00680636       0.00626617       0.00030289
O        2.53463907       6.45605037       7.32932058       18      -0.00704557       0.00574192      -0.00038881
O       -0.87448470      -0.77153978       1.97941046       19      -0.00075800      -0.00742552       0.00547469
O        8.03719189      -0.77153978       1.97941046       19      -0.00052697      -0.00733407       0.00558316
O       -3.84504356       7.63046949       1.97941046       19      -0.00030784      -0.00729772       0.00561602
O        5.06663303       7.63046949       1.97941046       19      -0.00045086      -0.00734299       0.00560895
O       -3.84504356      -4.97254441       9.25576393       19      -0.00049122      -0.00735013       0.00557159
O        5.06663303      -4.97254441       9.25576393       19      -0.00050436      -0.00732521       0.00555591
O       -6.81560243       3.42946485       9.25576393       19      -0.00048890      -0.00734350       0.00556022
O        2.09607416       3.42946485       9.25576393       19      -0.00047627      -0.00711612       0.00549948
O        3.93153849       5.00312500       1.92644334       20       0.00057393       0.00743802       0.00574046
O       12.84321508       5.00312500       1.92644334       20       0.00084432       0.00733461       0.00514261
O        0.96097963      13.40513427       1.92644334       20       0.00089447       0.00768067       0.00528807
O        9.87265622      13.40513427       1.92644334       20       0.00095498       0.00752607       0.00536721
O        0.96097963       0.80212037       9.20279681       20       0.00093778       0.00748505       0.00502260
O        9.87265622       0.80212037       9.20279681       20       0.00091485       0.00749684       0.00529645
O       -2.00957924       9.20412963       9.20279681       20       0.00093477       0.00741398       0.00523749
O        6.90209735       9.20412963       9.20279681       20       0.00093615       0.00753964       0.00535231
O        2.00957923       2.93371594       1.65787828       21      -0.00562550       0.00285757       0.01947947
O       10.92125582       2.93371594       1.65787828       21      -0.00091315      -0.00084935       0.00914031
O       -0.96097963      11.33572521       1.65787828       21      -0.00093043      -0.00087618       0.00917609
O        7.95069696      11.33572521       1.65787828       21      -0.00091199      -0.00083198       0.00914073
O       -0.96097963      -1.26728869       8.93423175       21      -0.00095235      -0.00093245       0.00919127
O        7.95069696      -1.26728869       8.93423175       21      -0.00090969      -0.00083635       0.00913477
O       -3.93153850       7.13472057       8.93423175       21      -0.00091196      -0.00087870       0.00916752
O        4.98013809       7.13472057       8.93423175       21      -0.00097455      -0.00095219       0.00908424
O        2.00957923       6.27041369       0.26856506       22      -0.00097441       0.00788179      -0.00352431
O       10.92125582       6.27041369       0.26856506       22      -0.00098426       0.00834451      -0.00385768
O       -0.96097963      14.67242296       0.26856506       22      -0.00090055       0.00839225      -0.00382527
O        7.95069696      14.67242296       0.26856506       22      -0.00086283       0.00838084      -0.00383436
O       -0.96097963       2.06940906       7.54491853       22      -0.00047190       0.00865990      -0.00460745
O        7.95069696       2.06940906       7.54491853       22      -0.00096280       0.00836212      -0.00388469
O       -3.93153850      10.47141832       7.54491853       22      -0.00098533       0.00837883      -0.00375233
O        4.98013809      10.47141832       7.54491853       22      -0.00088275       0.00836129      -0.00382927
O       -2.27138411       5.96081415       3.69114385       23      -0.00910277       0.00518784      -0.00006284
O        6.64029248       5.96081415       3.69114385       23      -0.00821485       0.00436117       0.00025100
O       -5.24194297      14.36282342       3.69114385       23      -0.00821724       0.00404673       0.00025199
O        3.66973362      14.36282342       3.69114385       23      -0.00816343       0.00424677       0.00026225
O       -5.24194297       1.75980952      10.96749732       23      -0.00812174       0.00430641       0.00023908
O        3.66973362       1.75980952      10.96749732       23      -0.00820941       0.00431109       0.00028004
O       -8.21250184      10.16181878      10.96749732       23      -0.00817470       0.00428393       0.00024834
O        0.69917475      10.16181878      10.96749732       23      -0.00817530       0.00431259       0.00029885
O        3.40647865       1.94595889       7.22338635       24       0.00684824      -0.00626234      -0.00011747
O       12.31815524       1.94595889       7.22338635       24       0.00676777      -0.00630634      -0.00027793
O        0.43591979      10.34796816       7.22338635       24       0.00678241      -0.00606731      -0.00013629
O        9.34759638      10.34796816       7.22338635       24       0.00677103      -0.00626005      -0.00025842
O        0.43591979      -2.25504574      14.49973982       24       0.00673394      -0.00632609      -0.00027900
O        9.34759638      -2.25504574      14.49973982       24       0.00611226      -0.00611948      -0.00054120
O       -2.53463908       6.14696352      14.49973982       24       0.00675669      -0.00625268      -0.00025849
O        6.37703751       6.14696352      14.49973982       24       0.00678337      -0.00620099      -0.00023907
O        5.24194297      -1.75980951       3.58520962       25       0.00825497      -0.00445098      -0.00028251
O       14.15361956      -1.75980951       3.58520962       25       0.00818344      -0.00431554      -0.00024363
O        2.27138411       6.64219976       3.58520962       25       0.01842076       0.00676602      -0.00180798
O       11.18306070       6.64219976       3.58520962       25       0.00810732      -0.00430427      -0.00026660
O        2.27138411      -5.96081414      10.86156309       25       0.00816471      -0.00429125      -0.00026750
O       11.18306070      -5.96081414      10.86156309       25       0.00819068      -0.00430427      -0.00031002
O       -0.69917476       2.44119512      10.86156309       25       0.00823872      -0.00431486      -0.00024055
O        8.21250183       2.44119512      10.86156309       25       0.00816025      -0.00428539      -0.00026386
O        6.37703751       3.27389606       1.71173339       26       0.00668470       0.00318614      -0.00515931
O       15.28871410       3.27389606       1.71173339       26       0.00716488       0.00343275      -0.00557092
O        3.40647865      11.67590533       1.71173339       26       0.00676765       0.00338085      -0.00536476
O       12.31815524      11.67590533       1.71173339       26       0.00674608       0.00342915      -0.00528581
O        3.40647865      -0.92710857       8.98808686       26       0.00676757       0.00326267      -0.00517839
O       12.31815524      -0.92710857       8.98808686       26       0.00677319       0.00337792      -0.00530409
O        0.43591978       7.47490069       8.98808686       26       0.00673641       0.00333494      -0.00504633
O        9.34759637       7.47490069       8.98808686       26       0.00676989       0.00336439      -0.00529471
O        3.66973362       2.31671959       3.90674179       27      -0.01213785       0.00005406      -0.00354139
O       12.58141021       2.31671959       3.90674179       27      -0.00826313      -0.00193538      -0.00385727
O        0.69917476      10.71872886       3.90674179       27      -0.00832329      -0.00217779      -0.00386662
O        9.61085135      10.71872886       3.90674179       27      -0.00816992      -0.00194303      -0.00384619
O        0.69917476      -1.88428504      11.18309526       27      -0.00815720      -0.00190463      -0.00386163
O        9.61085135      -1.88428504      11.18309526       27      -0.00817802      -0.00193187      -0.00386902
O       -2.27138411       6.51772422      11.18309526       27      -0.00819931      -0.00189488      -0.00387906
O        6.64029248       6.51772422      11.18309526       27      -0.00812100      -0.00188843      -0.00379419
O        0.69917475       4.32548017       6.95482129       28      -0.00799359      -0.00422421       0.00457455
O        9.61085134       4.32548017       6.95482129       28      -0.00819569      -0.00236473       0.00357512
O       -2.27138411      12.72748944       6.95482129       28      -0.00819544      -0.00232297       0.00355463
O        6.64029248      12.72748944       6.95482129       28      -0.00818728      -0.00241272       0.00358288
O       -2.27138411       0.12447554      14.23117476       28      -0.00812605      -0.00237768       0.00360108
O        6.64029248       0.12447554      14.23117476       28      -0.00822714      -0.00234771       0.00354323
O       -5.24194298       8.52648480      14.23117476       28      -0.00819727      -0.00235132       0.00361484
O        3.66973361       8.52648480      14.23117476       28      -0.00812591      -0.00240693       0.00361914
O        2.27138411      -0.12447553       0.32153218       29       0.00812169       0.00235306      -0.00401903
O       11.18306070      -0.12447553       0.32153218       29       0.00818228       0.00237665      -0.00357709
O       -0.69917475       8.27753374       0.32153218       29       0.00800905       0.00246182      -0.00340654
O        8.21250184       8.27753374       0.32153218       29       0.00817398       0.00238121      -0.00358992
O       -0.69917475      -4.32548016       7.59788565       29       0.00818184       0.00243811      -0.00362747
O        8.21250184      -4.32548016       7.59788565       29       0.00817433       0.00241504      -0.00357687
O       -3.66973362       4.07652910       7.59788565       29       0.00812065       0.00246192      -0.00356302
O        5.24194297       4.07652910       7.59788565       29       0.00801438       0.00258059      -0.00358039
O       -3.40647865       0.92710858       5.56462007       30      -0.00678206      -0.00324099       0.00509308
O        5.50519794       0.92710858       5.56462007       30      -0.00637319      -0.00356137       0.00527499
O       -6.37703751       9.32911785       5.56462007       30      -0.00684712      -0.00331006       0.00529791
O        2.53463908       9.32911785       5.56462007       30      -0.00640186      -0.00317481       0.00528533
O       -6.37703751      -3.27389605      12.84097354       30      -0.00674067      -0.00330484       0.00527411
O        2.53463908      -3.27389605      12.84097354       30      -0.00675051      -0.00335203       0.00528881
O       -9.34759638       5.12811321      12.84097354       30      -0.00675652      -0.00335793       0.00528327
O       -0.43591979       5.12811321      12.84097354       30      -0.00676689      -0.00336075       0.00530129
O        5.06663303       0.77205247       1.98029845       31      -0.00026947      -0.00106082      -0.00930022
O       13.97830962       0.77205247       1.98029845       31      -0.00045406      -0.00115036      -0.00910547