320
Lattice="17.82335318415201 1.3969445330313008e-09 -1.1638513311060052e-15 -5.941117729367724 16.804018532863342 -2.4195810530702495e-09 -5.9411177273921485 -8.402009265034724 14.552706936737213" Properties=species:S:1:pos:R:3:spacegroup_kinds:I:1:forces:R:3 spacegroup="P 1" unit_cell=conventional occupancy="_JSON {\"0\": {\"In\": 1}, \"1\": {\"In\": 1}, \"2\": {\"In\": 1}, \"3\": {\"In\": 1}, \"4\": {\"In\": 1}, \"5\": {\"In\": 1}, \"6\": {\"In\": 1}, \"7\": {\"In\": 1}, \"8\": {\"In\": 1}, \"9\": {\"In\": 1}, \"10\": {\"In\": 1}, \"11\": {\"In\": 1}, \"12\": {\"In\": 1}, \"13\": {\"In\": 1}, \"14\": {\"In\": 1}, \"15\": {\"In\": 1}, \"16\": {\"O\": 1}, \"17\": {\"O\": 1}, \"18\": {\"O\": 1}, \"19\": {\"O\": 1}, \"20\": {\"O\": 1}, \"21\": {\"O\": 1}, \"22\": {\"O\": 1}, \"23\": {\"O\": 1}, \"24\": {\"O\": 1}, \"25\": {\"O\": 1}, \"26\": {\"O\": 1}, \"27\": {\"O\": 1}, \"28\": {\"O\": 1}, \"29\": {\"O\": 1}, \"30\": {\"O\": 1}, \"31\": {\"O\": 1}, \"32\": {\"O\": 1}, \"33\": {\"O\": 1}, \"34\": {\"O\": 1}, \"35\": {\"O\": 1}, \"36\": {\"O\": 1}, \"37\": {\"O\": 1}, \"38\": {\"O\": 1}, \"39\": {\"O\": 1}}" n_minim_iter=5 energy=-361215.27359163936 stress="8.93508023468233e-05 -1.437871805003323e-06 5.781672616085838e-06 -1.437871805003323e-06 7.530689566304223e-05 -5.8325715669052904e-06 5.781672616085838e-06 -5.8325715669052904e-06 7.895254041636818e-05" free_energy=-45151.90924097551 pbc="T T T"
In      -4.25567210       3.00921460       5.70241762        0       0.00420323      -0.00413135       0.00695219
In       4.65600449       3.00921460       5.70241762        0       0.00422822      -0.00298713       0.00544457
In      -7.22623096      11.41122387       5.70241762        0       0.00547271      -0.00385006       0.00670478
In       1.68544563      11.41122387       5.70241762        0       0.00554229      -0.00392231       0.00673101
In      -7.22623096      -1.19179003      12.97877109        0       0.00538322      -0.00378145       0.00665936
In       1.68544563      -1.19179003      12.97877109        0       0.00548254      -0.00388302       0.00668769
In     -10.19678983       7.21021923      12.97877109        0       0.00548764      -0.00387270       0.00674062
In      -1.28511324       7.21021923      12.97877109        0       0.00547384      -0.00388500       0.00668305
In       7.22623096       1.19179004       1.57393584        1      -0.00558647       0.00392789      -0.00658739
In      16.13790755       1.19179004       1.57393584        1      -0.00569304       0.00393872      -0.00720784
In       4.25567210       9.59379931       1.57393584        1      -0.00549888       0.00384332      -0.00669747
In      13.16734869       9.59379931       1.57393584        1      -0.00552450       0.00393425      -0.00678458
In       4.25567210      -3.00921459       8.85028931        1      -0.00546425       0.00387016      -0.00670635
In      13.16734869      -3.00921459       8.85028931        1      -0.00550175       0.00382867      -0.00665794
In       1.28511323       5.39279467       8.85028931        1      -0.00548110       0.00408508      -0.00649982
In      10.19678982       5.39279467       8.85028931        1      -0.00547928       0.00385164      -0.00672508
In       1.28511323      -0.90871228       5.21211257        2      -0.00546590       0.00385655      -0.00682702
In      10.19678982      -0.90871228       5.21211257        2      -0.00544409       0.00388304      -0.00669379
In      -1.68544563       7.49329699       5.21211257        2      -0.00554922       0.00459845      -0.00664889
In       7.22623096       7.49329699       5.21211257        2      -0.00561792       0.00368788      -0.00666047
In      -1.68544563      -5.10971691      12.48846604        2      -0.00547879       0.00394931      -0.00673242
In       7.22623096      -5.10971691      12.48846604        2      -0.00547038       0.00388909      -0.00668014
In      -4.65600450       3.29229235      12.48846604        2      -0.00549929       0.00384814      -0.00666769
In       4.25567209       3.29229235      12.48846604        2      -0.00544827       0.00387573      -0.00673615
In      -1.48527943      -2.10050231       3.63817673        3      -0.00002499      -0.00007678       0.00005035
In       7.42639716      -2.10050231       3.63817673        3       0.00004110      -0.00005508       0.00000599
In      -4.45583829       6.30150696       3.63817673        3      -0.00058585       0.00028102      -0.00006428
In       4.45583830       6.30150696       3.63817673        3       0.00027283      -0.00033178       0.00063921
In      -4.45583829      -6.30150694      10.91453020        3       0.00001124       0.00000103      -0.00004692
In       4.45583830      -6.30150694      10.91453020        3       0.00000286       0.00000875       0.00000477
In      -7.42639716       2.10050232      10.91453020        3      -0.00000741      -0.00000045       0.00001538
In       1.48527943       2.10050232      10.91453020        3       0.00008142       0.00000646       0.00001210
In      -1.28511324       4.05946576       3.39302421        4       0.02739960      -0.00265547      -0.00327194
In       7.62656335       4.05946576       3.39302421        4       0.00535651      -0.00383381      -0.00666582
In      -4.25567210      12.46147503       3.39302421        4       0.00546503      -0.00389660      -0.00671158
In       4.65600449      12.46147503       3.39302421        4       0.00550186      -0.00393536      -0.00668694
In      -4.25567210      -0.14153887      10.66937768        4       0.00544745      -0.00389073      -0.00667785
In       4.65600449      -0.14153887      10.66937768        4       0.00547151      -0.00381396      -0.00675471
In      -7.22623097       8.26047039      10.66937768        4       0.00547058      -0.00388558      -0.00672502
In       1.68544562       8.26047039      10.66937768        4       0.00544058      -0.00387826      -0.00670840
In       4.65600449      -2.86767572       5.45726510        5       0.00541529       0.00783097      -0.00005144
In      13.56768108      -2.86767572       5.45726510        5       0.00549859       0.00780166       0.00002615
In       1.68544563       5.53433355       5.45726510        5       0.01485908       0.01850838       0.01284772
In      10.59712222       5.53433355       5.45726510        5       0.00537691       0.00776301       0.00004270
In       1.68544563      -7.06868035      12.73361857        5       0.00557718       0.00771571      -0.00009339
In      10.59712222      -7.06868035      12.73361857        5       0.00542134       0.00771169      -0.00001909
In      -1.28511324       1.33332891      12.73361857        5       0.00547156       0.00773336      -0.00004119
In       7.62656335       1.33332891      12.73361857        5       0.00553441       0.00767712       0.00006668
In      -1.28511323       1.33332891       5.45726510        6       0.00522329       0.00599453       0.00126493
In       7.62656336       1.33332891       5.45726510        6       0.00532846       0.00777215      -0.00010887
In      -4.25567209       9.73533818       5.45726510        6       0.00540066       0.00783982       0.00005451
In       4.65600450       9.73533818       5.45726510        6       0.00541696       0.00771165       0.00002984
In      -4.25567209      -2.86767572      12.73361857        6       0.00556153       0.00775956       0.00028420
In       4.65600450      -2.86767572      12.73361857        6       0.00543621       0.00773713      -0.00001643
In      -7.22623096       5.53433354      12.73361857        6       0.00548053       0.00779481       0.00003137
In       1.68544563       5.53433354      12.73361857        6       0.00546134       0.00775146      -0.00003386
In      -1.68544563       7.06868036       1.81908836        7      -0.00595442      -0.00735348      -0.00037653
In       7.22623096       7.06868036       1.81908836        7      -0.00559372      -0.00783254       0.00002381
In      -4.65600449      15.47068963       1.81908836        7      -0.00537000      -0.00754615       0.00013482
In       4.25567210      15.47068963       1.81908836        7      -0.00549056      -0.00773410       0.00000071
In      -4.65600449       2.86767573       9.09544183        7      -0.00554997      -0.00773750       0.00009494
In       4.25567210       2.86767573       9.09544183        7      -0.00551398      -0.00783487       0.00006606
In      -7.62656336      11.26968499       9.09544183        7      -0.00547631      -0.00774553       0.00004024
In       1.28511323      11.26968499       9.09544183        7      -0.00547620      -0.00775395       0.00000250
In       4.25567210       0.14153888       3.88332926        8      -0.00555766       0.00469370       0.00685790
In      13.16734869       0.14153888       3.88332926        8      -0.00538536       0.00389991       0.00674164
In       1.28511324       8.54354815       3.88332926        8      -0.00495951       0.00359189       0.00632949
In      10.19678983       8.54354815       3.88332926        8      -0.00554482       0.00385557       0.00670679
In       1.28511324      -4.05946575      11.15968273        8      -0.00549366       0.00385446       0.00672004
In      10.19678983      -4.05946575      11.15968273        8      -0.00547030       0.00389071       0.00668812
In      -1.68544563       4.34254351      11.15968273        8      -0.00549124       0.00387236       0.00670982
In       7.22623096       4.34254351      11.15968273        8      -0.00547201       0.00388800       0.00673443
In      -1.48527943       4.20100463       0.00000000        9      -0.00051394      -0.00011899      -0.00045127
In       7.42639716       4.20100463      -0.00000000        9      -0.00011674       0.00007956       0.00010809
In      -4.45583829      12.60301390      -0.00000000        9      -0.00001512       0.00001100       0.00001134
In       4.45583830      12.60301390      -0.00000000        9       0.00001447      -0.00002162       0.00001673
In      -4.45583829      -0.00000000       7.27635347        9      -0.00005015      -0.00009632       0.00000816
In       4.45583830      -0.00000000       7.27635347        9      -0.00004651      -0.00007524       0.00004295
In      -7.42639716       8.40200926       7.27635347        9      -0.00000785      -0.00000304      -0.00001627
In       1.48527943       8.40200926       7.27635347        9       0.00027720      -0.00012549       0.00005239
In       4.25567210       6.44304583       0.24515252       10      -0.00548239       0.00359631       0.00687755
In      13.16734869       6.44304583       0.24515252       10      -0.00531658       0.00387179       0.00671137
In       1.28511324      14.84505510       0.24515252       10      -0.00548787       0.00387250       0.00668532
In      10.19678983      14.84505510       0.24515252       10      -0.00548294       0.00386772       0.00670067
In       1.28511324       2.24204120       7.52150599       10      -0.00539684       0.00358705       0.00670220
In      10.19678983       2.24204120       7.52150599       10      -0.00549997       0.00389606       0.00670515
In      -1.68544563      10.64405046       7.52150599       10      -0.00550015       0.00392343       0.00672200
In       7.22623096      10.64405046       7.52150599       10      -0.00549109       0.00388603       0.00673032
In      -1.28511323      -2.24204119       7.03120094       11       0.00544915      -0.00388885      -0.00670079
In       7.62656336      -2.24204119       7.03120094       11       0.00547641      -0.00389862      -0.00670882
In      -4.25567209       6.15996808       7.03120094       11       0.00568702      -0.00399458      -0.00679854
In       4.65600450       6.15996808       7.03120094       11       0.00570464      -0.00441398      -0.00747115
In      -4.25567209      -6.44304582      14.30755441       11       0.00535567      -0.00344855      -0.00584831
In       4.65600450      -6.44304582      14.30755441       11       0.00541809      -0.00388863      -0.00672983
In      -7.22623096       1.95896344      14.30755441       11       0.00544619      -0.00388290      -0.00671709
In       1.68544563       1.95896344      14.30755441       11       0.00548982      -0.00384803      -0.00673822
In       4.25567210       2.86767572       1.81908836       12      -0.00520777      -0.00765499       0.00038453
In      13.16734869       2.86767572       1.81908836       12      -0.00566539      -0.00788587      -0.00003532
In       1.28511324      11.26968499       1.81908836       12      -0.00542969      -0.00772735      -0.00003660
In      10.19678983      11.26968499       1.81908836       12      -0.00547341      -0.00773763      -0.00000298
In       1.28511324      -1.33332891       9.09544183       12      -0.00543276      -0.00774653      -0.00000557
In      10.19678983      -1.33332891       9.09544183       12      -0.00546905      -0.00774086      -0.00001940
In      -1.68544563       7.06868035       9.09544183       12      -0.00541935      -0.00777594       0.00008663
In       7.22623096       7.06868035       9.09544183       12      -0.00542288      -0.00770426       0.00007461
In       1.68544563       5.10971692       2.06424089       13       0.01041856      -0.00069098      -0.00011899
In      10.59712222       5.10971692       2.06424089       13       0.00540412      -0.00390294       0.00673486
In      -1.28511323      13.51172619       2.06424089       13       0.00548003      -0.00391496       0.00672586
In       7.62656336      13.51172619       2.06424089       13       0.00548473      -0.00386761       0.00665903
In      -1.28511323       0.90871229       9.34059436       13       0.00544397      -0.00391351       0.00679584
In       7.62656336       0.90871229       9.34059436       13       0.00551855      -0.00393562       0.00679734
In      -4.25567210       9.31072155       9.34059436       13       0.00548860      -0.00385153       0.00668121
In       4.65600449       9.31072155       9.34059436       13       0.00549220      -0.00389596       0.00670542
In       1.48527943       8.40200927      -0.00000000       14       0.00010569      -0.00023369       0.00007426
In      10.39695602       8.40200927      -0.00000000       14      -0.00003692       0.00001007       0.00001462
In      -1.48527944      16.80401853      -0.00000000       14      -0.00002708      -0.00011446       0.00000227
In       7.42639715      16.80401853      -0.00000000       14      -0.00006492      -0.00007462      -0.00005488
In      -1.48527944       4.20100463       7.27635347       14      -0.00050325       0.00002486       0.00195256
In       7.42639715       4.20100463       7.27635347       14      -0.00019555       0.00015103      -0.00016424
In      -4.45583830      12.60301390       7.27635347       14      -0.00000541       0.00001758      -0.00001248
In       4.45583829      12.60301390       7.27635347       14       0.00001961      -0.00005014      -0.00001580
In       1.48527943       2.10050232       3.63817673       15       0.00519880      -0.00804554      -0.00019713
In      10.39695602       2.10050232       3.63817673       15      -0.00004258       0.00000305       0.00000392
In      -1.48527943      10.50251159       3.63817673       15      -0.00006241      -0.00009135       0.00004543
In       7.42639716      10.50251159       3.63817673       15       0.00004642       0.00010086      -0.00000197
In      -1.48527943      -2.10050231      10.91453020       15      -0.00001148      -0.00001798       0.00007343
In       7.42639716      -2.10050231      10.91453020       15       0.00002597      -0.00000716       0.00003887
In      -4.45583830       6.30150695      10.91453020       15       0.00003484      -0.00004103      -0.00002511
In       4.45583829       6.30150695      10.91453020       15      -0.00000670       0.00000492      -0.00005129
O        0.88448469       4.20151732       3.95970891       16      -0.06725690      -0.02627447      -0.01619260
O        9.78616128       4.20151732       3.95970891       16       0.00048450      -0.00848923      -0.00357644
O       -2.09607417      12.60352659       3.95970891       16       0.00046369      -0.00851096      -0.00357474
O        6.81560242      12.60352659       3.95970891       16       0.00044291      -0.00855312      -0.00358726
O       -2.09607417       0.00051269      11.23606238       16       0.00046097      -0.00850181      -0.00354377
O        6.81560242       0.00051269      11.23606238       16       0.00047716      -0.00848079      -0.00359843
O       -5.06663304       8.40252195      11.23606238       16       0.00048718      -0.00848423      -0.00357180
O        3.84504355       8.40252195      11.23606238       16       0.00046483      -0.00845947      -0.00354097
O       -2.09607417       3.42895217       5.29605501       17       0.00559102       0.00325910       0.00658751
O        6.81560242       3.42895217       5.29605501       17       0.00081694       0.00122828       0.00912380
O       -5.06663303      11.83096144       5.29605501       17       0.00047098       0.00114032       0.00914877
O        3.84504356      11.83096144       5.29605501       17       0.00047703       0.00117777       0.00914018
O       -5.06663303      -0.77205246      12.57240848       17       0.00047230       0.00111503       0.00919197
O        3.84504356      -0.77205246      12.57240848       17       0.00048181       0.00114459       0.00913506
O       -8.03719190       7.62995680      12.57240848       17       0.00048725       0.00111831       0.00910227
O        0.87448469       7.62995680      12.57240848       17       0.00048767       0.00113960       0.00915708
O       -0.43591979       2.25504574       0.05296711       18      -0.00674945       0.00661448       0.00109857
O        8.47575680       2.25504574       0.05296711       18      -0.00666927       0.00624672       0.00021793
O       -3.40647865      10.65705501       0.05296711       18      -0.00674037       0.00619520       0.00027412
O        5.50519794      10.65705501       0.05296711       18      -0.00673737       0.00630398       0.00024808
O       -3.40647865      -1.94595889       7.32932058       18      -0.00673012       0.00631338       0.00023016
O        5.50519794      -1.94595889       7.32932058       18      -0.00675425       0.00621639       0.00034505
O       -6.37703752       6.45605037       7.32932058       18      -0.00672087       0.00624109       0.00022287
O        2.53463907       6.45605037       7.32932058       18      -0.00709373       0.00612260       0.00006985
O       -0.87448470      -0.77153978       1.97941046       19      -0.00028369      -0.00692768       0.00585518
O        8.03719189      -0.77153978       1.97941046       19      -0.00043706      -0.00736628       0.00553685
O       -3.84504356       7.63046949       1.97941046       19      -0.00048314      -0.00743636       0.00553926
O        5.06663303       7.63046949       1.97941046       19      -0.00049697      -0.00731563       0.00584143
O       -3.84504356      -4.97254441       9.25576393       19      -0.00047862      -0.00734895       0.00556597
O        5.06663303      -4.97254441       9.25576393       19      -0.00048604      -0.00734062       0.00555563
O       -6.81560243       3.42946485       9.25576393       19      -0.00047919      -0.00734247       0.00555446
O        2.09607416       3.42946485       9.25576393       19      -0.00061735      -0.00723707       0.00517674
O        3.93153849       5.00312500       1.92644334       20       0.00119902       0.00749922       0.00454073
O       12.84321508       5.00312500       1.92644334       20       0.00089671       0.00773143       0.00544583
O        0.96097963      13.40513427       1.92644334       20       0.00091563       0.00744654       0.00529744
O        9.87265622      13.40513427       1.92644334       20       0.00088748       0.00744722       0.00529322
O        0.96097963       0.80212037       9.20279681       20       0.00096969       0.00746276       0.00531952
O        9.87265622       0.80212037       9.20279681       20       0.00089549       0.00749149       0.00530240
O       -2.00957924       9.20412963       9.20279681       20       0.00095311       0.00753751       0.00527146
O        6.90209735       9.20412963       9.20279681       20       0.00094607       0.00753638       0.00536170
O        2.00957923       2.93371594       1.65787828       21       0.00128871      -0.00557835       0.00034981
O       10.92125582       2.93371594       1.65787828       21      -0.00097224      -0.00082883       0.00916523
O       -0.96097963      11.33572521       1.65787828       21      -0.00094126      -0.00083952       0.00911611
O        7.95069696      11.33572521       1.65787828       21      -0.00091414      -0.00083043       0.00914599
O       -0.96097963      -1.26728869       8.93423175       21      -0.00090354      -0.00087881       0.00907675
O        7.95069696      -1.26728869       8.93423175       21      -0.00091675      -0.00083413       0.00914464
O       -3.93153850       7.13472057       8.93423175       21      -0.00092660      -0.00085959       0.00910535
O        4.98013809       7.13472057       8.93423175       21      -0.00094938      -0.00096837       0.00895076
O        2.00957923       6.27041369       0.26856506       22      -0.00137205       0.00796483      -0.00346406
O       10.92125582       6.27041369       0.26856506       22      -0.00079557       0.00828685      -0.00381891
O       -0.96097963      14.67242296       0.26856506       22      -0.00089989       0.00823775      -0.00390240
O        7.95069696      14.67242296       0.26856506       22      -0.00086945       0.00840704      -0.00383303
O       -0.96097963       2.06940906       7.54491853       22      -0.00066604       0.00911037      -0.00501912
O        7.95069696       2.06940906       7.54491853       22      -0.00083247       0.00829818      -0.00378396
O       -3.93153850      10.47141832       7.54491853       22      -0.00088774       0.00832819      -0.00389547
O        4.98013809      10.47141832       7.54491853       22      -0.00091283       0.00838302      -0.00383082
O       -2.27138411       5.96081415       3.69114385       23      -0.00664400       0.00236487       0.00092768
O        6.64029248       5.96081415       3.69114385       23      -0.00810614       0.00423393       0.00021340
O       -5.24194297      14.36282342       3.69114385       23      -0.00816334       0.00425584       0.00027776
O        3.66973362      14.36282342       3.69114385       23      -0.00817026       0.00427912       0.00026295
O       -5.24194297       1.75980952      10.96749732       23      -0.00816561       0.00431480       0.00025314
O        3.66973362       1.75980952      10.96749732       23      -0.00813874       0.00425336       0.00023780
O       -8.21250184      10.16181878      10.96749732       23      -0.00815506       0.00429280       0.00026112
O        0.69917475      10.16181878      10.96749732       23      -0.00817258       0.00431300       0.00027777
O        3.40647865       1.94595889       7.22338635       24       0.00687668      -0.00627831      -0.00017509
O       12.31815524       1.94595889       7.22338635       24       0.00679351      -0.00625823      -0.00024768
O        0.43591979      10.34796816       7.22338635       24       0.00670356      -0.00636312      -0.00028138
O        9.34759638      10.34796816       7.22338635       24       0.00677719      -0.00625952      -0.00025536
O        0.43591979      -2.25504574      14.49973982       24       0.00676873      -0.00625082      -0.00026327
O        9.34759638      -2.25504574      14.49973982       24       0.00741930      -0.00629506      -0.00006347
O       -2.53463908       6.14696352      14.49973982       24       0.00677356      -0.00626903      -0.00027054
O        6.37703751       6.14696352      14.49973982       24       0.00675169      -0.00630202      -0.00027179
O        5.24194297      -1.75980951       3.58520962       25       0.00813951      -0.00422033      -0.00021346
O       14.15361956      -1.75980951       3.58520962       25       0.00816011      -0.00422497      -0.00024854
O        2.27138411       6.64219976       3.58520962       25       0.01258753       0.00736927      -0.00128201
O       11.18306070       6.64219976       3.58520962       25       0.00820282      -0.00432516      -0.00027387
O        2.27138411      -5.96081414      10.86156309       25       0.00815354      -0.00428777      -0.00025453
O       11.18306070      -5.96081414      10.86156309       25       0.00812856      -0.00425819      -0.00029673
O       -0.69917476       2.44119512      10.86156309       25       0.00811443      -0.00422252      -0.00022170
O        8.21250183       2.44119512      10.86156309       25       0.00815845      -0.00430093      -0.00025947
O        6.37703751       3.27389606       1.71173339       26       0.00695393       0.00354436      -0.00533504
O       15.28871410       3.27389606       1.71173339       26       0.00586979       0.00319810      -0.00566742
O        3.40647865      11.67590533       1.71173339       26       0.00674187       0.00330382      -0.00527865
O       12.31815524      11.67590533       1.71173339       26       0.00675005       0.00335462      -0.00530676
O        3.40647865      -0.92710857       8.98808686       26       0.00680902       0.00340916      -0.00530784
O       12.31815524      -0.92710857       8.98808686       26       0.00678120       0.00336408      -0.00532494
O        0.43591978       7.47490069       8.98808686       26       0.00685802       0.00341710      -0.00522465
O        9.34759637       7.47490069       8.98808686       26       0.00676710       0.00335411      -0.00530027
O        3.66973362       2.31671959       3.90674179       27      -0.00481550      -0.00460932      -0.00426800
O       12.58141021       2.31671959       3.90674179       27      -0.00814542      -0.00192449      -0.00368539
O        0.69917476      10.71872886       3.90674179       27      -0.00816002      -0.00190405      -0.00382900
O        9.61085135      10.71872886       3.90674179       27      -0.00817272      -0.00193088      -0.00384509
O        0.69917476      -1.88428504      11.18309526       27      -0.00816536      -0.00189908      -0.00385611
O        9.61085135      -1.88428504      11.18309526       27      -0.00817250      -0.00191442      -0.00386710
O       -2.27138411       6.51772422      11.18309526       27      -0.00813013      -0.00194163      -0.00383069
O        6.64029248       6.51772422      11.18309526       27      -0.00813666      -0.00189239      -0.00377725
O        0.69917475       4.32548017       6.95482129       28      -0.00994748      -0.00279997       0.00293002
O        9.61085134       4.32548017       6.95482129       28      -0.00810364      -0.00236816       0.00358410
O       -2.27138411      12.72748944       6.95482129       28      -0.00814254      -0.00238227       0.00358718
O        6.64029248      12.72748944       6.95482129       28      -0.00819053      -0.00240780       0.00358499
O       -2.27138411       0.12447554      14.23117476       28      -0.00820610      -0.00241686       0.00364509
O        6.64029248       0.12447554      14.23117476       28      -0.00811619      -0.00238677       0.00361397
O       -5.24194298       8.52648480      14.23117476       28      -0.00812885      -0.00240362       0.00355222
O        3.66973361       8.52648480      14.23117476       28      -0.00817756      -0.00240567       0.00355843
O        2.27138411      -0.12447553       0.32153218       29       0.00825896       0.00219470      -0.00353700
O       11.18306070      -0.12447553       0.32153218       29       0.00821683       0.00239797      -0.00356429
O       -0.69917475       8.27753374       0.32153218       29       0.00840578       0.00215889      -0.00358850
O        8.21250184       8.27753374       0.32153218       29       0.00819675       0.00239240      -0.00359955
O       -0.69917475      -4.32548016       7.59788565       29       0.00815825       0.00237744      -0.00358288
O        8.21250184      -4.32548016       7.59788565       29       0.00816532       0.00238111      -0.00358219
O       -3.66973362       4.07652910       7.59788565       29       0.00815138       0.00215549      -0.00362897
O        5.24194297       4.07652910       7.59788565       29       0.00829536       0.00211952      -0.00353772
O       -3.40647865       0.92710858       5.56462007       30      -0.00668612      -0.00312823       0.00520751
O        5.50519794       0.92710858       5.56462007       30      -0.00709015      -0.00302142       0.00533788
O       -6.37703751       9.32911785       5.56462007       30      -0.00669942      -0.00339565       0.00529400
O        2.53463908       9.32911785       5.56462007       30      -0.00674313      -0.00343535       0.00540132
O       -6.37703751      -3.27389605      12.84097354       30      -0.00669729      -0.00329927       0.00533326
O        2.53463908      -3.27389605      12.84097354       30      -0.00676329      -0.00336425       0.00529874
O       -9.34759638       5.12811321      12.84097354       30      -0.00676040      -0.00335591       0.00529281
O       -0.43591979       5.12811321      12.84097354       30      -0.00676425      -0.00335594       0.00529734
O        5.06663303       0.77205247       1.98029845       31      -0.00049443      -0.00118567      -0.00915431
O       13.97830962       0.77205247       1.98029845       31      -0.00048260      -0.00135734      -0.00922736