320
Lattice="17.82335318415201 1.3969445330313008e-09 -1.1638513311060052e-15 -5.941117729367724 16.804018532863342 -2.4195810530702495e-09 -5.9411177273921485 -8.402009265034724 14.552706936737213" Properties=species:S:1:pos:R:3:spacegroup_kinds:I:1:forces:R:3 spacegroup="P 1" unit_cell=conventional occupancy="_JSON {\"0\": {\"In\": 1}, \"1\": {\"In\": 1}, \"2\": {\"In\": 1}, \"3\": {\"In\": 1}, \"4\": {\"In\": 1}, \"5\": {\"In\": 1}, \"6\": {\"In\": 1}, \"7\": {\"In\": 1}, \"8\": {\"In\": 1}, \"9\": {\"In\": 1}, \"10\": {\"In\": 1}, \"11\": {\"In\": 1}, \"12\": {\"In\": 1}, \"13\": {\"In\": 1}, \"14\": {\"In\": 1}, \"15\": {\"In\": 1}, \"16\": {\"O\": 1}, \"17\": {\"O\": 1}, \"18\": {\"O\": 1}, \"19\": {\"O\": 1}, \"20\": {\"O\": 1}, \"21\": {\"O\": 1}, \"22\": {\"O\": 1}, \"23\": {\"O\": 1}, \"24\": {\"O\": 1}, \"25\": {\"O\": 1}, \"26\": {\"O\": 1}, \"27\": {\"O\": 1}, \"28\": {\"O\": 1}, \"29\": {\"O\": 1}, \"30\": {\"O\": 1}, \"31\": {\"O\": 1}, \"32\": {\"O\": 1}, \"33\": {\"O\": 1}, \"34\": {\"O\": 1}, \"35\": {\"O\": 1}, \"36\": {\"O\": 1}, \"37\": {\"O\": 1}, \"38\": {\"O\": 1}, \"39\": {\"O\": 1}}" n_minim_iter=5 energy=-361215.27358803817 stress="8.53338802697679e-05 1.0870004310390382e-06 -1.2064815597035518e-06 1.0870004310390382e-06 8.84181313989597e-05 -4.729235756579817e-06 -1.2064815597035518e-06 -4.729235756579817e-06 9.240141104374659e-05" free_energy=-45151.90924097551 pbc="T T T"
In      -4.25567210       3.00921460       5.70241762        0       0.00652685      -0.00364560       0.00648959
In       4.65600449       3.00921460       5.70241762        0       0.00529810      -0.00390192       0.00655067
In      -7.22623096      11.41122387       5.70241762        0       0.00548965      -0.00389157       0.00670200
In       1.68544563      11.41122387       5.70241762        0       0.00548464      -0.00386277       0.00668258
In      -7.22623096      -1.19179003      12.97877109        0       0.00546905      -0.00397090       0.00687180
In       1.68544563      -1.19179003      12.97877109        0       0.00547370      -0.00384948       0.00671135
In     -10.19678983       7.21021923      12.97877109        0       0.00550393      -0.00386659       0.00667999
In      -1.28511324       7.21021923      12.97877109        0       0.00548110      -0.00384426       0.00673176
In       7.22623096       1.19179004       1.57393584        1      -0.00545997       0.00382924      -0.00671779
In      16.13790755       1.19179004       1.57393584        1      -0.00495286       0.00406885      -0.00578434
In       4.25567210       9.59379931       1.57393584        1      -0.00553207       0.00385110      -0.00666255
In      13.16734869       9.59379931       1.57393584        1      -0.00545649       0.00387202      -0.00674570
In       4.25567210      -3.00921459       8.85028931        1      -0.00546339       0.00385503      -0.00669668
In      13.16734869      -3.00921459       8.85028931        1      -0.00544338       0.00392179      -0.00674061
In       1.28511323       5.39279467       8.85028931        1      -0.00588198       0.00332186      -0.00793954
In      10.19678982       5.39279467       8.85028931        1      -0.00552200       0.00387794      -0.00669949
In       1.28511323      -0.90871228       5.21211257        2      -0.00558692       0.00475301      -0.00628804
In      10.19678982      -0.90871228       5.21211257        2      -0.00551179       0.00386218      -0.00671562
In      -1.68544563       7.49329699       5.21211257        2      -0.00532937       0.00366773      -0.00661310
In       7.22623096       7.49329699       5.21211257        2      -0.00543511       0.00390622      -0.00666405
In      -1.68544563      -5.10971691      12.48846604        2      -0.00551185       0.00380926      -0.00661955
In       7.22623096      -5.10971691      12.48846604        2      -0.00545494       0.00389167      -0.00672481
In      -4.65600450       3.29229235      12.48846604        2      -0.00544193       0.00388819      -0.00676148
In       4.25567209       3.29229235      12.48846604        2      -0.00542485       0.00388415      -0.00668184
In      -1.48527943      -2.10050231       3.63817673        3       0.00005223      -0.00000628      -0.00006872
In       7.42639716      -2.10050231       3.63817673        3      -0.00001376       0.00002266      -0.00000490
In      -4.45583829       6.30150696       3.63817673        3       0.00010219      -0.00005329       0.00005978
In       4.45583830       6.30150696       3.63817673        3       0.00060230      -0.00022528       0.00025276
In      -4.45583829      -6.30150694      10.91453020        3       0.00003342      -0.00002825      -0.00009446
In       4.45583830      -6.30150694      10.91453020        3      -0.00000093      -0.00000788      -0.00000444
In      -7.42639716       2.10050232      10.91453020        3       0.00002409      -0.00000594       0.00002969
In       1.48527943       2.10050232      10.91453020        3      -0.00011748       0.00003532      -0.00022380
In      -1.28511324       4.05946576       3.39302421        4       0.00146580      -0.00494994      -0.00398721
In       7.62656335       4.05946576       3.39302421        4       0.00551870      -0.00383967      -0.00675631
In      -4.25567210      12.46147503       3.39302421        4       0.00547448      -0.00386228      -0.00668423
In       4.65600449      12.46147503       3.39302421        4       0.00539690      -0.00388656      -0.00671564
In      -4.25567210      -0.14153887      10.66937768        4       0.00549319      -0.00389974      -0.00668866
In       4.65600449      -0.14153887      10.66937768        4       0.00550955      -0.00387419      -0.00669443
In      -7.22623097       8.26047039      10.66937768        4       0.00546909      -0.00385336      -0.00667660
In       1.68544562       8.26047039      10.66937768        4       0.00549246      -0.00393426      -0.00675956
In       4.65600449      -2.86767572       5.45726510        5       0.00540485       0.00781616      -0.00002857
In      13.56768108      -2.86767572       5.45726510        5       0.00540537       0.00764494      -0.00002293
In       1.68544563       5.53433355       5.45726510        5       0.00658442       0.00936300       0.00582864
In      10.59712222       5.53433355       5.45726510        5       0.00549540       0.00773068      -0.00001956
In       1.68544563      -7.06868035      12.73361857        5       0.00540780       0.00775200       0.00004976
In      10.59712222      -7.06868035      12.73361857        5       0.00543151       0.00773430      -0.00011753
In      -1.28511324       1.33332891      12.73361857        5       0.00554260       0.00780354      -0.00003586
In       7.62656335       1.33332891      12.73361857        5       0.00554607       0.00767808       0.00006979
In      -1.28511323       1.33332891       5.45726510        6       0.00665154       0.00910918      -0.00049958
In       7.62656336       1.33332891       5.45726510        6       0.00548850       0.00769958       0.00002195
In      -4.25567209       9.73533818       5.45726510        6       0.00543453       0.00775586       0.00004695
In       4.65600450       9.73533818       5.45726510        6       0.00553054       0.00778263      -0.00003486
In      -4.25567209      -2.86767572      12.73361857        6       0.00544318       0.00780895      -0.00078234
In       4.65600450      -2.86767572      12.73361857        6       0.00544276       0.00773851      -0.00001426
In      -7.22623096       5.53433354      12.73361857        6       0.00547140       0.00769619      -0.00001659
In       1.68544563       5.53433354      12.73361857        6       0.00549079       0.00777250       0.00006462
In      -1.68544563       7.06868036       1.81908836        7      -0.00621444      -0.00760484       0.00025305
In       7.22623096       7.06868036       1.81908836        7      -0.00532583      -0.00770830       0.00004031
In      -4.65600449      15.47068963       1.81908836        7      -0.00543209      -0.00758170       0.00018970
In       4.25567210      15.47068963       1.81908836        7      -0.00546860      -0.00774320      -0.00000015
In      -4.65600449       2.86767573       9.09544183        7      -0.00535555      -0.00776681      -0.00012190
In       4.25567210       2.86767573       9.09544183        7      -0.00535998      -0.00781368      -0.00004162
In      -7.62656336      11.26968499       9.09544183        7      -0.00547136      -0.00773505      -0.00004718
In       1.28511323      11.26968499       9.09544183        7      -0.00547188      -0.00776446      -0.00002135
In       4.25567210       0.14153888       3.88332926        8      -0.00561801       0.00380446       0.00668273
In      13.16734869       0.14153888       3.88332926        8      -0.00549045       0.00393173       0.00662874
In       1.28511324       8.54354815       3.88332926        8      -0.00610063       0.00407937       0.00718938
In      10.19678983       8.54354815       3.88332926        8      -0.00543229       0.00387744       0.00670651
In       1.28511324      -4.05946575      11.15968273        8      -0.00545314       0.00388850       0.00668700
In      10.19678983      -4.05946575      11.15968273        8      -0.00551432       0.00387656       0.00665344
In      -1.68544563       4.34254351      11.15968273        8      -0.00534989       0.00382370       0.00656821
In       7.22623096       4.34254351      11.15968273        8      -0.00550628       0.00386013       0.00670489
In      -1.48527943       4.20100463       0.00000000        9      -0.00060415      -0.00027720      -0.00035926
In       7.42639716       4.20100463      -0.00000000        9       0.00010583      -0.00007480      -0.00003519
In      -4.45583829      12.60301390      -0.00000000        9       0.00000142       0.00002176       0.00000022
In       4.45583830      12.60301390      -0.00000000        9      -0.00004613      -0.00000343      -0.00002118
In      -4.45583829      -0.00000000       7.27635347        9       0.00010305       0.00013231       0.00001294
In       4.45583830      -0.00000000       7.27635347        9       0.00000544      -0.00002185       0.00001728
In      -7.42639716       8.40200926       7.27635347        9       0.00001444      -0.00000553       0.00000336
In       1.48527943       8.40200926       7.27635347        9      -0.00003188      -0.00013613       0.00000184
In       4.25567210       6.44304583       0.24515252       10      -0.00520173       0.00408706       0.00656288
In      13.16734869       6.44304583       0.24515252       10      -0.00540150       0.00394869       0.00665259
In       1.28511324      14.84505510       0.24515252       10      -0.00544618       0.00384501       0.00672003
In      10.19678983      14.84505510       0.24515252       10      -0.00545461       0.00386372       0.00675282
In       1.28511324       2.24204120       7.52150599       10      -0.00566183       0.00447433       0.00448270
In      10.19678983       2.24204120       7.52150599       10      -0.00550906       0.00385975       0.00670121
In      -1.68544563      10.64405046       7.52150599       10      -0.00549010       0.00385529       0.00673544
In       7.22623096      10.64405046       7.52150599       10      -0.00546156       0.00385295       0.00669719
In      -1.28511323      -2.24204119       7.03120094       11       0.00558478      -0.00376087      -0.00669303
In       7.62656336      -2.24204119       7.03120094       11       0.00547279      -0.00386164      -0.00669959
In      -4.25567209       6.15996808       7.03120094       11       0.00546339      -0.00374836      -0.00670003
In       4.65600450       6.15996808       7.03120094       11       0.00526192      -0.00389767      -0.00671184
In      -4.25567209      -6.44304582      14.30755441       11       0.00563787      -0.00422601      -0.00753941
In       4.65600450      -6.44304582      14.30755441       11       0.00547898      -0.00387023      -0.00669963
In      -7.22623096       1.95896344      14.30755441       11       0.00545142      -0.00386356      -0.00671652
In       1.68544563       1.95896344      14.30755441       11       0.00545861      -0.00387530      -0.00672999
In       4.25567210       2.86767572       1.81908836       12      -0.00489611      -0.00833207       0.00016856
In      13.16734869       2.86767572       1.81908836       12      -0.00549341      -0.00778150       0.00007404
In       1.28511324      11.26968499       1.81908836       12      -0.00546725      -0.00773539       0.00002651
In      10.19678983      11.26968499       1.81908836       12      -0.00547376      -0.00774122       0.00000315
In       1.28511324      -1.33332891       9.09544183       12      -0.00552931      -0.00757607      -0.00017398
In      10.19678983      -1.33332891       9.09544183       12      -0.00546056      -0.00774865      -0.00000402
In      -1.68544563       7.06868035       9.09544183       12      -0.00545317      -0.00765534      -0.00006106
In       7.22623096       7.06868035       9.09544183       12      -0.00549447      -0.00773771      -0.00002250
In       1.68544563       5.10971692       2.06424089       13      -0.00333427      -0.01343988       0.02608447
In      10.59712222       5.10971692       2.06424089       13       0.00542239      -0.00386201       0.00669455
In      -1.28511323      13.51172619       2.06424089       13       0.00545362      -0.00380578       0.00670848
In       7.62656336      13.51172619       2.06424089       13       0.00549775      -0.00383851       0.00676343
In      -1.28511323       0.90871229       9.34059436       13       0.00536254      -0.00376513       0.00652237
In       7.62656336       0.90871229       9.34059436       13       0.00549543      -0.00388203       0.00671822
In      -4.25567210       9.31072155       9.34059436       13       0.00549127      -0.00390600       0.00670626
In       4.65600449       9.31072155       9.34059436       13       0.00547229      -0.00388302       0.00668392
In       1.48527943       8.40200927      -0.00000000       14      -0.00003655       0.00054259      -0.00024904
In      10.39695602       8.40200927      -0.00000000       14      -0.00002532       0.00001787      -0.00000400
In      -1.48527944      16.80401853      -0.00000000       14       0.00007666       0.00001490      -0.00002893
In       7.42639715      16.80401853      -0.00000000       14      -0.00004604      -0.00002872       0.00001180
In      -1.48527944       4.20100463       7.27635347       14       0.00121544       0.00015700      -0.00162357
In       7.42639715       4.20100463       7.27635347       14       0.00000571      -0.00000525       0.00006118
In      -4.45583830      12.60301390       7.27635347       14       0.00000972      -0.00002453       0.00001973
In       4.45583829      12.60301390       7.27635347       14      -0.00001755       0.00000955      -0.00000376
In       1.48527943       2.10050232       3.63817673       15       0.00162231      -0.00657466       0.00158967
In      10.39695602       2.10050232       3.63817673       15      -0.00000755       0.00000506       0.00000739
In      -1.48527943      10.50251159       3.63817673       15       0.00004953       0.00005863      -0.00004109
In       7.42639716      10.50251159       3.63817673       15      -0.00001201      -0.00006012      -0.00000629
In      -1.48527943      -2.10050231      10.91453020       15       0.00001406       0.00005130      -0.00007572
In       7.42639716      -2.10050231      10.91453020       15       0.00003212      -0.00001823       0.00004741
In      -4.45583830       6.30150695      10.91453020       15      -0.00006437       0.00007400       0.00005362
In       4.45583829       6.30150695      10.91453020       15      -0.00001157       0.00001280      -0.00001566
O        0.87115136       4.19680327       3.96787388       16       0.02083351       0.02519239      -0.06072187
O        9.78616128       4.20151732       3.95970891       16       0.00049180      -0.00847958      -0.00359333
O       -2.09607417      12.60352659       3.95970891       16       0.00051048      -0.00848643      -0.00359372
O        6.81560242      12.60352659       3.95970891       16       0.00052700      -0.00841874      -0.00357475
O       -2.09607417       0.00051269      11.23606238       16       0.00053167      -0.00844908      -0.00364687
O        6.81560242       0.00051269      11.23606238       16       0.00047252      -0.00849006      -0.00358854
O       -5.06663304       8.40252195      11.23606238       16       0.00049244      -0.00849376      -0.00359613
O        3.84504355       8.40252195      11.23606238       16       0.00051288      -0.00845921      -0.00358076
O       -2.09607417       3.42895217       5.29605501       17      -0.00423694      -0.00040250       0.01109195
O        6.81560242       3.42895217       5.29605501       17       0.00051000       0.00118005       0.00908512
O       -5.06663303      11.83096144       5.29605501       17       0.00050685       0.00106110       0.00914057
O        3.84504356      11.83096144       5.29605501       17       0.00047935       0.00112435       0.00911559
O       -5.06663303      -0.77205246      12.57240848       17       0.00053496       0.00126960       0.00899944
O        3.84504356      -0.77205246      12.57240848       17       0.00047647       0.00115654       0.00912434
O       -8.03719190       7.62995680      12.57240848       17       0.00048511       0.00112168       0.00912437
O        0.87448469       7.62995680      12.57240848       17       0.00049694       0.00116503       0.00920594
O       -0.43591979       2.25504574       0.05296711       18      -0.00646964       0.00683541       0.00100188
O        8.47575680       2.25504574       0.05296711       18      -0.00684949       0.00628728       0.00029368
O       -3.40647865      10.65705501       0.05296711       18      -0.00673154       0.00619886       0.00026774
O        5.50519794      10.65705501       0.05296711       18      -0.00685202       0.00615807       0.00030730
O       -3.40647865      -1.94595889       7.32932058       18      -0.00681184       0.00619575       0.00030061
O        5.50519794      -1.94595889       7.32932058       18      -0.00675211       0.00628272       0.00029248
O       -6.37703752       6.45605037       7.32932058       18      -0.00677187       0.00629289       0.00027449
O        2.53463907       6.45605037       7.32932058       18      -0.00701746       0.00610432      -0.00049138
O       -0.87448470      -0.77153978       1.97941046       19      -0.00049784      -0.00752425       0.00546113
O        8.03719189      -0.77153978       1.97941046       19      -0.00050833      -0.00732525       0.00556125
O       -3.84504356       7.63046949       1.97941046       19      -0.00069019      -0.00730012       0.00547398
O        5.06663303       7.63046949       1.97941046       19      -0.00053100      -0.00752390       0.00543660
O       -3.84504356      -4.97254441       9.25576393       19      -0.00049041      -0.00734857       0.00556625
O        5.06663303      -4.97254441       9.25576393       19      -0.00049018      -0.00734214       0.00555930
O       -6.81560243       3.42946485       9.25576393       19      -0.00047955      -0.00734725       0.00555417
O        2.09607416       3.42946485       9.25576393       19      -0.00024871      -0.00776734       0.00615121
O        3.93153849       5.00312500       1.92644334       20       0.00073381       0.00766726       0.00568675
O       12.84321508       5.00312500       1.92644334       20       0.00080670       0.00748590       0.00531450
O        0.96097963      13.40513427       1.92644334       20       0.00092944       0.00742491       0.00529946
O        9.87265622      13.40513427       1.92644334       20       0.00089353       0.00749172       0.00525219
O        0.96097963       0.80212037       9.20279681       20       0.00080540       0.00766179       0.00532894
O        9.87265622       0.80212037       9.20279681       20       0.00092470       0.00750445       0.00528197
O       -2.00957924       9.20412963       9.20279681       20       0.00085507       0.00747155       0.00530530
O        6.90209735       9.20412963       9.20279681       20       0.00092929       0.00750191       0.00530701
O        2.00957923       2.93371594       1.65787828       21      -0.00552816       0.00564631       0.01780227
O       10.92125582       2.93371594       1.65787828       21      -0.00093771      -0.00083304       0.00913961
O       -0.96097963      11.33572521       1.65787828       21      -0.00089655      -0.00080680       0.00909413
O        7.95069696      11.33572521       1.65787828       21      -0.00090973      -0.00084262       0.00913350
O       -0.96097963      -1.26728869       8.93423175       21      -0.00092402      -0.00066424       0.00911912
O        7.95069696      -1.26728869       8.93423175       21      -0.00090617      -0.00084126       0.00914151
O       -3.93153850       7.13472057       8.93423175       21      -0.00092298      -0.00078305       0.00912786
O        4.98013809       7.13472057       8.93423175       21      -0.00083931      -0.00071519       0.00909924
O        2.00957923       6.27041369       0.26856506       22      -0.00016198       0.00945106      -0.00515373
O       10.92125582       6.27041369       0.26856506       22      -0.00086966       0.00833586      -0.00384552
O       -0.96097963      14.67242296       0.26856506       22      -0.00094952       0.00842020      -0.00382210
O        7.95069696      14.67242296       0.26856506       22      -0.00092032       0.00832389      -0.00385310
O       -0.96097963       2.06940906       7.54491853       22      -0.00184964       0.00690186      -0.00161418
O        7.95069696       2.06940906       7.54491853       22      -0.00089611       0.00831286      -0.00383125
O       -3.93153850      10.47141832       7.54491853       22      -0.00089673       0.00829326      -0.00384792
O        4.98013809      10.47141832       7.54491853       22      -0.00093310       0.00830502      -0.00385656
O       -2.27138411       5.96081415       3.69114385       23      -0.00869158       0.00493557       0.00007886
O        6.64029248       5.96081415       3.69114385       23      -0.00813545       0.00426969       0.00022193
O       -5.24194297      14.36282342       3.69114385       23      -0.00811586       0.00446655       0.00027776
O        3.66973362      14.36282342       3.69114385       23      -0.00815515       0.00431581       0.00026330
O       -5.24194297       1.75980952      10.96749732       23      -0.00819967       0.00423768       0.00033802
O        3.66973362       1.75980952      10.96749732       23      -0.00811602       0.00427186       0.00029158
O       -8.21250184      10.16181878      10.96749732       23      -0.00821224       0.00429153       0.00029984
O        0.69917475      10.16181878      10.96749732       23      -0.00817673       0.00430848       0.00028259
O        3.40647865       1.94595889       7.22338635       24       0.00665936      -0.00618932      -0.00017440
O       12.31815524       1.94595889       7.22338635       24       0.00672301      -0.00626415      -0.00029154
O        0.43591979      10.34796816       7.22338635       24       0.00681267      -0.00629798      -0.00033783
O        9.34759638      10.34796816       7.22338635       24       0.00675625      -0.00626846      -0.00026567
O        0.43591979      -2.25504574      14.49973982       24       0.00680809      -0.00627445      -0.00029142
O        9.34759638      -2.25504574      14.49973982       24       0.00772994      -0.00656709       0.00046593
O       -2.53463908       6.14696352      14.49973982       24       0.00675713      -0.00626540      -0.00024754
O        6.37703751       6.14696352      14.49973982       24       0.00678049      -0.00623526      -0.00025420
O        5.24194297      -1.75980951       3.58520962       25       0.00817701      -0.00426040      -0.00035234
O       14.15361956      -1.75980951       3.58520962       25       0.00813481      -0.00432712      -0.00031979
O        2.27138411       6.64219976       3.58520962       25       0.00027558      -0.01643399      -0.00066123
O       11.18306070       6.64219976       3.58520962       25       0.00816791      -0.00427353      -0.00029127
O        2.27138411      -5.96081414      10.86156309       25       0.00816846      -0.00429140      -0.00027019
O       11.18306070      -5.96081414      10.86156309       25       0.00816662      -0.00428134      -0.00029264
O       -0.69917476       2.44119512      10.86156309       25       0.00810638      -0.00436132      -0.00045359
O        8.21250183       2.44119512      10.86156309       25       0.00816096      -0.00429284      -0.00025907
O        6.37703751       3.27389606       1.71173339       26       0.00672365       0.00337741      -0.00531510
O       15.28871410       3.27389606       1.71173339       26       0.00680575       0.00324896      -0.00541735
O        3.40647865      11.67590533       1.71173339       26       0.00679348       0.00336653      -0.00525523
O       12.31815524      11.67590533       1.71173339       26       0.00676785       0.00334283      -0.00528423
O        3.40647865      -0.92710857       8.98808686       26       0.00680516       0.00339491      -0.00537059
O       12.31815524      -0.92710857       8.98808686       26       0.00670909       0.00332138      -0.00524956
O        0.43591978       7.47490069       8.98808686       26       0.00675818       0.00338883      -0.00544907
O        9.34759637       7.47490069       8.98808686       26       0.00677189       0.00335723      -0.00528859
O        3.66973362       2.31671959       3.90674179       27      -0.00688382      -0.00218843      -0.00412169
O       12.58141021       2.31671959       3.90674179       27      -0.00820106      -0.00190967      -0.00392332
O        0.69917476      10.71872886       3.90674179       27      -0.00808345      -0.00186732      -0.00384368
O        9.61085135      10.71872886       3.90674179       27      -0.00815023      -0.00189818      -0.00384609
O        0.69917476      -1.88428504      11.18309526       27      -0.00815855      -0.00194425      -0.00380830
O        9.61085135      -1.88428504      11.18309526       27      -0.00811792      -0.00191652      -0.00380487
O       -2.27138411       6.51772422      11.18309526       27      -0.00819826      -0.00191502      -0.00383939
O        6.64029248       6.51772422      11.18309526       27      -0.00814764      -0.00186839      -0.00377226
O        0.69917475       4.32548017       6.95482129       28      -0.00813957      -0.00094122       0.01637992
O        9.61085134       4.32548017       6.95482129       28      -0.00814880      -0.00237179       0.00358611
O       -2.27138411      12.72748944       6.95482129       28      -0.00814596      -0.00238903       0.00359516
O        6.64029248      12.72748944       6.95482129       28      -0.00813221      -0.00233450       0.00357797
O       -2.27138411       0.12447554      14.23117476       28      -0.00818460      -0.00233603       0.00352924
O        6.64029248       0.12447554      14.23117476       28      -0.00811849      -0.00239119       0.00361407
O       -5.24194298       8.52648480      14.23117476       28      -0.00818363      -0.00234839       0.00360836
O        3.66973361       8.52648480      14.23117476       28      -0.00818444      -0.00239552       0.00356305
O        2.27138411      -0.12447553       0.32153218       29       0.00811422       0.00251189      -0.00333694
O       11.18306070      -0.12447553       0.32153218       29       0.00815846       0.00236855      -0.00358434
O       -0.69917475       8.27753374       0.32153218       29       0.00810625       0.00239058      -0.00364479
O        8.21250184       8.27753374       0.32153218       29       0.00813077       0.00235394      -0.00357458
O       -0.69917475      -4.32548016       7.59788565       29       0.00814609       0.00231710      -0.00354993
O        8.21250184      -4.32548016       7.59788565       29       0.00815734       0.00236167      -0.00359044
O       -3.66973362       4.07652910       7.59788565       29       0.00854151       0.00252361      -0.00351698
O        5.24194297       4.07652910       7.59788565       29       0.00802282       0.00234790      -0.00358582
O       -3.40647865       0.92710858       5.56462007       30      -0.00649298      -0.00352611       0.00537280
O        5.50519794       0.92710858       5.56462007       30      -0.00701682      -0.00326392       0.00530037
O       -6.37703751       9.32911785       5.56462007       30      -0.00679003      -0.00334417       0.00529168
O        2.53463908       9.32911785       5.56462007       30      -0.00683111      -0.00364198       0.00524491
O       -6.37703751      -3.27389605      12.84097354       30      -0.00704951      -0.00327506       0.00483397
O        2.53463908      -3.27389605      12.84097354       30      -0.00677217      -0.00335436       0.00529201
O       -9.34759638       5.12811321      12.84097354       30      -0.00676951      -0.00335299       0.00529839
O       -0.43591979       5.12811321      12.84097354       30      -0.00680535      -0.00334931       0.00537395
O        5.06663303       0.77205247       1.98029845       31      -0.00072331      -0.00101051      -0.00904829
O       13.97830962       0.77205247       1.98029845       31      -0.00042730      -0.00099735      -0.00908363