320
Lattice="17.82335318415201 1.3969445330313008e-09 -1.1638513311060052e-15 -5.941117729367724 16.804018532863342 -2.4195810530702495e-09 -5.9411177273921485 -8.402009265034724 14.552706936737213" Properties=species:S:1:pos:R:3:spacegroup_kinds:I:1:forces:R:3 spacegroup="P 1" unit_cell=conventional occupancy="_JSON {\"0\": {\"In\": 1}, \"1\": {\"In\": 1}, \"2\": {\"In\": 1}, \"3\": {\"In\": 1}, \"4\": {\"In\": 1}, \"5\": {\"In\": 1}, \"6\": {\"In\": 1}, \"7\": {\"In\": 1}, \"8\": {\"In\": 1}, \"9\": {\"In\": 1}, \"10\": {\"In\": 1}, \"11\": {\"In\": 1}, \"12\": {\"In\": 1}, \"13\": {\"In\": 1}, \"14\": {\"In\": 1}, \"15\": {\"In\": 1}, \"16\": {\"O\": 1}, \"17\": {\"O\": 1}, \"18\": {\"O\": 1}, \"19\": {\"O\": 1}, \"20\": {\"O\": 1}, \"21\": {\"O\": 1}, \"22\": {\"O\": 1}, \"23\": {\"O\": 1}, \"24\": {\"O\": 1}, \"25\": {\"O\": 1}, \"26\": {\"O\": 1}, \"27\": {\"O\": 1}, \"28\": {\"O\": 1}, \"29\": {\"O\": 1}, \"30\": {\"O\": 1}, \"31\": {\"O\": 1}, \"32\": {\"O\": 1}, \"33\": {\"O\": 1}, \"34\": {\"O\": 1}, \"35\": {\"O\": 1}, \"36\": {\"O\": 1}, \"37\": {\"O\": 1}, \"38\": {\"O\": 1}, \"39\": {\"O\": 1}}" n_minim_iter=5 energy=-361215.27355984825 stress="8.122442402975556e-05 -1.1344542051449679e-06 1.4602214874260566e-06 -1.1344542051449679e-06 7.806623847739688e-05 5.031801060724154e-06 1.4602214874260566e-06 5.031801060724154e-06 7.348632745608028e-05" free_energy=-45151.90924097551 pbc="T T T"
In      -4.25567210       3.00921460       5.70241762        0       0.00443483      -0.00409402       0.00691377
In       4.65600449       3.00921460       5.70241762        0       0.00566020      -0.00384546       0.00687009
In      -7.22623096      11.41122387       5.70241762        0       0.00545807      -0.00384915       0.00670588
In       1.68544563      11.41122387       5.70241762        0       0.00546307      -0.00387757       0.00672445
In      -7.22623096      -1.19179003      12.97877109        0       0.00547716      -0.00376491       0.00653052
In       1.68544563      -1.19179003      12.97877109        0       0.00547464      -0.00389138       0.00669577
In     -10.19678983       7.21021923      12.97877109        0       0.00544401      -0.00387558       0.00672687
In      -1.28511324       7.21021923      12.97877109        0       0.00546637      -0.00389645       0.00667617
In       7.22623096       1.19179004       1.57393584        1      -0.00548828       0.00391280      -0.00669065
In      16.13790755       1.19179004       1.57393584        1      -0.00600298       0.00366336      -0.00763025
In       4.25567210       9.59379931       1.57393584        1      -0.00541298       0.00389466      -0.00674833
In      13.16734869       9.59379931       1.57393584        1      -0.00549097       0.00386900      -0.00666288
In       4.25567210      -3.00921459       8.85028931        1      -0.00548378       0.00388458      -0.00671076
In      13.16734869      -3.00921459       8.85028931        1      -0.00550295       0.00381996      -0.00666903
In       1.28511323       5.39279467       8.85028931        1      -0.00505652       0.00442206      -0.00547549
In      10.19678982       5.39279467       8.85028931        1      -0.00542608       0.00386323      -0.00670846
In       1.28511323      -0.90871228       5.21211257        2      -0.00536521       0.00301333      -0.00711424
In      10.19678982      -0.90871228       5.21211257        2      -0.00543539       0.00387929      -0.00669244
In      -1.68544563       7.49329699       5.21211257        2      -0.00562329       0.00408029      -0.00679154
In       7.22623096       7.49329699       5.21211257        2      -0.00551197       0.00383484      -0.00674452
In      -1.68544563      -5.10971691      12.48846604        2      -0.00543287       0.00393377      -0.00679485
In       7.22623096      -5.10971691      12.48846604        2      -0.00549292       0.00384957      -0.00668306
In      -4.65600450       3.29229235      12.48846604        2      -0.00550451       0.00385291      -0.00664691
In       4.25567209       3.29229235      12.48846604        2      -0.00552211       0.00385728      -0.00672567
In      -1.48527943      -2.10050231       3.63817673        3      -0.00005351       0.00000445       0.00006734
In       7.42639716      -2.10050231       3.63817673        3       0.00001362      -0.00002286       0.00000487
In      -4.45583829       6.30150696       3.63817673        3      -0.00010562       0.00005445      -0.00005952
In       4.45583830       6.30150696       3.63817673        3      -0.00058209       0.00022418      -0.00027282
In      -4.45583829      -6.30150694      10.91453020        3      -0.00003262       0.00002860       0.00009498
In       4.45583830      -6.30150694      10.91453020        3       0.00000081       0.00000790       0.00000462
In      -7.42639716       2.10050232      10.91453020        3      -0.00002378       0.00000601      -0.00003050
In       1.48527943       2.10050232      10.91453020        3       0.00011746      -0.00003760       0.00022516
In      -1.28511324       4.05946576       3.39302421        4       0.00954044      -0.00277630      -0.00938232
In       7.62656335       4.05946576       3.39302421        4       0.00542840      -0.00390130      -0.00665152
In      -4.25567210      12.46147503       3.39302421        4       0.00547274      -0.00387821      -0.00672385
In       4.65600449      12.46147503       3.39302421        4       0.00555042      -0.00385605      -0.00669267
In      -4.25567210      -0.14153887      10.66937768        4       0.00545388      -0.00384023      -0.00671963
In       4.65600449      -0.14153887      10.66937768        4       0.00543716      -0.00386548      -0.00671459
In      -7.22623097       8.26047039      10.66937768        4       0.00547860      -0.00388770      -0.00673148
In       1.68544562       8.26047039      10.66937768        4       0.00545551      -0.00380616      -0.00664696
In       4.65600449      -2.86767572       5.45726510        5       0.00554323       0.00766457       0.00002800
In      13.56768108      -2.86767572       5.45726510        5       0.00554320       0.00783846       0.00002306
In       1.68544563       5.53433355       5.45726510        5       0.00432454       0.00606177      -0.00590846
In      10.59712222       5.53433355       5.45726510        5       0.00545124       0.00775139       0.00001916
In       1.68544563      -7.06868035      12.73361857        5       0.00553918       0.00773036      -0.00004910
In      10.59712222      -7.06868035      12.73361857        5       0.00551423       0.00774527       0.00011621
In      -1.28511324       1.33332891      12.73361857        5       0.00540508       0.00768036       0.00003740
In       7.62656335       1.33332891      12.73361857        5       0.00540142       0.00780357      -0.00006959
In      -1.28511323       1.33332891       5.45726510        6       0.00427687       0.00634627       0.00053366
In       7.62656336       1.33332891       5.45726510        6       0.00545925       0.00778248      -0.00002189
In      -4.25567209       9.73533818       5.45726510        6       0.00551274       0.00772610      -0.00004687
In       4.65600450       9.73533818       5.45726510        6       0.00541676       0.00770019       0.00003347
In      -4.25567209      -2.86767572      12.73361857        6       0.00550568       0.00767395       0.00077985
In       4.65600450      -2.86767572      12.73361857        6       0.00550496       0.00774361       0.00001447
In      -7.22623096       5.53433354      12.73361857        6       0.00547593       0.00778648       0.00001677
In       1.68544563       5.53433354      12.73361857        6       0.00545613       0.00770921      -0.00006559
In      -1.68544563       7.06868036       1.81908836        7      -0.00472934      -0.00786281      -0.00025147
In       7.22623096       7.06868036       1.81908836        7      -0.00562140      -0.00777435      -0.00004172
In      -4.65600449      15.47068963       1.81908836        7      -0.00551603      -0.00790617      -0.00019126
In       4.25567210      15.47068963       1.81908836        7      -0.00547894      -0.00773890       0.00000025
In      -4.65600449       2.86767573       9.09544183        7      -0.00559239      -0.00771621       0.00012329
In       4.25567210       2.86767573       9.09544183        7      -0.00558671      -0.00767186       0.00003931
In      -7.62656336      11.26968499       9.09544183        7      -0.00547579      -0.00774747       0.00004741
In       1.28511323      11.26968499       9.09544183        7      -0.00547562      -0.00771780       0.00002147
In       4.25567210       0.14153888       3.88332926        8      -0.00532788       0.00393345       0.00672521
In      13.16734869       0.14153888       3.88332926        8      -0.00545789       0.00380827       0.00677799
In       1.28511324       8.54354815       3.88332926        8      -0.00486080       0.00368685       0.00621514
In      10.19678983       8.54354815       3.88332926        8      -0.00551584       0.00386351       0.00670103
In       1.28511324      -4.05946575      11.15968273        8      -0.00549502       0.00385243       0.00672144
In      10.19678983      -4.05946575      11.15968273        8      -0.00543251       0.00386500       0.00675428
In      -1.68544563       4.34254351      11.15968273        8      -0.00559855       0.00391747       0.00684508
In       7.22623096       4.34254351      11.15968273        8      -0.00544168       0.00388081       0.00670279
In      -1.48527943       4.20100463       0.00000000        9       0.00059073       0.00027105       0.00032528
In       7.42639716       4.20100463      -0.00000000        9      -0.00010777       0.00007605       0.00003512
In      -4.45583829      12.60301390      -0.00000000        9      -0.00000133      -0.00002182      -0.00000022
In       4.45583830      12.60301390      -0.00000000        9       0.00004670       0.00000245       0.00002084
In      -4.45583829      -0.00000000       7.27635347        9      -0.00010361      -0.00013461      -0.00001231
In       4.45583830      -0.00000000       7.27635347        9      -0.00000574       0.00002422      -0.00001680
In      -7.42639716       8.40200926       7.27635347        9      -0.00001439       0.00000548      -0.00000343
In       1.48527943       8.40200926       7.27635347        9       0.00003089       0.00013308      -0.00000475
In       4.25567210       6.44304583       0.24515252       10      -0.00575665       0.00364952       0.00685153
In      13.16734869       6.44304583       0.24515252       10      -0.00554677       0.00379343       0.00675488
In       1.28511324      14.84505510       0.24515252       10      -0.00550187       0.00389663       0.00668777
In      10.19678983      14.84505510       0.24515252       10      -0.00549267       0.00387761       0.00665531
In       1.28511324       2.24204120       7.52150599       10      -0.00529744       0.00325086       0.00889974
In      10.19678983       2.24204120       7.52150599       10      -0.00543898       0.00388074       0.00670649
In      -1.68544563      10.64405046       7.52150599       10      -0.00545757       0.00388600       0.00667279
In       7.22623096      10.64405046       7.52150599       10      -0.00548607       0.00388806       0.00671059
In      -1.28511323      -2.24204119       7.03120094       11       0.00536079      -0.00398294      -0.00671376
In       7.62656336      -2.24204119       7.03120094       11       0.00547462      -0.00387945      -0.00670816
In      -4.25567209       6.15996808       7.03120094       11       0.00548494      -0.00398954      -0.00670700
In       4.65600450       6.15996808       7.03120094       11       0.00568182      -0.00384535      -0.00669340
In      -4.25567209      -6.44304582      14.30755441       11       0.00530549      -0.00353222      -0.00590987
In       4.65600450      -6.44304582      14.30755441       11       0.00546833      -0.00387078      -0.00670823
In      -7.22623096       1.95896344      14.30755441       11       0.00549790      -0.00387846      -0.00669226
In       1.68544563       1.95896344      14.30755441       11       0.00548832      -0.00386582      -0.00667893
In       4.25567210       2.86767572       1.81908836       12      -0.00603877      -0.00713130      -0.00017612
In      13.16734869       2.86767572       1.81908836       12      -0.00545684      -0.00770183      -0.00007367
In       1.28511324      11.26968499       1.81908836       12      -0.00547974      -0.00774690      -0.00002804
In      10.19678983      11.26968499       1.81908836       12      -0.00547382      -0.00774058      -0.00000310
In       1.28511324      -1.33332891       9.09544183       12      -0.00541826      -0.00790672       0.00017423
In      10.19678983      -1.33332891       9.09544183       12      -0.00548791      -0.00773215       0.00000231
In      -1.68544563       7.06868035       9.09544183       12      -0.00549672      -0.00782544       0.00005904
In       7.22623096       7.06868035       9.09544183       12      -0.00545337      -0.00774421       0.00002233
In       1.68544563       5.10971692       2.06424089       13       0.01526688       0.00688035      -0.01504495
In      10.59712222       5.10971692       2.06424089       13       0.00552478      -0.00387885       0.00671293
In      -1.28511323      13.51172619       2.06424089       13       0.00549390      -0.00393597       0.00669952
In       7.62656336      13.51172619       2.06424089       13       0.00545027      -0.00390192       0.00664512
In      -1.28511323       0.90871229       9.34059436       13       0.00558581      -0.00397194       0.00687948
In       7.62656336       0.90871229       9.34059436       13       0.00545219      -0.00385906       0.00668977
In      -4.25567210       9.31072155       9.34059436       13       0.00545630      -0.00383599       0.00670157
In       4.65600449       9.31072155       9.34059436       13       0.00547470      -0.00385811       0.00672416
In       1.48527943       8.40200927      -0.00000000       14       0.00004141      -0.00052092       0.00022661
In      10.39695602       8.40200927      -0.00000000       14       0.00002549      -0.00001809       0.00000410
In      -1.48527944      16.80401853      -0.00000000       14      -0.00007463      -0.00001631       0.00002897
In       7.42639715      16.80401853      -0.00000000       14       0.00004627       0.00002881      -0.00001174
In      -1.48527944       4.20100463       7.27635347       14      -0.00122299      -0.00017246       0.00160573
In       7.42639715       4.20100463       7.27635347       14      -0.00000505       0.00000500      -0.00006087
In      -4.45583830      12.60301390       7.27635347       14      -0.00000998       0.00002468      -0.00001979
In       4.45583829      12.60301390       7.27635347       14       0.00001768      -0.00000956       0.00000394
In       1.48527943       2.10050232       3.63817673       15      -0.00158314       0.00651932      -0.00158812
In      10.39695602       2.10050232       3.63817673       15       0.00000762      -0.00000528      -0.00000719
In      -1.48527943      10.50251159       3.63817673       15      -0.00004882      -0.00005986       0.00004136
In       7.42639716      10.50251159       3.63817673       15       0.00001193       0.00005982       0.00000666
In      -1.48527943      -2.10050231      10.91453020       15      -0.00001506      -0.00005368       0.00007673
In       7.42639716      -2.10050231      10.91453020       15      -0.00003281       0.00001843      -0.00004771
In      -4.45583830       6.30150695      10.91453020       15       0.00006492      -0.00007376      -0.00005402
In       4.45583829       6.30150695      10.91453020       15       0.00001180      -0.00001322       0.00001583
O        0.87781802       4.20623137       3.95154394       16      -0.02072907      -0.04328474       0.05620693
O        9.78616128       4.20151732       3.95970891       16       0.00047613      -0.00848975      -0.00357383
O       -2.09607417      12.60352659       3.95970891       16       0.00045821      -0.00848338      -0.00357330
O        6.81560242      12.60352659       3.95970891       16       0.00044137      -0.00855053      -0.00359209
O       -2.09607417       0.00051269      11.23606238       16       0.00043518      -0.00852098      -0.00351996
O        6.81560242       0.00051269      11.23606238       16       0.00049595      -0.00847932      -0.00357828
O       -5.06663304       8.40252195      11.23606238       16       0.00047605      -0.00847590      -0.00357103
O        3.84504355       8.40252195      11.23606238       16       0.00045486      -0.00851103      -0.00358654
O       -2.09607417       3.42895217       5.29605501       17       0.00509766       0.00267539       0.00720856
O        6.81560242       3.42895217       5.29605501       17       0.00045523       0.00109864       0.00919282
O       -5.06663303      11.83096144       5.29605501       17       0.00046115       0.00121598       0.00913904
O        3.84504356      11.83096144       5.29605501       17       0.00048908       0.00115401       0.00916468
O       -5.06663303      -0.77205246      12.57240848       17       0.00043292       0.00100995       0.00927713
O        3.84504356      -0.77205246      12.57240848       17       0.00049157       0.00112173       0.00915498
O       -8.03719190       7.62995680      12.57240848       17       0.00048336       0.00115654       0.00915537
O        0.87448469       7.62995680      12.57240848       17       0.00047150       0.00111358       0.00907470
O       -0.43591979       2.25504574       0.05296711       18      -0.00705185       0.00569408      -0.00047512
O        8.47575680       2.25504574       0.05296711       18      -0.00667912       0.00624180       0.00023137
O       -3.40647865      10.65705501       0.05296711       18      -0.00679708       0.00633021       0.00025671
O        5.50519794      10.65705501       0.05296711       18      -0.00667530       0.00637258       0.00021693
O       -3.40647865      -1.94595889       7.32932058       18      -0.00671547       0.00633469       0.00022395
O        5.50519794      -1.94595889       7.32932058       18      -0.00677697       0.00624780       0.00023185
O       -6.37703752       6.45605037       7.32932058       18      -0.00675531       0.00623625       0.00024997
O        2.53463907       6.45605037       7.32932058       18      -0.00652776       0.00640544       0.00101254
O       -0.87448470      -0.77153978       1.97941046       19      -0.00046757      -0.00716190       0.00565176
O        8.03719189      -0.77153978       1.97941046       19      -0.00045988      -0.00736616       0.00555118
O       -3.84504356       7.63046949       1.97941046       19      -0.00027843      -0.00739102       0.00563921
O        5.06663303       7.63046949       1.97941046       19      -0.00044367      -0.00716355       0.00568484
O       -3.84504356      -4.97254441       9.25576393       19      -0.00047766      -0.00734223       0.00554647
O        5.06663303      -4.97254441       9.25576393       19      -0.00047783      -0.00734937       0.00555313
O       -6.81560243       3.42946485       9.25576393       19      -0.00048865      -0.00734400       0.00555873
O        2.09607416       3.42946485       9.25576393       19      -0.00070831      -0.00693405       0.00498103
O        3.93153849       5.00312500       1.92644334       20       0.00107298       0.00730953       0.00492557
O       12.84321508       5.00312500       1.92644334       20       0.00101887       0.00750852       0.00527513
O        0.96097963      13.40513427       1.92644334       20       0.00089563       0.00756980       0.00528802
O        9.87265622      13.40513427       1.92644334       20       0.00093130       0.00750179       0.00533494
O        0.96097963       0.80212037       9.20279681       20       0.00101753       0.00733384       0.00526400
O        9.87265622       0.80212037       9.20279681       20       0.00090092       0.00748986       0.00530587
O       -2.00957924       9.20412963       9.20279681       20       0.00096978       0.00752304       0.00528263
O        6.90209735       9.20412963       9.20279681       20       0.00089548       0.00749193       0.00528042
O        2.00957923       2.93371594       1.65787828       21       0.00370544      -0.00740231       0.00040461
O       10.92125582       2.93371594       1.65787828       21      -0.00088767      -0.00083915       0.00913973
O       -0.96097963      11.33572521       1.65787828       21      -0.00092841      -0.00086535       0.00918582
O        7.95069696      11.33572521       1.65787828       21      -0.00091538      -0.00082930       0.00914602
O       -0.96097963      -1.26728869       8.93423175       21      -0.00090155      -0.00100711       0.00916083
O        7.95069696      -1.26728869       8.93423175       21      -0.00091861      -0.00083106       0.00913820
O       -3.93153850       7.13472057       8.93423175       21      -0.00090316      -0.00088822       0.00915219
O        4.98013809       7.13472057       8.93423175       21      -0.00098490      -0.00095618       0.00918179
O        2.00957923       6.27041369       0.26856506       22      -0.00169471       0.00707494      -0.00234450
O       10.92125582       6.27041369       0.26856506       22      -0.00095590       0.00833063      -0.00384599
O       -0.96097963      14.67242296       0.26856506       22      -0.00087526       0.00824552      -0.00386931
O        7.95069696      14.67242296       0.26856506       22      -0.00090479       0.00834256      -0.00383837
O       -0.96097963       2.06940906       7.54491853       22       0.00008665       0.00984362      -0.00617009
O        7.95069696       2.06940906       7.54491853       22      -0.00093114       0.00835374      -0.00386046
O       -3.93153850      10.47141832       7.54491853       22      -0.00092780       0.00837190      -0.00384366
O        4.98013809      10.47141832       7.54491853       22      -0.00089190       0.00836141      -0.00383479
O       -2.27138411       5.96081415       3.69114385       23      -0.00762991       0.00364747       0.00042419
O        6.64029248       5.96081415       3.69114385       23      -0.00818587       0.00430878       0.00030538
O       -5.24194297      14.36282342       3.69114385       23      -0.00820504       0.00411298       0.00024716
O        3.66973362      14.36282342       3.69114385       23      -0.00816667       0.00426244       0.00026128
O       -5.24194297       1.75980952      10.96749732       23      -0.00812305       0.00433987       0.00018797
O        3.66973362       1.75980952      10.96749732       23      -0.00820574       0.00430707       0.00023360
O       -8.21250184      10.16181878      10.96749732       23      -0.00810925       0.00428785       0.00022456
O        0.69917475      10.16181878      10.96749732       23      -0.00814513       0.00427000       0.00024184
O        3.40647865       1.94595889       7.22338635       24       0.00687715      -0.00634167      -0.00033449
O       12.31815524       1.94595889       7.22338635       24       0.00680564      -0.00626472      -0.00023363
O        0.43591979      10.34796816       7.22338635       24       0.00671572      -0.00623208      -0.00018812
O        9.34759638      10.34796816       7.22338635       24       0.00677223      -0.00626023      -0.00025906
O        0.43591979      -2.25504574      14.49973982       24       0.00671346      -0.00625421      -0.00023206
O        9.34759638      -2.25504574      14.49973982       24       0.00578517      -0.00595880      -0.00099519
O       -2.53463908       6.14696352      14.49973982       24       0.00677127      -0.00626334      -0.00027706
O        6.37703751       6.14696352      14.49973982       24       0.00674775      -0.00629179      -0.00026975
O        5.24194297      -1.75980951       3.58520962       25       0.00814522      -0.00431880      -0.00017248
O       14.15361956      -1.75980951       3.58520962       25       0.00818609      -0.00425247      -0.00020551
O        2.27138411       6.64219976       3.58520962       25       0.01615669       0.00802137       0.00014116
O       11.18306070       6.64219976       3.58520962       25       0.00815346      -0.00430504      -0.00023340
O        2.27138411      -5.96081414      10.86156309       25       0.00815319      -0.00428720      -0.00025442
O       11.18306070      -5.96081414      10.86156309       25       0.00815610      -0.00429683      -0.00023094
O       -0.69917476       2.44119512      10.86156309       25       0.00821601      -0.00421897      -0.00007222
O        8.21250183       2.44119512      10.86156309       25       0.00816086      -0.00428584      -0.00026559
O        6.37703751       3.27389606       1.71173339       26       0.00680754       0.00333969      -0.00527139
O       15.28871410       3.27389606       1.71173339       26       0.00671921       0.00347139      -0.00517559
O        3.40647865      11.67590533       1.71173339       26       0.00673390       0.00335259      -0.00533334
O       12.31815524      11.67590533       1.71173339       26       0.00676054       0.00337636      -0.00530344
O        3.40647865      -0.92710857       8.98808686       26       0.00672339       0.00332395      -0.00521760
O       12.31815524      -0.92710857       8.98808686       26       0.00681877       0.00339628      -0.00533727
O        0.43591978       7.47490069       8.98808686       26       0.00677046       0.00332568      -0.00514360
O        9.34759637       7.47490069       8.98808686       26       0.00675651       0.00336153      -0.00529931
O        3.66973362       2.31671959       3.90674179       27      -0.00944148      -0.00164069      -0.00359112
O       12.58141021       2.31671959       3.90674179       27      -0.00812259      -0.00192500      -0.00376850
O        0.69917476      10.71872886       3.90674179       27      -0.00823845      -0.00196754      -0.00384776
O        9.61085135      10.71872886       3.90674179       27      -0.00817170      -0.00193665      -0.00384548
O        0.69917476      -1.88428504      11.18309526       27      -0.00816263      -0.00189185      -0.00388289
O        9.61085135      -1.88428504      11.18309526       27      -0.00820330      -0.00191929      -0.00388710
O       -2.27138411       6.51772422      11.18309526       27      -0.00812304      -0.00191999      -0.00385135
O        6.64029248       6.51772422      11.18309526       27      -0.00817447      -0.00196675      -0.00391966
O        0.69917475       4.32548017       6.95482129       28      -0.00813849      -0.00375953      -0.00911903
O        9.61085134       4.32548017       6.95482129       28      -0.00817398      -0.00237170       0.00358079
O       -2.27138411      12.72748944       6.95482129       28      -0.00817578      -0.00235452       0.00357187
O        6.64029248      12.72748944       6.95482129       28      -0.00818911      -0.00240873       0.00358866
O       -2.27138411       0.12447554      14.23117476       28      -0.00813607      -0.00240778       0.00363705
O        6.64029248       0.12447554      14.23117476       28      -0.00820430      -0.00235212       0.00355218
O       -5.24194298       8.52648480      14.23117476       28      -0.00813768      -0.00239534       0.00355808
O        3.66973361       8.52648480      14.23117476       28      -0.00813739      -0.00234845       0.00360286
O        2.27138411      -0.12447553       0.32153218       29       0.00820691       0.00223718      -0.00382853
O       11.18306070      -0.12447553       0.32153218       29       0.00816349       0.00237523      -0.00358258
O       -0.69917475       8.27753374       0.32153218       29       0.00820954       0.00234947      -0.00352205
O        8.21250184       8.27753374       0.32153218       29       0.00819133       0.00239022      -0.00359186
O       -0.69917475      -4.32548016       7.59788565       29       0.00817521       0.00242612      -0.00361710
O        8.21250184      -4.32548016       7.59788565       29       0.00816442       0.00238187      -0.00357661
O       -3.66973362       4.07652910       7.59788565       29       0.00777977       0.00221978      -0.00364298
O        5.24194297       4.07652910       7.59788565       29       0.00829656       0.00239527      -0.00358378
O       -3.40647865       0.92710858       5.56462007       30      -0.00702327      -0.00319690       0.00521731
O        5.50519794       0.92710858       5.56462007       30      -0.00651455      -0.00345461       0.00528838
O       -6.37703751       9.32911785       5.56462007       30      -0.00673849      -0.00337454       0.00529611
O        2.53463908       9.32911785       5.56462007       30      -0.00669925      -0.00307881       0.00533801
O       -6.37703751      -3.27389605      12.84097354       30      -0.00648333      -0.00344314       0.00575289
O        2.53463908      -3.27389605      12.84097354       30      -0.00675547      -0.00336487       0.00529593
O       -9.34759638       5.12811321      12.84097354       30      -0.00675884      -0.00336563       0.00528960
O       -0.43591979       5.12811321      12.84097354       30      -0.00672381      -0.00336908       0.00521493
O        5.06663303       0.77205247       1.98029845       31      -0.00024342      -0.00126697      -0.00923134
O       13.97830962       0.77205247       1.98029845       31      -0.00053784      -0.00127965      -0.00919461