320
Lattice="17.82335318415201 1.3969445330313008e-09 -1.1638513311060052e-15 -5.941117729367724 16.804018532863342 -2.4195810530702495e-09 -5.9411177273921485 -8.402009265034724 14.552706936737213" Properties=species:S:1:pos:R:3:spacegroup_kinds:I:1:forces:R:3 spacegroup="P 1" unit_cell=conventional occupancy="_JSON {\"0\": {\"In\": 1}, \"1\": {\"In\": 1}, \"2\": {\"In\": 1}, \"3\": {\"In\": 1}, \"4\": {\"In\": 1}, \"5\": {\"In\": 1}, \"6\": {\"In\": 1}, \"7\": {\"In\": 1}, \"8\": {\"In\": 1}, \"9\": {\"In\": 1}, \"10\": {\"In\": 1}, \"11\": {\"In\": 1}, \"12\": {\"In\": 1}, \"13\": {\"In\": 1}, \"14\": {\"In\": 1}, \"15\": {\"In\": 1}, \"16\": {\"O\": 1}, \"17\": {\"O\": 1}, \"18\": {\"O\": 1}, \"19\": {\"O\": 1}, \"20\": {\"O\": 1}, \"21\": {\"O\": 1}, \"22\": {\"O\": 1}, \"23\": {\"O\": 1}, \"24\": {\"O\": 1}, \"25\": {\"O\": 1}, \"26\": {\"O\": 1}, \"27\": {\"O\": 1}, \"28\": {\"O\": 1}, \"29\": {\"O\": 1}, \"30\": {\"O\": 1}, \"31\": {\"O\": 1}, \"32\": {\"O\": 1}, \"33\": {\"O\": 1}, \"34\": {\"O\": 1}, \"35\": {\"O\": 1}, \"36\": {\"O\": 1}, \"37\": {\"O\": 1}, \"38\": {\"O\": 1}, \"39\": {\"O\": 1}}" n_minim_iter=5 energy=-361215.2735723967 stress="7.615936781190966e-05 1.3170483630336666e-06 -6.206298134741506e-06 1.3170483630336666e-06 9.120845053826579e-05 5.730294035986558e-06 -6.206298134741506e-06 5.730294035986558e-06 8.748502860789076e-05" free_energy=-45151.90924097551 pbc="T T T"
In      -4.25567210       3.00921460       5.70241762        0       0.00675584      -0.00361134       0.00645784
In       4.65600449       3.00921460       5.70241762        0       0.00665470      -0.00472504       0.00792350
In      -7.22623096      11.41122387       5.70241762        0       0.00547470      -0.00389089       0.00670309
In       1.68544563      11.41122387       5.70241762        0       0.00540589      -0.00381821       0.00667692
In      -7.22623096      -1.19179003      12.97877109        0       0.00556432      -0.00395767       0.00674658
In       1.68544563      -1.19179003      12.97877109        0       0.00546566      -0.00385783       0.00671950
In     -10.19678983       7.21021923      12.97877109        0       0.00546040      -0.00386796       0.00666776
In      -1.28511324       7.21021923      12.97877109        0       0.00547360      -0.00385599       0.00672479
In       7.22623096       1.19179004       1.57393584        1      -0.00536028       0.00381424      -0.00682129
In      16.13790755       1.19179004       1.57393584        1      -0.00526455       0.00379455      -0.00621364
In       4.25567210       9.59379931       1.57393584        1      -0.00544911       0.00389831      -0.00671024
In      13.16734869       9.59379931       1.57393584        1      -0.00542208       0.00380435      -0.00662253
In       4.25567210      -3.00921459       8.85028931        1      -0.00548272       0.00387063      -0.00670186
In      13.16734869      -3.00921459       8.85028931        1      -0.00544546       0.00391290      -0.00675045
In       1.28511323       5.39279467       8.85028931        1      -0.00546324       0.00365677      -0.00691235
In      10.19678982       5.39279467       8.85028931        1      -0.00546965       0.00388909      -0.00668329
In       1.28511323      -0.90871228       5.21211257        2      -0.00548150       0.00388159      -0.00658306
In      10.19678982      -0.90871228       5.21211257        2      -0.00550335       0.00385897      -0.00671422
In      -1.68544563       7.49329699       5.21211257        2      -0.00538833       0.00312016      -0.00677112
In       7.22623096       7.49329699       5.21211257        2      -0.00532840       0.00405228      -0.00674744
In      -1.68544563      -5.10971691      12.48846604        2      -0.00546841       0.00379281      -0.00667644
In       7.22623096      -5.10971691      12.48846604        2      -0.00547715       0.00385255      -0.00672817
In      -4.65600450       3.29229235      12.48846604        2      -0.00544776       0.00389302      -0.00674093
In       4.25567209       3.29229235      12.48846604        2      -0.00549870       0.00386564      -0.00667222
In      -1.48527943      -2.10050231       3.63817673        3       0.00002398       0.00007606      -0.00004966
In       7.42639716      -2.10050231       3.63817673        3      -0.00004030       0.00005364      -0.00000637
In      -4.45583829       6.30150696       3.63817673        3       0.00058741      -0.00027426       0.00006060
In       4.45583830       6.30150696       3.63817673        3      -0.00028572       0.00030832      -0.00063201
In      -4.45583829      -6.30150694      10.91453020        3      -0.00001091      -0.00000110       0.00004728
In       4.45583830      -6.30150694      10.91453020        3      -0.00000295      -0.00000871      -0.00000459
In      -7.42639716       2.10050232      10.91453020        3       0.00000771       0.00000039      -0.00001560
In       1.48527943       2.10050232      10.91453020        3      -0.00008064      -0.00000661      -0.00001154
In      -1.28511324       4.05946576       3.39302421        4      -0.01911212      -0.00525253      -0.01083893
In       7.62656335       4.05946576       3.39302421        4       0.00558981      -0.00390669      -0.00674161
In      -4.25567210      12.46147503       3.39302421        4       0.00548278      -0.00384404      -0.00669638
In       4.65600449      12.46147503       3.39302421        4       0.00544563      -0.00380747      -0.00672090
In      -4.25567210      -0.14153887      10.66937768        4       0.00550047      -0.00384947      -0.00673122
In       4.65600449      -0.14153887      10.66937768        4       0.00547642      -0.00392588      -0.00665493
In      -7.22623097       8.26047039      10.66937768        4       0.00547680      -0.00385537      -0.00668269
In       1.68544562       8.26047039      10.66937768        4       0.00550742      -0.00386262      -0.00669882
In       4.65600449      -2.86767572       5.45726510        5       0.00553234       0.00764925       0.00005069
In      13.56768108      -2.86767572       5.45726510        5       0.00544979       0.00768095      -0.00002622
In       1.68544563       5.53433355       5.45726510        5      -0.00394727      -0.00283889      -0.01253641
In      10.59712222       5.53433355       5.45726510        5       0.00557312       0.00771867      -0.00004413
In       1.68544563      -7.06868035      12.73361857        5       0.00537017       0.00776651       0.00009372
In      10.59712222      -7.06868035      12.73361857        5       0.00552567       0.00776895       0.00001577
In      -1.28511324       1.33332891      12.73361857        5       0.00547566       0.00774888       0.00004113
In       7.62656335       1.33332891      12.73361857        5       0.00541327       0.00780462      -0.00006641
In      -1.28511323       1.33332891       5.45726510        6       0.00571076       0.00952018      -0.00127583
In       7.62656336       1.33332891       5.45726510        6       0.00561957       0.00771118       0.00010839
In      -4.25567209       9.73533818       5.45726510        6       0.00554696       0.00764035      -0.00005552
In       4.65600450       9.73533818       5.45726510        6       0.00553018       0.00777194      -0.00003000
In      -4.25567209      -2.86767572      12.73361857        6       0.00538634       0.00772320      -0.00028689
In       4.65600450      -2.86767572      12.73361857        6       0.00551186       0.00774509       0.00001674
In      -7.22623096       5.53433354      12.73361857        6       0.00546692       0.00768838      -0.00003048
In       1.68544563       5.53433354      12.73361857        6       0.00548600       0.00773055       0.00003352
In      -1.68544563       7.06868036       1.81908836        7      -0.00499707      -0.00813981       0.00039302
In       7.22623096       7.06868036       1.81908836        7      -0.00535394      -0.00765045      -0.00002283
In      -4.65600449      15.47068963       1.81908836        7      -0.00557638      -0.00794048      -0.00013641
In       4.25567210      15.47068963       1.81908836        7      -0.00545744      -0.00774780      -0.00000059
In      -4.65600449       2.86767573       9.09544183        7      -0.00539759      -0.00774561      -0.00009604
In       4.25567210       2.86767573       9.09544183        7      -0.00543553      -0.00764977      -0.00006579
In      -7.62656336      11.26968499       9.09544183        7      -0.00547123      -0.00773660      -0.00003974
In       1.28511323      11.26968499       9.09544183        7      -0.00547121      -0.00772827      -0.00000244
In       4.25567210       0.14153888       3.88332926        8      -0.00538358       0.00305542       0.00655215
In      13.16734869       0.14153888       3.88332926        8      -0.00556690       0.00383801       0.00666656
In       1.28511324       8.54354815       3.88332926        8      -0.00599133       0.00416939       0.00707915
In      10.19678983       8.54354815       3.88332926        8      -0.00540386       0.00388550       0.00670113
In       1.28511324      -4.05946575      11.15968273        8      -0.00545430       0.00388645       0.00668809
In      10.19678983      -4.05946575      11.15968273        8      -0.00547788       0.00385037       0.00672080
In      -1.68544563       4.34254351      11.15968273        8      -0.00545663       0.00386870       0.00669930
In       7.22623096       4.34254351      11.15968273        8      -0.00547573       0.00385324       0.00667347
In      -1.48527943       4.20100463       0.00000000        9       0.00050253       0.00011202       0.00044625
In       7.42639716       4.20100463      -0.00000000        9       0.00011564      -0.00007881      -0.00010797
In      -4.45583829      12.60301390      -0.00000000        9       0.00001512      -0.00001086      -0.00001137
In       4.45583830      12.60301390      -0.00000000        9      -0.00001448       0.00002076      -0.00001635
In      -4.45583829      -0.00000000       7.27635347        9       0.00004951       0.00009629      -0.00000827
In       4.45583830      -0.00000000       7.27635347        9       0.00004405       0.00007738      -0.00004160
In      -7.42639716       8.40200926       7.27635347        9       0.00000737       0.00000313       0.00001624
In       1.48527943       8.40200926       7.27635347        9      -0.00027492       0.00011557      -0.00005890
In       4.25567210       6.44304583       0.24515252       10      -0.00546454       0.00414305       0.00653152
In      13.16734869       6.44304583       0.24515252       10      -0.00563573       0.00387190       0.00669608
In       1.28511324      14.84505510       0.24515252       10      -0.00545987       0.00386851       0.00672236
In      10.19678983      14.84505510       0.24515252       10      -0.00546521       0.00387300       0.00670678
In       1.28511324       2.24204120       7.52150599       10      -0.00555405       0.00414700       0.00671972
In      10.19678983       2.24204120       7.52150599       10      -0.00545013       0.00384450       0.00670223
In      -1.68544563      10.64405046       7.52150599       10      -0.00544747       0.00381769       0.00668612
In       7.22623096      10.64405046       7.52150599       10      -0.00545697       0.00385467       0.00667758
In      -1.28511323      -2.24204119       7.03120094       11       0.00549717      -0.00385255      -0.00670696
In       7.62656336      -2.24204119       7.03120094       11       0.00547138      -0.00384348      -0.00669852
In      -4.25567209       6.15996808       7.03120094       11       0.00525644      -0.00374115      -0.00660544
In       4.65600450       6.15996808       7.03120094       11       0.00524426      -0.00333897      -0.00595263
In      -4.25567209      -6.44304582      14.30755441       11       0.00559198      -0.00430294      -0.00757951
In       4.65600450      -6.44304582      14.30755441       11       0.00552948      -0.00385234      -0.00667791
In      -7.22623096       1.95896344      14.30755441       11       0.00550096      -0.00385853      -0.00669096
In       1.68544563       1.95896344      14.30755441       11       0.00545749      -0.00389297      -0.00666979
In       4.25567210       2.86767572       1.81908836       12      -0.00575646      -0.00781367      -0.00036962
In      13.16734869       2.86767572       1.81908836       12      -0.00528214      -0.00759476       0.00003755
In       1.28511324      11.26968499       1.81908836       12      -0.00551733      -0.00775468       0.00003679
In      10.19678983      11.26968499       1.81908836       12      -0.00547419      -0.00774424       0.00000304
In       1.28511324      -1.33332891       9.09544183       12      -0.00551461      -0.00773582       0.00000604
In      10.19678983      -1.33332891       9.09544183       12      -0.00547859      -0.00774099       0.00001964
In      -1.68544563       7.06868035       9.09544183       12      -0.00552976      -0.00770761      -0.00008955
In       7.22623096       7.06868035       9.09544183       12      -0.00552422      -0.00777707      -0.00007452
In       1.68544563       5.10971692       2.06424089       13       0.00054668      -0.00697636       0.01348387
In      10.59712222       5.10971692       2.06424089       13       0.00554629      -0.00383756       0.00667331
In      -1.28511323      13.51172619       2.06424089       13       0.00546703      -0.00382615       0.00668225
In       7.62656336      13.51172619       2.06424089       13       0.00546253      -0.00387345       0.00674905
In      -1.28511323       0.90871229       9.34059436       13       0.00550331      -0.00382650       0.00660971
In       7.62656336       0.90871229       9.34059436       13       0.00542942      -0.00380552       0.00661187
In      -4.25567210       9.31072155       9.34059436       13       0.00545875      -0.00389045       0.00672627
In       4.65600449       9.31072155       9.34059436       13       0.00545516      -0.00384523       0.00670182
In       1.48527943       8.40200927      -0.00000000       14      -0.00010509       0.00023631      -0.00007711
In      10.39695602       8.40200927      -0.00000000       14       0.00003719      -0.00001029      -0.00001465
In      -1.48527944      16.80401853      -0.00000000       14       0.00002725       0.00011338      -0.00000330
In       7.42639715      16.80401853      -0.00000000       14       0.00006486       0.00007379       0.00005465
In      -1.48527944       4.20100463       7.27635347       14       0.00049814      -0.00003652      -0.00196270
In       7.42639715       4.20100463       7.27635347       14       0.00019618      -0.00014985       0.00016293
In      -4.45583830      12.60301390       7.27635347       14       0.00000548      -0.00001737       0.00001239
In       4.45583829      12.60301390       7.27635347       14      -0.00001942       0.00004924       0.00001539
In       1.48527943       2.10050232       3.63817673       15      -0.00517540       0.00803173       0.00029321
In      10.39695602       2.10050232       3.63817673       15       0.00004234      -0.00000418      -0.00000333
In      -1.48527943      10.50251159       3.63817673       15       0.00006355       0.00009103      -0.00004549
In       7.42639716      10.50251159       3.63817673       15      -0.00004658      -0.00010144       0.00000227
In      -1.48527943      -2.10050231      10.91453020       15       0.00001115       0.00001767      -0.00007322
In       7.42639716      -2.10050231      10.91453020       15      -0.00002585       0.00000692      -0.00003863
In      -4.45583830       6.30150695      10.91453020       15      -0.00003444       0.00004138       0.00002485
In       4.45583829       6.30150695      10.91453020       15       0.00000668      -0.00000505       0.00005153
O        0.86448469       4.20151732       3.95970891       16       0.07109317       0.00915797       0.00988224
O        9.78616128       4.20151732       3.95970891       16       0.00048298      -0.00848023      -0.00359105
O       -2.09607417      12.60352659       3.95970891       16       0.00050465      -0.00845894      -0.00359200
O        6.81560242      12.60352659       3.95970891       16       0.00052529      -0.00841640      -0.00357957
O       -2.09607417       0.00051269      11.23606238       16       0.00050715      -0.00846752      -0.00362331
O        6.81560242       0.00051269      11.23606238       16       0.00049087      -0.00848847      -0.00356858
O       -5.06663304       8.40252195      11.23606238       16       0.00048111      -0.00848530      -0.00359497
O        3.84504355       8.40252195      11.23606238       16       0.00050294      -0.00851024      -0.00362578
O       -2.09607417       3.42895217       5.29605501       17      -0.00471343      -0.00101115       0.01170971
O        6.81560242       3.42895217       5.29605501       17       0.00015731       0.00105113       0.00915614
O       -5.06663303      11.83096144       5.29605501       17       0.00049703       0.00113816       0.00913069
O        3.84504356      11.83096144       5.29605501       17       0.00049073       0.00110107       0.00913946
O       -5.06663303      -0.77205246      12.57240848       17       0.00049576       0.00116398       0.00908616
O        3.84504356      -0.77205246      12.57240848       17       0.00048635       0.00113341       0.00914449
O       -8.03719190       7.62995680      12.57240848       17       0.00048125       0.00115938       0.00917661
O        0.87448469       7.62995680      12.57240848       17       0.00048056       0.00113834       0.00912236
O       -0.43591979       2.25504574       0.05296711       18      -0.00677547       0.00592537      -0.00056096
O        8.47575680       2.25504574       0.05296711       18      -0.00685941       0.00628251       0.00030674
O       -3.40647865      10.65705501       0.05296711       18      -0.00678823       0.00633410       0.00025044
O        5.50519794      10.65705501       0.05296711       18      -0.00679077       0.00622518       0.00027668
O       -3.40647865      -1.94595889       7.32932058       18      -0.00679815       0.00621597       0.00029427
O        5.50519794      -1.94595889       7.32932058       18      -0.00677468       0.00631270       0.00018004
O       -6.37703752       6.45605037       7.32932058       18      -0.00680593       0.00628817       0.00030158
O        2.53463907       6.45605037       7.32932058       18      -0.00644543       0.00640897       0.00045179
O       -0.87448470      -0.77153978       1.97941046       19      -0.00068382      -0.00776698       0.00525096
O        8.03719189      -0.77153978       1.97941046       19      -0.00053079      -0.00732528       0.00557527
O       -3.84504356       7.63046949       1.97941046       19      -0.00048358      -0.00725802       0.00557183
O        5.06663303       7.63046949       1.97941046       19      -0.00047870      -0.00737390       0.00527993
O       -3.84504356      -4.97254441       9.25576393       19      -0.00048942      -0.00734253       0.00554675
O        5.06663303      -4.97254441       9.25576393       19      -0.00048196      -0.00735090       0.00555676
O       -6.81560243       3.42946485       9.25576393       19      -0.00048932      -0.00734870       0.00555888
O        2.09607416       3.42946485       9.25576393       19      -0.00035044      -0.00745363       0.00592844
O        3.93153849       5.00312500       1.92644334       20       0.00063340       0.00749791       0.00603067
O       12.84321508       5.00312500       1.92644334       20       0.00092756       0.00726366       0.00514224
O        0.96097963      13.40513427       1.92644334       20       0.00090989       0.00754687       0.00529029
O        9.87265622      13.40513427       1.92644334       20       0.00093771       0.00754763       0.00529467
O        0.96097963       0.80212037       9.20279681       20       0.00085617       0.00753139       0.00526667
O        9.87265622       0.80212037       9.20279681       20       0.00092980       0.00750300       0.00528512
O       -2.00957924       9.20412963       9.20279681       20       0.00087210       0.00745622       0.00531634
O        6.90209735       9.20412963       9.20279681       20       0.00087969       0.00745853       0.00522693
O        2.00957923       2.93371594       1.65787828       21      -0.00313051       0.00382314       0.01778783
O       10.92125582       2.93371594       1.65787828       21      -0.00085281      -0.00084336       0.00911415
O       -0.96097963      11.33572521       1.65787828       21      -0.00088334      -0.00083247       0.00916312
O        7.95069696      11.33572521       1.65787828       21      -0.00091093      -0.00084162       0.00913357
O       -0.96097963      -1.26728869       8.93423175       21      -0.00092151      -0.00079427       0.00920358
O        7.95069696      -1.26728869       8.93423175       21      -0.00090816      -0.00083816       0.00913530
O       -3.93153850       7.13472057       8.93423175       21      -0.00089903      -0.00081252       0.00917393
O        4.98013809       7.13472057       8.93423175       21      -0.00087653      -0.00070414       0.00932790
O        2.00957923       6.27041369       0.26856506       22      -0.00044906       0.00868739      -0.00421007
O       10.92125582       6.27041369       0.26856506       22      -0.00102939       0.00837957      -0.00387290
O       -0.96097963      14.67242296       0.26856506       22      -0.00092465       0.00842813      -0.00378994
O        7.95069696      14.67242296       0.26856506       22      -0.00095567       0.00825953      -0.00385843
O       -0.96097963       2.06940906       7.54491853       22      -0.00113984       0.00756018      -0.00267958
O        7.95069696       2.06940906       7.54491853       22      -0.00099269       0.00836876      -0.00390741
O       -3.93153850      10.47141832       7.54491853       22      -0.00093680       0.00833706      -0.00379622
O        4.98013809      10.47141832       7.54491853       22      -0.00091167       0.00828455      -0.00386067
O       -2.27138411       5.96081415       3.69114385       23      -0.00973625       0.00624260      -0.00042147
O        6.64029248       5.96081415       3.69114385       23      -0.00821590       0.00434252       0.00031318
O       -5.24194297      14.36282342       3.69114385       23      -0.00815909       0.00432049       0.00024688
O        3.66973362      14.36282342       3.69114385       23      -0.00815178       0.00429965       0.00026167
O       -5.24194297       1.75980952      10.96749732       23      -0.00815667       0.00426297       0.00027230
O        3.66973362       1.75980952      10.96749732       23      -0.00818360       0.00432515       0.00028664
O       -8.21250184      10.16181878      10.96749732       23      -0.00816617       0.00428562       0.00026324
O        0.69917475      10.16181878      10.96749732       23      -0.00814916       0.00426533       0.00024654
O        3.40647865       1.94595889       7.22338635       24       0.00666042      -0.00626014      -0.00033472
O       12.31815524       1.94595889       7.22338635       24       0.00673233      -0.00627006      -0.00027841
O        0.43591979      10.34796816       7.22338635       24       0.00682500      -0.00616808      -0.00024474
O        9.34759638      10.34796816       7.22338635       24       0.00675134      -0.00626921      -0.00026932
O        0.43591979      -2.25504574      14.49973982       24       0.00675714      -0.00627888      -0.00025960
O        9.34759638      -2.25504574      14.49973982       24       0.00610330      -0.00623279      -0.00046826
O       -2.53463908       6.14696352      14.49973982       24       0.00675503      -0.00625980      -0.00025425
O        6.37703751       6.14696352      14.49973982       24       0.00677641      -0.00622535      -0.00025197
O        5.24194297      -1.75980951       3.58520962       25       0.00818194      -0.00435977      -0.00031076
O       14.15361956      -1.75980951       3.58520962       25       0.00816156      -0.00435398      -0.00027667
O        2.27138411       6.64219976       3.58520962       25       0.00379610      -0.01571754       0.00068936
O       11.18306070       6.64219976       3.58520962       25       0.00811953      -0.00425355      -0.00025080
O        2.27138411      -5.96081414      10.86156309       25       0.00816811      -0.00429086      -0.00027006
O       11.18306070      -5.96081414      10.86156309       25       0.00819350      -0.00432030      -0.00022824
O       -0.69917476       2.44119512      10.86156309       25       0.00820784      -0.00435651      -0.00030228
O        8.21250183       2.44119512      10.86156309       25       0.00816325      -0.00427785      -0.00026534
O        6.37703751       3.27389606       1.71173339       26       0.00658070       0.00317498      -0.00525363
O       15.28871410       3.27389606       1.71173339       26       0.00758951       0.00351570      -0.00492445
O        3.40647865      11.67590533       1.71173339       26       0.00678649       0.00341528      -0.00530920
O       12.31815524      11.67590533       1.71173339       26       0.00677846       0.00336439      -0.00528101
O        3.40647865      -0.92710857       8.98808686       26       0.00671911       0.00330928      -0.00528001
O       12.31815524      -0.92710857       8.98808686       26       0.00674675       0.00335435      -0.00526227
O        0.43591978       7.47490069       8.98808686       26       0.00666820       0.00330132      -0.00536453
O        9.34759637       7.47490069       8.98808686       26       0.00676111       0.00336456      -0.00528778
O        3.66973362       2.31671959       3.90674179       27      -0.01142651       0.00068506      -0.00344156
O       12.58141021       2.31671959       3.90674179       27      -0.00818160      -0.00191124      -0.00400697
O        0.69917476      10.71872886       3.90674179       27      -0.00816279      -0.00192927      -0.00386288
O        9.61085135      10.71872886       3.90674179       27      -0.00814933      -0.00190430      -0.00384645
O        0.69917476      -1.88428504      11.18309526       27      -0.00815625      -0.00193605      -0.00383545
O        9.61085135      -1.88428504      11.18309526       27      -0.00814973      -0.00192045      -0.00382461
O       -2.27138411       6.51772422      11.18309526       27      -0.00819146      -0.00189284      -0.00386163
O        6.64029248       6.51772422      11.18309526       27      -0.00818470      -0.00194207      -0.00391333
O        0.69917475       4.32548017       6.95482129       28      -0.00635259      -0.00194590       0.00422451
O        9.61085134       4.32548017       6.95482129       28      -0.00821885      -0.00237493       0.00358303
O       -2.27138411      12.72748944       6.95482129       28      -0.00817925      -0.00236130       0.00357967
O        6.64029248      12.72748944       6.95482129       28      -0.00813114      -0.00233590       0.00358172
O       -2.27138411       0.12447554      14.23117476       28      -0.00811622      -0.00232861       0.00352230
O        6.64029248       0.12447554      14.23117476       28      -0.00820507      -0.00235704       0.00355294
O       -5.24194298       8.52648480      14.23117476       28      -0.00819209      -0.00234043       0.00361454
O        3.66973361       8.52648480      14.23117476       28      -0.00814325      -0.00233707       0.00360749
O        2.27138411      -0.12447553       0.32153218       29       0.00806209       0.00255654      -0.00362568
O       11.18306070      -0.12447553       0.32153218       29       0.00810517       0.00234582      -0.00360260
O       -0.69917475       8.27753374       0.32153218       29       0.00791399       0.00257958      -0.00357353
O        8.21250184       8.27753374       0.32153218       29       0.00812462       0.00235134      -0.00356684
O       -0.69917475      -4.32548016       7.59788565       29       0.00816345       0.00236660      -0.00358441
O        8.21250184      -4.32548016       7.59788565       29       0.00815643       0.00236241      -0.00358492
O       -3.66973362       4.07652910       7.59788565       29       0.00816670       0.00259228      -0.00353235
O        5.24194297       4.07652910       7.59788565       29       0.00802834       0.00261978      -0.00362817
O       -3.40647865       0.92710858       5.56462007       30      -0.00683400      -0.00358941       0.00537726
O        5.50519794       0.92710858       5.56462007       30      -0.00642994      -0.00369983       0.00525679
O       -6.37703751       9.32911785       5.56462007       30      -0.00682932      -0.00332279       0.00529408
O        2.53463908       9.32911785       5.56462007       30      -0.00678859      -0.00329383       0.00518122
O       -6.37703751      -3.27389605      12.84097354       30      -0.00683306      -0.00341913       0.00525468
O        2.53463908      -3.27389605      12.84097354       30      -0.00676500      -0.00335469       0.00528934
O       -9.34759638       5.12811321      12.84097354       30      -0.00676799      -0.00336264       0.00529522
O       -0.43591979       5.12811321      12.84097354       30      -0.00676420      -0.00336279       0.00529037
O        5.06663303       0.77205247       1.98029845       31      -0.00047620      -0.00108642      -0.00912602
O       13.97830962       0.77205247       1.98029845       31      -0.00048310      -0.00092079      -0.00905058