40
Lattice="8.836785012743686 6.926015600605442e-10 2.832920473347709e-15 -2.945595004900885 8.33140080830075 -1.1996205713992377e-09 -2.9455950039214023 -4.165700403457774 7.215204749898399" Properties=species:S:1:pos:R:3:spacegroup_kinds:I:1:forces:R:3 spacegroup="P 1" unit_cell=conventional occupancy="_JSON {\"0\": {\"In\": 1}, \"1\": {\"In\": 1}, \"2\": {\"In\": 1}, \"3\": {\"In\": 1}, \"4\": {\"In\": 1}, \"5\": {\"In\": 1}, \"6\": {\"In\": 1}, \"7\": {\"In\": 1}, \"8\": {\"In\": 1}, \"9\": {\"In\": 1}, \"10\": {\"In\": 1}, \"11\": {\"In\": 1}, \"12\": {\"In\": 1}, \"13\": {\"In\": 1}, \"14\": {\"In\": 1}, \"15\": {\"In\": 1}, \"16\": {\"O\": 1}, \"17\": {\"O\": 1}, \"18\": {\"O\": 1}, \"19\": {\"O\": 1}, \"20\": {\"O\": 1}, \"21\": {\"O\": 1}, \"22\": {\"O\": 1}, \"23\": {\"O\": 1}, \"24\": {\"O\": 1}, \"25\": {\"O\": 1}, \"26\": {\"O\": 1}, \"27\": {\"O\": 1}, \"28\": {\"O\": 1}, \"29\": {\"O\": 1}, \"30\": {\"O\": 1}, \"31\": {\"O\": 1}, \"32\": {\"O\": 1}, \"33\": {\"O\": 1}, \"34\": {\"O\": 1}, \"35\": {\"O\": 1}, \"36\": {\"O\": 1}, \"37\": {\"O\": 1}, \"38\": {\"O\": 1}, \"39\": {\"O\": 1}}" n_minim_iter=1 energy=-45151.740276411525 stress="-0.025505512317067297 -2.090012186072184e-13 -1.506903428079752e-13 -2.090012186072184e-13 -0.02550551231693115 -2.6019334903104045e-13 -1.506903428079752e-13 -2.6019334903104045e-13 -0.025505512317331436" free_energy=-45151.740276411525 pbc="T T T"
In      -4.21990846       2.98392589       5.65449588        0      -0.00703713       0.00497600      -0.00861869
In       7.16550346       1.18177452       1.56070886        1       0.00703713      -0.00497600       0.00861869
In       1.27431345      -0.90107568       5.16831124        2       0.00703713      -0.00497600       0.00861869
In      -1.47279750      -2.08285020       3.60760237        3      -0.00000000      -0.00000000      -0.00000000
In      -1.27431345       4.02535099       3.36451005        4      -0.00703713       0.00497600       0.00861869
In       4.61687656      -2.84357646       5.41140356        5      -0.00703713      -0.00995200      -0.00000000
In      -1.27431345       1.32212394       5.41140356        6      -0.00703713      -0.00995200       0.00000000
In      -1.67128155       7.00927687       1.80380118        7       0.00703713       0.00995200      -0.00000000
In       4.21990845       0.14034942       3.85069470        8       0.00703713      -0.00497600      -0.00861869
In      -1.47279750       4.16570041      -0.00000000        9       0.00000000       0.00000000       0.00000000
In       4.21990845       6.38890003       0.24309232       10       0.00703713      -0.00497600      -0.00861869
In      -1.27431345      -2.22319962       6.97211242       11      -0.00703713       0.00497600       0.00861869
In       4.21990845       2.84357647       1.80380118       12       0.00703713       0.00995200      -0.00000000
In       1.67128155       5.06677609       2.04689351       13      -0.00703713       0.00497600      -0.00861869
In       4.41839250       0.00000000      -0.00000000       14      -0.00000000       0.00000000      -0.00000000
In       1.47279750       2.08285020       3.60760237       15       0.00000000       0.00000000      -0.00000000
O        0.86713573       4.16620878       3.92643247       16      -0.01930176      -0.02862288       0.05755281
O       -2.07845927       3.40013608       5.25154824       17      -0.01930176       0.06415364      -0.00398826
O       -0.43225642       2.23609488       0.05252199       18       0.02706480       0.03136753       0.05279894
O       -0.86713574      -0.76505595       1.96277597       19       0.01930176       0.03553076       0.05356455
O        3.89849879       4.96107994       1.91025397       20       0.06691855      -0.00504728       0.00076561
O        1.99269121       2.90906170       1.64394587       21      -0.06691855      -0.00318668      -0.00398826
O        1.99269121       6.21771865       0.26630810       22      -0.06691855      -0.00186060       0.00475387
O       -2.25229595       5.91072091       3.66012436       23      -0.02055199      -0.03597278       0.05279894
O        3.37785142       1.92960552       7.16268275       24      -0.02706480      -0.03136753      -0.05279894
O        5.19789095      -1.74502050       3.55508038       25       0.02055199       0.03597278      -0.05279894
O        6.32344643       3.24638303       1.69734839       26      -0.02706480       0.06140899      -0.00076561
O        3.63889406       2.29725044       3.87391048       27      -0.02055199       0.06371161       0.00475387
O        0.69329906       4.28912988       6.89637465       28      -0.02055199      -0.02773883      -0.05755281
O        2.25229595      -0.12342947       0.31883010       29       0.02055199       0.02773883       0.05755281
O       -3.37785143       0.91931738       5.51785635       30       0.02706480      -0.06140899       0.00076561
O        5.02405427       0.76556433       1.96365650       31       0.01930176      -0.06415364       0.00398826
O        0.95290379       1.25663871       5.57125888       32       0.06691855       0.00318668       0.00398826
O        3.37785142      -1.01028814       5.57037834       33      -0.02706480      -0.03004146       0.05356455
O        2.07845927      -0.00050837       3.28877227       34       0.01930176       0.02862288      -0.05755281
O        0.95290379      -2.05201824       6.94889664       35       0.06691855       0.00186060      -0.00475387
O       -0.69329906       1.86844997       3.34129427       36       0.02055199      -0.06371161      -0.00475387
O       -0.95290379      -0.79537953       5.30495077       37      -0.06691855       0.00504728      -0.00076561
O       -0.43225642       5.17598855       1.64482640       38       0.02706480       0.03004146      -0.05356455
O        3.81273074       4.93075635       5.25242878       39      -0.01930176      -0.03553076      -0.05356455
40
Lattice="8.836785012743686 6.926015600605442e-10 2.8329204733477097e-15 -2.945595004900885 8.33140080830075 -1.199620571399238e-09 -2.9455950039214023 -4.165700403457774 7.215204749898401" Properties=species:S:1:pos:R:3:spacegroup_kinds:I:1:forces:R:3 spacegroup="P 1" unit_cell=conventional occupancy="_JSON {\"0\": {\"In\": 1}, \"1\": {\"In\": 1}, \"2\": {\"In\": 1}, \"3\": {\"In\": 1}, \"4\": {\"In\": 1}, \"5\": {\"In\": 1}, \"6\": {\"In\": 1}, \"7\": {\"In\": 1}, \"8\": {\"In\": 1}, \"9\": {\"In\": 1}, \"10\": {\"In\": 1}, \"11\": {\"In\": 1}, \"12\": {\"In\": 1}, \"13\": {\"In\": 1}, \"14\": {\"In\": 1}, \"15\": {\"In\": 1}, \"16\": {\"O\": 1}, \"17\": {\"O\": 1}, \"18\": {\"O\": 1}, \"19\": {\"O\": 1}, \"20\": {\"O\": 1}, \"21\": {\"O\": 1}, \"22\": {\"O\": 1}, \"23\": {\"O\": 1}, \"24\": {\"O\": 1}, \"25\": {\"O\": 1}, \"26\": {\"O\": 1}, \"27\": {\"O\": 1}, \"28\": {\"O\": 1}, \"29\": {\"O\": 1}, \"30\": {\"O\": 1}, \"31\": {\"O\": 1}, \"32\": {\"O\": 1}, \"33\": {\"O\": 1}, \"34\": {\"O\": 1}, \"35\": {\"O\": 1}, \"36\": {\"O\": 1}, \"37\": {\"O\": 1}, \"38\": {\"O\": 1}, \"39\": {\"O\": 1}}" n_minim_iter=2 energy=-45151.744956057766 stress="-0.024917315877137008 1.7945698580188784e-14 1.7085009801153617e-13 1.7945698580188784e-14 -0.024917315877024504 1.2646462158135872e-13 1.7085009801153617e-13 1.2646462158135872e-13 -0.024917315876853002" free_energy=-45151.744956057766 pbc="T T T"
In      -4.22041111       2.98428132       5.65388026        0       0.00986271      -0.00697399       0.01207930
In       7.16600611       1.18141909       1.56132448        1      -0.00986271       0.00697399      -0.01207930
In       1.27481610      -0.90143111       5.16892686        2      -0.00986271       0.00697399      -0.01207930
In      -1.47279750      -2.08285020       3.60760237        3       0.00000000      -0.00000000      -0.00000000
In      -1.27481611       4.02570642       3.36512567        4       0.00986271      -0.00697399      -0.01207930
In       4.61637390      -2.84428732       5.41140356        5       0.00986271       0.01394797      -0.00000000
In      -1.27481611       1.32141308       5.41140356        6       0.00986271       0.01394797       0.00000000
In      -1.67077890       7.00998773       1.80380118        7      -0.00986271      -0.01394797       0.00000000
In       4.22041111       0.13999399       3.85007907        8      -0.00986271       0.00697399       0.01207930
In      -1.47279750       4.16570041      -0.00000000        9       0.00000000       0.00000000      -0.00000000
In       4.22041111       6.38854460       0.24247670       10      -0.00986271       0.00697399       0.01207930
In      -1.27481611      -2.22284419       6.97272805       11       0.00986271      -0.00697399      -0.01207930
In       4.22041111       2.84428733       1.80380118       12      -0.00986271      -0.01394797       0.00000000
In       1.67077890       5.06713152       2.04627789       13       0.00986271      -0.00697399       0.01207930
In       4.41839250       0.00000000      -0.00000000       14       0.00000000      -0.00000000       0.00000000
In       1.47279750       2.08285020       3.60760237       15      -0.00000000      -0.00000000       0.00000000
O        0.86575704       4.16416429       3.93054339       16      -0.02060498      -0.00807881       0.00639625
O       -2.07983797       3.40471849       5.25126337       17      -0.02060498       0.00957872       0.00379833
O       -0.43032322       2.23833542       0.05629334       18      -0.00545420      -0.00113450       0.02235418
O       -0.86575704      -0.76251803       1.96660201       19       0.02060498       0.00149991       0.01019458
O        3.90327869       4.96071942       1.91030866       20       0.01589923       0.01140628      -0.01215959
O        1.98791131       2.90883408       1.64366099       21      -0.01589923       0.01623366       0.00379833
O        1.98791131       6.21758575       0.26664767       22      -0.01589923      -0.00482738      -0.01595792
O       -2.25376395       5.90815142       3.66389572       23      -0.00074845       0.00552043       0.02235418
O        3.37591822       1.92736499       7.15891140       24       0.00545420       0.00113450      -0.02235418
O        5.19935895      -1.74245101       3.55130903       25       0.00074845      -0.00552043      -0.02235418
O        6.32151323       3.25076938       1.69729371       26       0.00545420       0.01879204       0.01215959
O        3.63742606       2.30180126       3.87425004       27      -0.00074845       0.01659907      -0.01595792
O        0.69183106       4.28714853       6.89226373       28      -0.00074845      -0.02211950      -0.00639625
O        2.25376394      -0.12144812       0.32294101       29       0.00074845       0.02211950       0.00639625
O       -3.37591823       0.91493103       5.51791104       30      -0.00545420      -0.01879204      -0.01215959
O        5.02543297       0.76098192       1.96394138       31       0.02060498      -0.00957872      -0.00379833
O        0.95768369       1.25686633       5.57154375       32       0.01589923      -0.01623366      -0.00379833
O        3.37591822      -1.01243396       5.57420438       33       0.00545420      -0.01992654       0.01019458
O        2.07983796       0.00153612       3.28466136       34       0.02060498       0.00807881      -0.00639625
O        0.95768369      -2.05188534       6.94855708       35       0.01589923       0.00482738       0.01595792
O       -0.69183106       1.86389914       3.34095470       36       0.00074845      -0.01659907       0.01595792
O       -0.95768369      -0.79501901       5.30489608       37      -0.01589923      -0.01140628       0.01215959
O       -0.43032322       5.17813437       1.64100036       38      -0.00545420       0.01992654      -0.01019458
O        3.81135204       4.92821844       5.24860274       39      -0.02060498      -0.00149991      -0.01019458
40
Lattice="8.836785012743686 6.926015600605442e-10 2.8329204733477086e-15 -2.945595004900885 8.33140080830075 -1.199620571399238e-09 -2.9455950039214023 -4.165700403457774 7.215204749898401" Properties=species:S:1:pos:R:3:spacegroup_kinds:I:1:forces:R:3 spacegroup="P 1" unit_cell=conventional occupancy="_JSON {\"0\": {\"In\": 1}, \"1\": {\"In\": 1}, \"2\": {\"In\": 1}, \"3\": {\"In\": 1}, \"4\": {\"In\": 1}, \"5\": {\"In\": 1}, \"6\": {\"In\": 1}, \"7\": {\"In\": 1}, \"8\": {\"In\": 1}, \"9\": {\"In\": 1}, \"10\": {\"In\": 1}, \"11\": {\"In\": 1}, \"12\": {\"In\": 1}, \"13\": {\"In\": 1}, \"14\": {\"In\": 1}, \"15\": {\"In\": 1}, \"16\": {\"O\": 1}, \"17\": {\"O\": 1}, \"18\": {\"O\": 1}, \"19\": {\"O\": 1}, \"20\": {\"O\": 1}, \"21\": {\"O\": 1}, \"22\": {\"O\": 1}, \"23\": {\"O\": 1}, \"24\": {\"O\": 1}, \"25\": {\"O\": 1}, \"26\": {\"O\": 1}, \"27\": {\"O\": 1}, \"28\": {\"O\": 1}, \"29\": {\"O\": 1}, \"30\": {\"O\": 1}, \"31\": {\"O\": 1}, \"32\": {\"O\": 1}, \"33\": {\"O\": 1}, \"34\": {\"O\": 1}, \"35\": {\"O\": 1}, \"36\": {\"O\": 1}, \"37\": {\"O\": 1}, \"38\": {\"O\": 1}, \"39\": {\"O\": 1}}" n_minim_iter=3 energy=-45151.74538952035 stress="-0.02476320391786809 -2.6038338357909362e-14 -1.2176579923550424e-13 -2.6038338357909362e-14 -0.024763203918020112 -2.140091018141492e-14 -1.2176579923550424e-13 -2.140091018141492e-14 -0.024763203917861812" free_energy=-45151.74538952035 pbc="T T T"
In      -4.22035054       2.98423848       5.65395445        0       0.01092183      -0.00772290       0.01337646
In       7.16594554       1.18146193       1.56125029        1      -0.01092183       0.00772290      -0.01337646
In       1.27475553      -0.90138828       5.16885267        2      -0.01092183       0.00772290      -0.01337646
In      -1.47279750      -2.08285020       3.60760237        3      -0.00000000       0.00000000       0.00000000
In      -1.27475553       4.02566358       3.36505148        4       0.01092183      -0.00772290      -0.01337646
In       4.61643448      -2.84420166       5.41140356        5       0.01092183       0.01544580      -0.00000000
In      -1.27475553       1.32149875       5.41140356        6       0.01092183       0.01544580       0.00000000
In      -1.67083948       7.00990207       1.80380118        7      -0.01092183      -0.01544580       0.00000000
In       4.22035053       0.14003682       3.85015326        8      -0.01092183       0.00772290       0.01337646
In      -1.47279750       4.16570041      -0.00000000        9       0.00000000      -0.00000000      -0.00000000
In       4.22035053       6.38858743       0.24255089       10      -0.01092183       0.00772290       0.01337646
In      -1.27475553      -2.22288702       6.97265386       11       0.01092183      -0.00772290      -0.01337646
In       4.22035053       2.84420166       1.80380118       12      -0.01092183      -0.01544580       0.00000000
In       1.67083947       5.06708869       2.04635207       13       0.01092183      -0.00772290       0.01337646
In       4.41839250       0.00000000      -0.00000000       14       0.00000000      -0.00000000       0.00000000
In       1.47279750       2.08285020       3.60760237       15      -0.00000000       0.00000000      -0.00000000
O        0.86507742       4.16355536       3.93159300       16      -0.01899899      -0.00096767      -0.00466015
O       -2.08051759       3.40593194       5.25126591       17      -0.01899899      -0.00355197       0.00316810
O       -0.42997981       2.23882548       0.05754884       18      -0.01059416      -0.00949508       0.01346188
O       -0.86507742      -0.76191351       1.96765416       19       0.01899899      -0.00451964      -0.00149204
O        3.90464929       4.96083975       1.91010532       20       0.00298417       0.01229186      -0.01495392
O        1.98654072       2.90907035       1.64366353       21      -0.00298417       0.01909641       0.00316810
O        1.98654072       6.21746981       0.26644178       22      -0.00298417      -0.00680455      -0.01812203
O       -2.25411151       5.90766430       3.66515122       23       0.00542067       0.01315330       0.01346188
O        3.37557481       1.92687493       7.15765590       24       0.01059416       0.00949508      -0.01346188
O        5.19970651      -1.74196389       3.55005353       25      -0.00542067      -0.01315330      -0.01346188
O        6.32116981       3.25210171       1.69749705       26       0.01059416       0.00691079       0.01495392
O        3.63707850       2.30313212       3.87404416       27       0.00542067       0.00508168      -0.01812203
O        0.69148349       4.28630480       6.89121412       28       0.00542067      -0.01823498       0.00466015
O        2.25411151      -0.12060439       0.32399063       29      -0.00542067       0.01823498      -0.00466015
O       -3.37557481       0.91359870       5.51770769       30      -0.01059416      -0.00691079      -0.01495392
O        5.02611259       0.75976847       1.96393884       31       0.01899899       0.00355197      -0.00316810
O        0.95905429       1.25663006       5.57154121       32       0.00298417      -0.01909641      -0.00316810
O        3.37557481      -1.01327622       5.57525654       33       0.01059416      -0.01640587      -0.00149204
O        2.08051759       0.00214505       3.28361174       34       0.01899899       0.00096767       0.00466015
O        0.95905429      -2.05176940       6.94876296       35       0.00298417       0.00680455       0.01812203
O       -0.69148350       1.86256829       3.34116059       36      -0.00542067      -0.00508168       0.01812203
O       -0.95905429      -0.79513935       5.30509943       37      -0.00298417      -0.01229186       0.01495392
O       -0.42997981       5.17897663       1.63994821       38      -0.01059416       0.01640587       0.00149204
O        3.81067242       4.92761391       5.24755058       39      -0.01899899       0.00451964       0.00149204
40
Lattice="8.836785012743686 6.926015600605442e-10 2.8329204733477105e-15 -2.945595004900885 8.33140080830075 -1.199620571399238e-09 -2.9455950039214023 -4.165700403457774 7.215204749898401" Properties=species:S:1:pos:R:3:spacegroup_kinds:I:1:forces:R:3 spacegroup="P 1" unit_cell=conventional occupancy="_JSON {\"0\": {\"In\": 1}, \"1\": {\"In\": 1}, \"2\": {\"In\": 1}, \"3\": {\"In\": 1}, \"4\": {\"In\": 1}, \"5\": {\"In\": 1}, \"6\": {\"In\": 1}, \"7\": {\"In\": 1}, \"8\": {\"In\": 1}, \"9\": {\"In\": 1}, \"10\": {\"In\": 1}, \"11\": {\"In\": 1}, \"12\": {\"In\": 1}, \"13\": {\"In\": 1}, \"14\": {\"In\": 1}, \"15\": {\"In\": 1}, \"16\": {\"O\": 1}, \"17\": {\"O\": 1}, \"18\": {\"O\": 1}, \"19\": {\"O\": 1}, \"20\": {\"O\": 1}, \"21\": {\"O\": 1}, \"22\": {\"O\": 1}, \"23\": {\"O\": 1}, \"24\": {\"O\": 1}, \"25\": {\"O\": 1}, \"26\": {\"O\": 1}, \"27\": {\"O\": 1}, \"28\": {\"O\": 1}, \"29\": {\"O\": 1}, \"30\": {\"O\": 1}, \"31\": {\"O\": 1}, \"32\": {\"O\": 1}, \"33\": {\"O\": 1}, \"34\": {\"O\": 1}, \"35\": {\"O\": 1}, \"36\": {\"O\": 1}, \"37\": {\"O\": 1}, \"38\": {\"O\": 1}, \"39\": {\"O\": 1}}" n_minim_iter=4 energy=-45151.74582244393 stress="-0.024567985229824767 -4.89480298452311e-14 -5.724820804056706e-14 -4.89480298452311e-14 -0.02456798523018978 7.934263720914437e-14 -5.724820804056706e-14 7.934263720914437e-14 -0.02456798523001046" free_energy=-45151.74582244393 pbc="T T T"
In      -4.21982007       2.98386339       5.65460413        0       0.00416868      -0.00294770       0.00510557
In       7.16541507       1.18183702       1.56060061        1      -0.00416868       0.00294770      -0.00510557
In       1.27422506      -0.90101318       5.16820299        2      -0.00416868       0.00294770      -0.00510557
In      -1.47279750      -2.08285020       3.60760237        3      -0.00000000      -0.00000000       0.00000000
In      -1.27422507       4.02528849       3.36440180        4       0.00416868      -0.00294770      -0.00510557
In       4.61696494      -2.84345147       5.41140356        5       0.00416868       0.00589541      -0.00000000
In      -1.27422507       1.32224894       5.41140356        6       0.00416868       0.00589541      -0.00000000
In      -1.67136994       7.00915188       1.80380118        7      -0.00416868      -0.00589541       0.00000000
In       4.21982007       0.14041192       3.85080295        8      -0.00416868       0.00294770       0.00510557
In      -1.47279750       4.16570041      -0.00000000        9       0.00000000       0.00000000       0.00000000
In       4.21982007       6.38896252       0.24320057       10      -0.00416868       0.00294770       0.00510557
In      -1.27422507      -2.22326212       6.97200417       11       0.00416868      -0.00294770      -0.00510557
In       4.21982007       2.84345147       1.80380118       12      -0.00416868      -0.00589541      -0.00000000
In       1.67136994       5.06671359       2.04700176       13       0.00416868      -0.00294770       0.00510557
In       4.41839250       0.00000000      -0.00000000       14       0.00000000       0.00000000       0.00000000
In       1.47279750       2.08285020       3.60760237       15      -0.00000000      -0.00000000      -0.00000000
O        0.86339023       4.16273373       3.93276492       16      -0.01172850       0.01063327      -0.01226559
O       -2.08220478       3.40735767       5.25139150       17      -0.01172850      -0.01593895      -0.00307589
O       -0.42997266       2.23905313       0.05974957       18      -0.00891174      -0.01793070       0.00037392
O       -0.86339023      -0.76130941       1.96895167       19       0.01172850      -0.00530568      -0.01534148
O        3.90655587       4.96150625       1.90920210       20      -0.01111788       0.00552156      -0.01571540
O        1.98463414       2.91018580       1.64378912       21       0.01111788       0.01637072      -0.00307589
O        1.98463414       6.21702085       0.26541297       22       0.01111788      -0.01084916      -0.01263951
O       -2.25432375       5.90758167       3.66735194       23       0.01393464       0.01437897       0.00037392
O        3.37556766       1.92664728       7.15545518       24       0.00891174       0.01793070      -0.00037392
O        5.19991875      -1.74188126       3.54785280       25      -0.01393464      -0.01437897      -0.00037392
O        6.32116266       3.25412141       1.69840027       26       0.00891174      -0.00864152       0.01571540
O        3.63686626       2.30507932       3.87301535       27       0.01393464      -0.00686566      -0.01263951
O        0.69127125       4.28444023       6.89004220       28       0.01393464      -0.00751331       0.01226559
O        2.25432375      -0.11873982       0.32516254       29      -0.01393464       0.00751331      -0.01226559
O       -3.37556766       0.91157900       5.51680448       30      -0.00891174       0.00864152      -0.01571540
O        5.02779978       0.75834274       1.96381324       31       0.01172850       0.01593895       0.00307589
O        0.96096087       1.25551460       5.57141562       32      -0.01111788      -0.01637072       0.00307589
O        3.37556766      -1.01506828       5.57655405       33       0.00891174      -0.00928917      -0.01534148
O        2.08220477       0.00296667       3.28243983       34       0.01172850      -0.01063327       0.01226559
O        0.96096087      -2.05132044       6.94979177       35      -0.01111788       0.01084916       0.01263951
O       -0.69127126       1.86062109       3.34218940       36      -0.01393464       0.00686566       0.01263951
O       -0.96096087      -0.79580584       5.30600264       37       0.01111788      -0.00552156       0.01571540
O       -0.42997266       5.18076869       1.63865070       38      -0.00891174       0.00928917       0.01534148
O        3.80898523       4.92700982       5.24625307       39      -0.01172850       0.00530568       0.01534148
40
Lattice="8.836785012743686 6.926015600605442e-10 2.8329204733477105e-15 -2.945595004900885 8.33140080830075 -1.199620571399238e-09 -2.9455950039214023 -4.165700403457774 7.215204749898401" Properties=species:S:1:pos:R:3:spacegroup_kinds:I:1:forces:R:3 spacegroup="P 1" unit_cell=conventional occupancy="_JSON {\"0\": {\"In\": 1}, \"1\": {\"In\": 1}, \"2\": {\"In\": 1}, \"3\": {\"In\": 1}, \"4\": {\"In\": 1}, \"5\": {\"In\": 1}, \"6\": {\"In\": 1}, \"7\": {\"In\": 1}, \"8\": {\"In\": 1}, \"9\": {\"In\": 1}, \"10\": {\"In\": 1}, \"11\": {\"In\": 1}, \"12\": {\"In\": 1}, \"13\": {\"In\": 1}, \"14\": {\"In\": 1}, \"15\": {\"In\": 1}, \"16\": {\"O\": 1}, \"17\": {\"O\": 1}, \"18\": {\"O\": 1}, \"19\": {\"O\": 1}, \"20\": {\"O\": 1}, \"21\": {\"O\": 1}, \"22\": {\"O\": 1}, \"23\": {\"O\": 1}, \"24\": {\"O\": 1}, \"25\": {\"O\": 1}, \"26\": {\"O\": 1}, \"27\": {\"O\": 1}, \"28\": {\"O\": 1}, \"29\": {\"O\": 1}, \"30\": {\"O\": 1}, \"31\": {\"O\": 1}, \"32\": {\"O\": 1}, \"33\": {\"O\": 1}, \"34\": {\"O\": 1}, \"35\": {\"O\": 1}, \"36\": {\"O\": 1}, \"37\": {\"O\": 1}, \"38\": {\"O\": 1}, \"39\": {\"O\": 1}}" n_minim_iter=5 energy=-45151.74617796403 stress="-0.024655622202269804 -6.440378991760428e-15 -1.2503081953760652e-13 -6.440378991760428e-15 -0.02465562220246645 7.178781035501774e-15 -1.2503081953760652e-13 7.178781035501774e-15 -0.024655622202526026" free_energy=-45151.74617796403 pbc="T T T"
In      -4.21928906       2.98348790       5.65525449        0      -0.00694965       0.00491415      -0.00851155
In       7.16488406       1.18221250       1.55995025        1       0.00694965      -0.00491415       0.00851155
In       1.27369405      -0.90063770       5.16755263        2       0.00694965      -0.00491415       0.00851155
In      -1.47279750      -2.08285020       3.60760237        3       0.00000000       0.00000000      -0.00000000
In      -1.27369405       4.02491300       3.36375144        4      -0.00694965       0.00491415       0.00851155
In       4.61749596      -2.84270050       5.41140356        5      -0.00694965      -0.00982830      -0.00000000
In      -1.27369405       1.32299991       5.41140356        6      -0.00694965      -0.00982830       0.00000000
In      -1.67190096       7.00840091       1.80380118        7       0.00694965       0.00982830      -0.00000000
In       4.21928905       0.14078740       3.85145330        8       0.00694966      -0.00491415      -0.00851155
In      -1.47279750       4.16570041      -0.00000000        9       0.00000000       0.00000000       0.00000000
In       4.21928905       6.38933801       0.24385093       10       0.00694965      -0.00491415      -0.00851155
In      -1.27369405      -2.22363760       6.97135382       11      -0.00694965       0.00491415       0.00851155
In       4.21928905       2.84270050       1.80380118       12       0.00694965       0.00982830      -0.00000000
In       1.67190095       5.06633811       2.04765212       13      -0.00694965       0.00491415      -0.00851155
In       4.41839250       0.00000000      -0.00000000       14      -0.00000000      -0.00000000      -0.00000000
In       1.47279750       2.08285020       3.60760237       15       0.00000000       0.00000000       0.00000000
O        0.86247614       4.16320696       3.93190368       16      -0.00485663       0.00715929       0.00267871
O       -2.08311886       3.40637520       5.25141230       17      -0.00485663      -0.00125981      -0.00753948
O       -0.43075747       2.23797925       0.05992869       18       0.00394321      -0.00748223       0.00323807
O       -0.86247615      -0.76181866       1.96811123       19       0.00485663       0.00589948      -0.00486077
O        3.90593428       4.96211891       1.90818254       20       0.00043111      -0.00402998      -0.00809884
O        1.98525572       2.91137510       1.64380992       21      -0.00043111       0.00499881      -0.00753948
O        1.98525572       6.21644421       0.26437261       22      -0.00043111      -0.00902879      -0.00055935
O       -2.25357290       5.90867956       3.66753106       23       0.00836872      -0.00122361       0.00323807
O        3.37635247       1.92772115       7.15527606       24      -0.00394321       0.00748223      -0.00323807
O        5.19916790      -1.74297915       3.54767368       25      -0.00836872       0.00122361      -0.00323807
O        6.32194748       3.25373960       1.69941983       26      -0.00394321      -0.00093687       0.00809884
O        3.63761711       2.30468549       3.87197499       27       0.00836872       0.00341605      -0.00055935
O        0.69202211       4.28373616       6.89090344       28       0.00836872      -0.00219244      -0.00267871
O        2.25357290      -0.11803576       0.32430130       29      -0.00836872       0.00219244       0.00267871
O       -3.37635248       0.91196081       5.51578491       30       0.00394321       0.00093687      -0.00809884
O        5.02871386       0.75932521       1.96379245       31       0.00485663       0.00125981       0.00753948
O        0.96033928       1.25432531       5.57139482       32       0.00043111      -0.00499881       0.00753948
O        3.37635247      -1.01576034       5.57571360       33      -0.00394321      -0.00654536      -0.00486077
O        2.08311886       0.00249345       3.28330107       34       0.00485663      -0.00715929      -0.00267871
O        0.96033928      -2.05074380       6.95083213       35       0.00043111       0.00902879       0.00055935
O       -0.69202211       1.86101491       3.34322976       36      -0.00836872      -0.00341605       0.00055935
O       -0.96033928      -0.79641850       5.30702221       37      -0.00043111       0.00402998       0.00809884
O       -0.43075747       5.18146075       1.63949114       38       0.00394321       0.00654536       0.00486077
O        3.80807115       4.92751906       5.24709352       39      -0.00485663      -0.00589948       0.00486077
40