40
Lattice="8.91167659207601 6.98469646803981e-10 2.193272507937082e-15 -2.970558864683862 8.402009266431667 -1.2097873542107894e-09 -2.970558863696077 -4.201004632517361 7.276353468368605" Properties=species:S:1:pos:R:3:spacegroup_kinds:I:1:forces:R:3 spacegroup="P 1" unit_cell=conventional occupancy="_JSON {\"0\": {\"In\": 1}, \"1\": {\"In\": 1}, \"2\": {\"In\": 1}, \"3\": {\"In\": 1}, \"4\": {\"In\": 1}, \"5\": {\"In\": 1}, \"6\": {\"In\": 1}, \"7\": {\"In\": 1}, \"8\": {\"In\": 1}, \"9\": {\"In\": 1}, \"10\": {\"In\": 1}, \"11\": {\"In\": 1}, \"12\": {\"In\": 1}, \"13\": {\"In\": 1}, \"14\": {\"In\": 1}, \"15\": {\"In\": 1}, \"16\": {\"O\": 1}, \"17\": {\"O\": 1}, \"18\": {\"O\": 1}, \"19\": {\"O\": 1}, \"20\": {\"O\": 1}, \"21\": {\"O\": 1}, \"22\": {\"O\": 1}, \"23\": {\"O\": 1}, \"24\": {\"O\": 1}, \"25\": {\"O\": 1}, \"26\": {\"O\": 1}, \"27\": {\"O\": 1}, \"28\": {\"O\": 1}, \"29\": {\"O\": 1}, \"30\": {\"O\": 1}, \"31\": {\"O\": 1}, \"32\": {\"O\": 1}, \"33\": {\"O\": 1}, \"34\": {\"O\": 1}, \"35\": {\"O\": 1}, \"36\": {\"O\": 1}, \"37\": {\"O\": 1}, \"38\": {\"O\": 1}, \"39\": {\"O\": 1}}" n_minim_iter=1 energy=-45151.90924097563 stress="8.339210342020829e-05 -1.244689636122842e-13 -3.514826907185446e-14 -1.244689636122842e-13 8.33921037310543e-05 1.078147775976727e-13 -3.514826907185446e-14 1.078147775976727e-13 8.339210326167005e-05" free_energy=-45151.90924097563 pbc="T T T"
In      -4.25567210       3.00921460       5.70241762        0       0.00547373      -0.00387051       0.00670392
In       7.22623096       1.19179004       1.57393584        1      -0.00547373       0.00387051      -0.00670392
In       1.28511323      -0.90871228       5.21211257        2      -0.00547373       0.00387051      -0.00670392
In      -1.48527943      -2.10050231       3.63817673        3       0.00000000       0.00000000      -0.00000000
In      -1.28511324       4.05946576       3.39302421        4       0.00547373      -0.00387051      -0.00670392
In       4.65600449      -2.86767572       5.45726510        5       0.00547373       0.00774102      -0.00000000
In      -1.28511323       1.33332891       5.45726510        6       0.00547373       0.00774102      -0.00000000
In      -1.68544563       7.06868036       1.81908836        7      -0.00547373      -0.00774102       0.00000000
In       4.25567210       0.14153888       3.88332926        8      -0.00547373       0.00387051       0.00670392
In      -1.48527943       4.20100463      -0.00000000        9       0.00000000      -0.00000000      -0.00000000
In       4.25567210       6.44304583       0.24515252       10      -0.00547373       0.00387051       0.00670392
In      -1.28511323      -2.24204119       7.03120094       11       0.00547373      -0.00387051      -0.00670392
In       4.25567210       2.86767572       1.81908836       12      -0.00547373      -0.00774102       0.00000000
In       1.68544563       5.10971692       2.06424089       13       0.00547373      -0.00387051       0.00670392
In       4.45583829       0.00000000      -0.00000000       14       0.00000000      -0.00000000      -0.00000000
In       1.48527943       2.10050232       3.63817673       15       0.00000000       0.00000000       0.00000000
O        0.87448469       4.20151732       3.95970891       16       0.00048410      -0.00848474      -0.00358344
O       -2.09607417       3.42895217       5.29605501       17       0.00048410       0.00113902       0.00913972
O       -0.43591979       2.25504574       0.05296711       18      -0.00676424       0.00626437       0.00026235
O       -0.87448470      -0.77153978       1.97941046       19      -0.00048410      -0.00734572       0.00555628
O        3.93153849       5.00312500       1.92644334       20       0.00091251       0.00749718       0.00529393
O        2.00957923       2.93371594       1.65787828       21      -0.00091251      -0.00083609       0.00913972
O        2.00957923       6.27041369       0.26856506       22      -0.00091251       0.00833327      -0.00384578
O       -2.27138411       5.96081415       3.69114385       23      -0.00816086       0.00428926       0.00026235
O        3.40647865       1.94595889       7.22338635       24       0.00676424      -0.00626437      -0.00026235
O        5.24194297      -1.75980951       3.58520962       25       0.00816086      -0.00428926      -0.00026235
O        6.37703751       3.27389606       1.71173339       26       0.00676424       0.00335939      -0.00529393
O        3.66973362       2.31671959       3.90674179       27      -0.00816086      -0.00191743      -0.00384578
O        0.69917475       4.32548017       6.95482129       28      -0.00816086      -0.00237183       0.00358344
O        2.27138411      -0.12447553       0.32153218       29       0.00816086       0.00237183      -0.00358344
O       -3.40647865       0.92710858       5.56462007       30      -0.00676424      -0.00335939       0.00529393
O        5.06663303       0.77205247       1.98029845       31      -0.00048410      -0.00113902      -0.00913972
O        0.96097963       1.26728870       5.61847519       32       0.00091251       0.00083609      -0.00913972
O        3.40647865      -1.01885031       5.61758719       33       0.00676424       0.00290499       0.00555628
O        2.09607417      -0.00051268       3.31664455       34      -0.00048410       0.00848474       0.00358344
O        0.96097963      -2.06940905       7.00778840       35       0.00091251      -0.00833327       0.00384578
O       -0.69917476       1.88428505       3.36961167       36       0.00816086       0.00191743       0.00384578
O       -0.96097963      -0.80212036       5.34991012       37      -0.00091251      -0.00749718      -0.00529393
O       -0.43591979       5.21985495       1.65876627       38      -0.00676424      -0.00290499      -0.00555628
O        3.84504356       4.97254442       5.29694301       39       0.00048410       0.00734572      -0.00555628
