40
Lattice="8.523712021882487 6.680633607700297e-10 1.2515562649090269e-14 -2.841237341257352 8.03623276184985 -1.1571300284803427e-09 -2.8412373403125786 -4.018116380256857 6.959581723258164" Properties=species:S:1:pos:R:3:spacegroup_kinds:I:1:forces:R:3 spacegroup="P 1" unit_cell=conventional occupancy="_JSON {\"0\": {\"In\": 1}, \"1\": {\"In\": 1}, \"2\": {\"In\": 1}, \"3\": {\"In\": 1}, \"4\": {\"In\": 1}, \"5\": {\"In\": 1}, \"6\": {\"In\": 1}, \"7\": {\"In\": 1}, \"8\": {\"In\": 1}, \"9\": {\"In\": 1}, \"10\": {\"In\": 1}, \"11\": {\"In\": 1}, \"12\": {\"In\": 1}, \"13\": {\"In\": 1}, \"14\": {\"In\": 1}, \"15\": {\"In\": 1}, \"16\": {\"O\": 1}, \"17\": {\"O\": 1}, \"18\": {\"O\": 1}, \"19\": {\"O\": 1}, \"20\": {\"O\": 1}, \"21\": {\"O\": 1}, \"22\": {\"O\": 1}, \"23\": {\"O\": 1}, \"24\": {\"O\": 1}, \"25\": {\"O\": 1}, \"26\": {\"O\": 1}, \"27\": {\"O\": 1}, \"28\": {\"O\": 1}, \"29\": {\"O\": 1}, \"30\": {\"O\": 1}, \"31\": {\"O\": 1}, \"32\": {\"O\": 1}, \"33\": {\"O\": 1}, \"34\": {\"O\": 1}, \"35\": {\"O\": 1}, \"36\": {\"O\": 1}, \"37\": {\"O\": 1}, \"38\": {\"O\": 1}, \"39\": {\"O\": 1}}" n_minim_iter=1 energy=-45146.957493885755 stress="-0.16626758408616574 -2.1791032246189265e-14 2.84569539342597e-13 -2.1791032246189265e-14 -0.16626758408605244 1.5308159979887836e-13 2.84569539342597e-13 1.5308159979887836e-13 -0.16626758408628742" free_energy=-45146.957493885755 pbc="T T T"
In      -4.06511459       2.87447010       5.46064433        0      -0.01800008       0.01272798      -0.02204550
In       6.90635193       1.14364629       1.49893739        1       0.01800008      -0.01272798       0.02204550
In       1.22387725      -0.86541190       4.97872825        2       0.01800008      -0.01272798       0.02204550
In      -1.42061867      -2.00905819       3.47979086        3       0.00000000       0.00000000       0.00000000
In      -1.22387725       3.87899919       3.23883282        4      -0.01800008       0.01272798       0.02204550
In       4.45859743      -2.73535290       5.21968629        5      -0.01800008      -0.02545595       0.00000000
In      -1.22387725       1.28276348       5.21968629        6      -0.01800008      -0.02545595       0.00000000
In      -1.61736009       6.75346929       1.73989543        7       0.01800008       0.02545595       0.00000000
In       4.06511459       0.13911719       3.72074890        8       0.01800008      -0.01272798      -0.02204550
In      -1.42061867       4.01811638      -0.00000000        9      -0.00000000       0.00000000       0.00000000
In       4.06511459       6.16629176       0.24095804       10       0.01800008      -0.01272798      -0.02204550
In      -1.22387725      -2.14817538       6.71862368       11      -0.01800008       0.01272798       0.02204550
In       4.06511459       2.73535291       1.73989543       12       0.01800008       0.02545595      -0.00000000
In       1.61736009       4.88352829       1.98085347       13      -0.01800008       0.01272798      -0.02204550
In       4.26185601       0.00000000      -0.00000000       14       0.00000000       0.00000000      -0.00000000
In       1.42061867       2.00905819       3.47979086       15       0.00000000      -0.00000000      -0.00000000
O        0.81771664       4.01239529       3.81261025       16      -0.02616502      -0.01140677       0.08155754
O       -2.02352070       3.30467788       5.05823121       17      -0.02616502       0.07633429      -0.03090022
O       -0.40545796       2.16053474       0.08036353       18       0.05249257       0.02071497       0.06543527
O       -0.81771664      -0.71915959       1.91125973       19       0.02616502       0.06492751       0.05065732
O        3.79018708       4.78367389       1.83089620       20       0.08069033      -0.02714844      -0.01477795
O        1.89228760       2.81529251       1.57844034       21      -0.08069033      -0.00077614      -0.03090022
O        1.89228760       5.98649776       0.25245585       22      -0.08069033      -0.02637230       0.01612227
O       -2.17212434       5.68926575       3.56015439       23      -0.00203273      -0.05639546       0.06543527
O        3.24669529       1.85758165       6.87921819       24      -0.05249257      -0.02071497      -0.06543527
O        5.01336168      -1.67114937       3.39942733       25       0.00203273       0.05639546      -0.06543527
O        6.08793264       3.15892242       1.64889466       26      -0.05249257       0.06702609       0.01477795
O        3.51035034       2.24760946       3.73224671       27      -0.00203273       0.08486634       0.01612227
O        0.66911300       4.11747393       6.62676233       28      -0.00203273      -0.02847087      -0.08155754
O        2.17212434      -0.09935755       0.33281939       29       0.00203273       0.02847087       0.08155754
O       -3.24669530       0.85919396       5.31068706       30       0.05249257      -0.06702609      -0.01477795
O        4.86475804       0.71343851       1.90135051       31       0.02616502      -0.07633429       0.03090022
O        0.94894974       1.20282387       5.38114137       32       0.08069033       0.00077614       0.03090022
O        3.24669529      -0.99838768       5.39105059       33      -0.05249257      -0.04631112       0.05065732
O        2.02352070       0.00572109       3.14697147       34       0.02616502       0.01140677      -0.08155754
O        0.94894974      -1.96838137       6.70712587       35       0.08069033       0.02637230      -0.01612227
O       -0.66911300       1.77050692       3.22733500       36       0.00203273      -0.08486634      -0.01612227
O       -0.94894974      -0.76555750       5.12868552       37      -0.08069033       0.02714844       0.01477795
O       -0.40545796       5.01650406       1.56853112       38       0.05249257       0.04631112      -0.05065732
O        3.65895398       4.73727598       5.04832198       39      -0.02616502      -0.06492751      -0.05065732
40
Lattice="8.523712021882487 6.680633607700297e-10 1.2515562649090273e-14 -2.841237341257352 8.03623276184985 -1.1571300284803427e-09 -2.8412373403125786 -4.018116380256857 6.959581723258165" Properties=species:S:1:pos:R:3:spacegroup_kinds:I:1:forces:R:3 spacegroup="P 1" unit_cell=conventional occupancy="_JSON {\"0\": {\"In\": 1}, \"1\": {\"In\": 1}, \"2\": {\"In\": 1}, \"3\": {\"In\": 1}, \"4\": {\"In\": 1}, \"5\": {\"In\": 1}, \"6\": {\"In\": 1}, \"7\": {\"In\": 1}, \"8\": {\"In\": 1}, \"9\": {\"In\": 1}, \"10\": {\"In\": 1}, \"11\": {\"In\": 1}, \"12\": {\"In\": 1}, \"13\": {\"In\": 1}, \"14\": {\"In\": 1}, \"15\": {\"In\": 1}, \"16\": {\"O\": 1}, \"17\": {\"O\": 1}, \"18\": {\"O\": 1}, \"19\": {\"O\": 1}, \"20\": {\"O\": 1}, \"21\": {\"O\": 1}, \"22\": {\"O\": 1}, \"23\": {\"O\": 1}, \"24\": {\"O\": 1}, \"25\": {\"O\": 1}, \"26\": {\"O\": 1}, \"27\": {\"O\": 1}, \"28\": {\"O\": 1}, \"29\": {\"O\": 1}, \"30\": {\"O\": 1}, \"31\": {\"O\": 1}, \"32\": {\"O\": 1}, \"33\": {\"O\": 1}, \"34\": {\"O\": 1}, \"35\": {\"O\": 1}, \"36\": {\"O\": 1}, \"37\": {\"O\": 1}, \"38\": {\"O\": 1}, \"39\": {\"O\": 1}}" n_minim_iter=2 energy=-45146.96189441158 stress="-0.16559661298371503 1.375479001084151e-14 4.718657775628421e-14 1.375479001084151e-14 -0.1655966129837009 9.339025464160643e-14 4.718657775628421e-14 9.339025464160643e-14 -0.1655966129836676" free_energy=-45146.96189441158 pbc="T T T"
In      -4.06594732       2.87505892       5.45962445        0       0.02517605      -0.01780216       0.03083424
In       6.90718466       1.14305746       1.49995726        1      -0.02517605       0.01780216      -0.03083424
In       1.22470998      -0.86600073       4.97974813        2      -0.02517605       0.01780216      -0.03083424
In      -1.42061867      -2.00905819       3.47979086        3       0.00000000       0.00000000      -0.00000000
In      -1.22470998       3.87958802       3.23985269        4       0.02517605      -0.01780216      -0.03083424
In       4.45776470      -2.73653056       5.21968629        5       0.02517605       0.03560431      -0.00000000
In      -1.22470998       1.28158583       5.21968629        6       0.02517605       0.03560431      -0.00000000
In      -1.61652736       6.75464694       1.73989543        7      -0.02517605      -0.03560431       0.00000000
In       4.06594732       0.13852837       3.71972902        8      -0.02517605       0.01780216       0.03083424
In      -1.42061867       4.01811638      -0.00000000        9       0.00000000      -0.00000000       0.00000000
In       4.06594732       6.16570294       0.23993816       10      -0.02517605       0.01780216       0.03083424
In      -1.22470998      -2.14758655       6.71964356       11       0.02517605      -0.01780216      -0.03083424
In       4.06594732       2.73653056       1.73989543       12      -0.02517605      -0.03560431       0.00000000
In       1.61652736       4.88411711       1.97983359       13       0.02517605      -0.01780216       0.03083424
In       4.26185601       0.00000000      -0.00000000       14       0.00000000      -0.00000000       0.00000000
In       1.42061867       2.00905819       3.47979086       15      -0.00000000      -0.00000000      -0.00000000
O        0.81650618       4.01186759       3.81638330       16      -0.03523617      -0.02056621      -0.00599071
O       -2.02473116       3.30820929       5.05680169       17      -0.03523617       0.00509500       0.02080622
O       -0.40302952       2.16149306       0.08339073       18      -0.02633179      -0.00120135       0.03171181
O       -0.81650619      -0.71615589       1.91360326       19       0.03523617      -0.01547121       0.01481551
O        3.79392001       4.78241793       1.83021254       20       0.01654900       0.03378004      -0.01689630
O        1.88855467       2.81525660       1.57701083       21      -0.01654900       0.03152265       0.02080622
O        1.88855467       5.98527771       0.25320171       22      -0.01654900       0.00225739      -0.03770252
O       -2.17221838       5.68665676       3.56318159       23      -0.00764462       0.02522630       0.03171181
O        3.24426686       1.85662332       6.87619099       24       0.02633179       0.00120135      -0.03171181
O        5.01345572      -1.66854038       3.39640013       25       0.00764462      -0.02522630      -0.03171181
O        6.08550420       3.16202321       1.64957832       26       0.02633179       0.02686256       0.01689630
O        3.51025630       2.25153559       3.73299257       27      -0.00764462       0.01485009      -0.03770252
O        0.66901896       4.11615680       6.62298928       28      -0.00764462      -0.04007639       0.00599071
O        2.17221838      -0.09804042       0.33659244       29       0.00764462       0.04007639      -0.00599071
O       -3.24426686       0.85609317       5.31000340       30      -0.02633179      -0.02686256      -0.01689630
O        4.86596850       0.70990710       1.90278003       31       0.03523617      -0.00509500      -0.02080622
O        0.95268267       1.20285978       5.38257089       32       0.01654900      -0.03152265      -0.02080622
O        3.24426686      -1.00053015       5.39339413       33       0.02633179      -0.02806391       0.01481551
O        2.02473116       0.00624880       3.14319842       34       0.03523617       0.02056621       0.00599071
O        0.95268267      -1.96716133       6.70638001       35       0.01654900      -0.00225739       0.03770252
O       -0.66901897       1.76658080       3.22658915       36       0.00764462      -0.01485009       0.03770252
O       -0.95268267      -0.76430155       5.12936918       37      -0.01654900      -0.03378004       0.01689630
O       -0.40302952       5.01864653       1.56618759       38      -0.02633179       0.02806391      -0.01481551
O        3.65774352       4.73427227       5.04597845       39      -0.03523617       0.01547121      -0.01481551
40
Lattice="8.523712021882492 6.680633607700301e-10 1.2515562649090281e-14 -2.8412373412573544 8.036232761849854 -1.157130028480344e-09 -2.841237340312581 -4.018116380256859 6.9595817232581725" Properties=species:S:1:pos:R:3:spacegroup_kinds:I:1:forces:R:3 spacegroup="P 1" unit_cell=conventional occupancy="_JSON {\"0\": {\"In\": 1}, \"1\": {\"In\": 1}, \"2\": {\"In\": 1}, \"3\": {\"In\": 1}, \"4\": {\"In\": 1}, \"5\": {\"In\": 1}, \"6\": {\"In\": 1}, \"7\": {\"In\": 1}, \"8\": {\"In\": 1}, \"9\": {\"In\": 1}, \"10\": {\"In\": 1}, \"11\": {\"In\": 1}, \"12\": {\"In\": 1}, \"13\": {\"In\": 1}, \"14\": {\"In\": 1}, \"15\": {\"In\": 1}, \"16\": {\"O\": 1}, \"17\": {\"O\": 1}, \"18\": {\"O\": 1}, \"19\": {\"O\": 1}, \"20\": {\"O\": 1}, \"21\": {\"O\": 1}, \"22\": {\"O\": 1}, \"23\": {\"O\": 1}, \"24\": {\"O\": 1}, \"25\": {\"O\": 1}, \"26\": {\"O\": 1}, \"27\": {\"O\": 1}, \"28\": {\"O\": 1}, \"29\": {\"O\": 1}, \"30\": {\"O\": 1}, \"31\": {\"O\": 1}, \"32\": {\"O\": 1}, \"33\": {\"O\": 1}, \"34\": {\"O\": 1}, \"35\": {\"O\": 1}, \"36\": {\"O\": 1}, \"37\": {\"O\": 1}, \"38\": {\"O\": 1}, \"39\": {\"O\": 1}}" n_minim_iter=3 energy=-45146.96369875071 stress="-0.16528949086457392 -1.2883279137884746e-13 -1.323962000334119e-13 -1.2883279137884746e-13 -0.16528949086451342 1.5752322648078458e-13 -1.323962000334119e-13 1.5752322648078458e-13 -0.16528949086445896" free_energy=-45146.96369875071 pbc="T T T"
In      -4.06486049       2.87429042       5.46095554        0      -0.00169429       0.00119804      -0.00207507
In       6.90609783       1.14382597       1.49862617        1       0.00169429      -0.00119804       0.00207507
In       1.22362315      -0.86523222       4.97841704        2       0.00169429      -0.00119804       0.00207507
In      -1.42061867      -2.00905819       3.47979086        3      -0.00000000      -0.00000000       0.00000000
In      -1.22362315       3.87881951       3.23852160        4      -0.00169429       0.00119804       0.00207507
In       4.45885153      -2.73499355       5.21968629        5      -0.00169429      -0.00239608       0.00000000
In      -1.22362315       1.28312283       5.21968629        6      -0.00169429      -0.00239608      -0.00000000
In      -1.61761419       6.75310993       1.73989543        7       0.00169429       0.00239608      -0.00000000
In       4.06486049       0.13929687       3.72106011        8       0.00169429      -0.00119804      -0.00207507
In      -1.42061867       4.01811638      -0.00000000        9       0.00000000       0.00000000      -0.00000000
In       4.06486049       6.16647144       0.24126925       10       0.00169429      -0.00119804      -0.00207507
In      -1.22362315      -2.14835506       6.71831247       11      -0.00169429       0.00119804       0.00207507
In       4.06486049       2.73499355       1.73989543       12       0.00169429       0.00239608       0.00000000
In       1.61761419       4.88334861       1.98116468       13      -0.00169429       0.00119804      -0.00207507
In       4.26185601       0.00000000      -0.00000000       14       0.00000000       0.00000000      -0.00000000
In       1.42061867       2.00905819       3.47979086       15      -0.00000000      -0.00000000      -0.00000000
O        0.81402914       4.01049376       3.81756299       16      -0.01006995       0.01418185      -0.00110804
O       -2.02720820       3.30991785       5.05740161       17      -0.01006995      -0.00805052      -0.01172782
O       -0.40353961       2.16181078       0.08639966       18       0.00242403      -0.01688509       0.00357411
O       -0.81402914      -0.71582116       1.91538289       19       0.01006995       0.00613133      -0.01283586
O        3.79635654       4.78382041       1.82898322       20      -0.00423345      -0.00406782      -0.01640997
O        1.88611814       2.81702246       1.57761075       21       0.00423345       0.01217754      -0.01172782
O        1.88611814       5.98491433       0.25137247       22       0.00423345      -0.01624536      -0.00468215
O       -2.17268796       5.68703177       3.56619052       23       0.01672742       0.00334297       0.00357411
O        3.24477695       1.85630560       6.87318206       24      -0.00242403       0.01688509      -0.00357411
O        5.01392530      -1.66891539       3.39339120       25      -0.01672742      -0.00334297      -0.00357411
O        6.08601429       3.16478789       1.65080763       26      -0.00242403      -0.00534727       0.01640997
O        3.50978672       2.25395390       3.73116333       27       0.01672742       0.00142378      -0.00468215
O        0.66854938       4.11336348       6.62180958       28       0.01672742      -0.00476675       0.00110804
O        2.17268796      -0.09524709       0.33777213       29      -0.01672742       0.00476675      -0.00110804
O       -3.24477696       0.85332850       5.30877408       30       0.00242403       0.00534727      -0.01640997
O        4.86844554       0.70819853       1.90218011       31       0.01006995       0.00805052       0.01172782
O        0.95511920       1.20109392       5.38197097       32      -0.00423345      -0.01217754       0.01172782
O        3.24477695      -1.00297710       5.39517375       33      -0.00242403      -0.01153781      -0.01283586
O        2.02720820       0.00762263       3.14201872       34       0.01006995      -0.01418185       0.00110804
O        0.95511920      -1.96679795       6.70820925       35      -0.00423345       0.01624536       0.00468215
O       -0.66854939       1.76416249       3.22841839       36      -0.01672742      -0.00142378       0.00468215
O       -0.95511920      -0.76570403       5.13059850       37       0.00423345       0.00406782       0.01640997
O       -0.40353961       5.02109349       1.56440797       38       0.00242403       0.01153781       0.01283586
O        3.65526648       4.73393754       5.04419883       39      -0.01006995      -0.00613133       0.01283586
40
Lattice="8.523712021882492 6.680633607700302e-10 1.2515562649090273e-14 -2.841237341257355 8.036232761849854 -1.1571300284803441e-09 -2.8412373403125812 -4.018116380256859 6.959581723258173" Properties=species:S:1:pos:R:3:spacegroup_kinds:I:1:forces:R:3 spacegroup="P 1" unit_cell=conventional occupancy="_JSON {\"0\": {\"In\": 1}, \"1\": {\"In\": 1}, \"2\": {\"In\": 1}, \"3\": {\"In\": 1}, \"4\": {\"In\": 1}, \"5\": {\"In\": 1}, \"6\": {\"In\": 1}, \"7\": {\"In\": 1}, \"8\": {\"In\": 1}, \"9\": {\"In\": 1}, \"10\": {\"In\": 1}, \"11\": {\"In\": 1}, \"12\": {\"In\": 1}, \"13\": {\"In\": 1}, \"14\": {\"In\": 1}, \"15\": {\"In\": 1}, \"16\": {\"O\": 1}, \"17\": {\"O\": 1}, \"18\": {\"O\": 1}, \"19\": {\"O\": 1}, \"20\": {\"O\": 1}, \"21\": {\"O\": 1}, \"22\": {\"O\": 1}, \"23\": {\"O\": 1}, \"24\": {\"O\": 1}, \"25\": {\"O\": 1}, \"26\": {\"O\": 1}, \"27\": {\"O\": 1}, \"28\": {\"O\": 1}, \"29\": {\"O\": 1}, \"30\": {\"O\": 1}, \"31\": {\"O\": 1}, \"32\": {\"O\": 1}, \"33\": {\"O\": 1}, \"34\": {\"O\": 1}, \"35\": {\"O\": 1}, \"36\": {\"O\": 1}, \"37\": {\"O\": 1}, \"38\": {\"O\": 1}, \"39\": {\"O\": 1}}" n_minim_iter=4 energy=-45146.96394819598 stress="-0.16519421839012197 -1.2778177097115844e-13 1.3684225157411447e-13 -1.2778177097115844e-13 -0.1651942183901091 -1.0276932507787018e-13 1.3684225157411447e-13 -1.0276932507787018e-13 -0.16519421839036286" free_energy=-45146.96394819598 pbc="T T T"
In      -4.06479822       2.87424638       5.46103181        0      -0.00287605       0.00203368      -0.00352243
In       6.90603555       1.14387000       1.49854990        1       0.00287605      -0.00203368       0.00352243
In       1.22356087      -0.86518819       4.97834077        2       0.00287605      -0.00203368       0.00352243
In      -1.42061867      -2.00905819       3.47979086        3      -0.00000000      -0.00000000      -0.00000000
In      -1.22356088       3.87877548       3.23844533        4      -0.00287605       0.00203368       0.00352243
In       4.45891380      -2.73490548       5.21968629        5      -0.00287605      -0.00406735      -0.00000000
In      -1.22356088       1.28321090       5.21968629        6      -0.00287605      -0.00406735       0.00000000
In      -1.61767647       6.75302186       1.73989543        7       0.00287605       0.00406735       0.00000000
In       4.06479821       0.13934091       3.72113638        8       0.00287605      -0.00203368      -0.00352243
In      -1.42061867       4.01811638      -0.00000000        9      -0.00000000       0.00000000       0.00000000
In       4.06479821       6.16651548       0.24134552       10       0.00287605      -0.00203368      -0.00352243
In      -1.22356088      -2.14839909       6.71823620       11      -0.00287605       0.00203368       0.00352243
In       4.06479821       2.73490548       1.73989543       12       0.00287605       0.00406735      -0.00000000
In       1.61767646       4.88330457       1.98124095       13      -0.00287605       0.00203368      -0.00352243
In       4.26185601       0.00000000      -0.00000000       14       0.00000000      -0.00000000      -0.00000000
In       1.42061867       2.00905819       3.47979086       15      -0.00000000      -0.00000000      -0.00000000
O        0.81288639       4.01117696       3.81779209       16      -0.00141877      -0.00063780      -0.00398196
O       -2.02835095       3.30977465       5.05669539       17      -0.00141877      -0.00312958       0.00254334
O       -0.40341141       2.16076888       0.08725003       18      -0.00402485      -0.00128680      -0.00064844
O       -0.81288640      -0.71528115       1.91490576       19       0.00141877      -0.00376738      -0.00143863
O        3.79660245       4.78377137       1.82765572       20      -0.00247767       0.00339301      -0.00079018
O        1.88587223       2.81814759       1.57690453       21       0.00247767       0.00238082       0.00254334
O        1.88587223       5.98374016       0.25075119       22       0.00247767       0.00101218      -0.00333352
O       -2.17166291       5.68725820       3.56704090       23      -0.00012840       0.00422360      -0.00064844
O        3.24464874       1.85734750       6.87233168       24       0.00402485       0.00128680       0.00064844
O        5.01290025      -1.66914181       3.39254082       25       0.00012840      -0.00422360       0.00064844
O        6.08588608       3.16500338       1.65213513       26       0.00402485      -0.00120497       0.00079018
O        3.51081177       2.25457713       3.73054206       27      -0.00012840      -0.00267337      -0.00333352
O        0.66957443       4.11251382       6.62158049       28      -0.00012840      -0.00155023       0.00398196
O        2.17166291      -0.09439744       0.33800123       29       0.00012840       0.00155023      -0.00398196
O       -3.24464875       0.85311300       5.30744659       30      -0.00402485       0.00120497      -0.00079018
O        4.86958828       0.70834173       1.90288633       31       0.00141877       0.00312958      -0.00254334
O        0.95536511       1.19996880       5.38267719       32      -0.00247767      -0.00238082      -0.00254334
O        3.24464874      -1.00423449       5.39469662       33       0.00402485      -0.00008184      -0.00143863
O        2.02835094       0.00693942       3.14178963       34       0.00141877       0.00063780       0.00398196
O        0.95536511      -1.96562378       6.70883052       35      -0.00247767      -0.00101218       0.00333352
O       -0.66957443       1.76353926       3.22903966       36       0.00012840       0.00267337       0.00333352
O       -0.95536511      -0.76565498       5.13192599       37       0.00247767      -0.00339301       0.00079018
O       -0.40341141       5.02235088       1.56488510       38      -0.00402485       0.00008184       0.00143863
O        3.65412373       4.73339753       5.04467596       39      -0.00141877       0.00376738       0.00143863
