40
Lattice="8.358161020468566 6.550883412432048e-10 2.1260162463016602e-14 -2.7860536741071473 7.880149780878171 -1.134660569686612e-09 -2.7860536731807293 -3.9400748897839897 6.824409896623301" Properties=species:S:1:pos:R:3:spacegroup_kinds:I:1:forces:R:3 spacegroup="P 1" unit_cell=conventional occupancy="_JSON {\"0\": {\"In\": 1}, \"1\": {\"In\": 1}, \"2\": {\"In\": 1}, \"3\": {\"In\": 1}, \"4\": {\"In\": 1}, \"5\": {\"In\": 1}, \"6\": {\"In\": 1}, \"7\": {\"In\": 1}, \"8\": {\"In\": 1}, \"9\": {\"In\": 1}, \"10\": {\"In\": 1}, \"11\": {\"In\": 1}, \"12\": {\"In\": 1}, \"13\": {\"In\": 1}, \"14\": {\"In\": 1}, \"15\": {\"In\": 1}, \"16\": {\"O\": 1}, \"17\": {\"O\": 1}, \"18\": {\"O\": 1}, \"19\": {\"O\": 1}, \"20\": {\"O\": 1}, \"21\": {\"O\": 1}, \"22\": {\"O\": 1}, \"23\": {\"O\": 1}, \"24\": {\"O\": 1}, \"25\": {\"O\": 1}, \"26\": {\"O\": 1}, \"27\": {\"O\": 1}, \"28\": {\"O\": 1}, \"29\": {\"O\": 1}, \"30\": {\"O\": 1}, \"31\": {\"O\": 1}, \"32\": {\"O\": 1}, \"33\": {\"O\": 1}, \"34\": {\"O\": 1}, \"35\": {\"O\": 1}, \"36\": {\"O\": 1}, \"37\": {\"O\": 1}, \"38\": {\"O\": 1}, \"39\": {\"O\": 1}}" n_minim_iter=5 energy=-45141.07920055218 stress="-0.27184381010998826 1.9628236072957535e-13 8.173792182041557e-14 1.9628236072957535e-13 -0.27184381011026715 -2.7514505941044367e-14 8.173792182041557e-14 -2.7514505941044367e-14 -0.2718438101101767" free_energy=-45141.07920055218 pbc="T T T"
In      -3.98063042       2.81473076       5.36135815        0      -0.00038338       0.00027109      -0.00046955
In       6.76668409       1.12534413       1.46305174        1       0.00038338      -0.00027109       0.00046955
In       1.19457674      -0.84469332       4.87525669        2       0.00038338      -0.00027109       0.00046955
In      -1.39302684      -1.97003744       3.41220495        3       0.00000000       0.00000000      -0.00000000
In      -1.19457675       3.79974949       3.16915421        4      -0.00038338       0.00027109       0.00046955
In       4.37753060      -2.67440536       5.11830742        5      -0.00038338      -0.00054219      -0.00000000
In      -1.19457675       1.26566954       5.11830742        6      -0.00038338      -0.00054219       0.00000000
In      -1.59147693       6.61448025       1.70610247        7       0.00038338       0.00054219      -0.00000000
In       3.98063042       0.14032541       3.65525568        8       0.00038338      -0.00027109      -0.00046955
In      -1.39302684       3.94007489      -0.00000000        9      -0.00000000      -0.00000000       0.00000000
In       3.98063042       6.05043774       0.24305073       10       0.00038338      -0.00027109      -0.00046955
In      -1.19457675      -2.11036285       6.58135916       11      -0.00038338       0.00027109       0.00046955
In       3.98063042       2.67440536       1.70610247       12       0.00038338       0.00054219       0.00000000
In       1.59147693       4.78476821       1.94915320       13      -0.00038338       0.00027109      -0.00046955
In       4.17908051       0.00000000      -0.00000000       14       0.00000000       0.00000000      -0.00000000
In       1.39302684       1.97003745       3.41220495       15      -0.00000000       0.00000000       0.00000000
O        0.79213568       3.93095047       3.75684217       16       0.00502099      -0.00146601       0.00305238
O       -1.99391799       3.25808298       4.95389079       17       0.00502099       0.00337644      -0.00025659
O       -0.38754551       2.12220610       0.09687735       18       0.00347483       0.00446974      -0.00215023
O       -0.79213569      -0.69111634       1.88632307       19      -0.00502099       0.00191043       0.00279579
O        3.73638942       4.68712340       1.78944572       20       0.00150968      -0.00315186       0.00494602
O        1.83571793       2.76389369       1.54168584       21      -0.00150968      -0.00585931      -0.00025659
O        1.83571793       5.86330460       0.24775987       22      -0.00150968       0.00270745       0.00520260
O       -2.13001694       5.56809171       3.50908230       23      -0.00305583      -0.00476602      -0.00215023
O        3.17359918       1.81786879       6.72753254       24      -0.00347483      -0.00446974       0.00215023
O        4.91607061      -1.62801682       3.31532759       25       0.00305583       0.00476602       0.00215023
O        5.95965285       3.11503875       1.62275923       26      -0.00347483       0.00037272      -0.00494602
O        3.44209041       2.22494601       3.65996482       27      -0.00305583       0.00052086       0.00520260
O        0.65603674       4.02718696       6.47977266       28      -0.00305583       0.00424516      -0.00305238
O        2.13001693      -0.08711206       0.34463723       29       0.00305583      -0.00424516       0.00305238
O       -3.17359918       0.82503615       5.20165066       30       0.00347483      -0.00037272       0.00494602
O        4.77997166       0.68199192       1.87051910       31      -0.00502099      -0.00337644       0.00025659
O        0.95033574       1.17618120       5.28272405       32       0.00150968       0.00585931       0.00025659
O        3.17359918      -0.99283264       5.29852802       33      -0.00347483       0.00409702       0.00279579
O        1.99391799       0.00912443       3.06756772       34      -0.00502099       0.00146601      -0.00305238
O        0.95033574      -1.92322970       6.57665002       35       0.00150968      -0.00270745      -0.00520260
O       -0.65603674       1.71512888       3.16444507       36       0.00305583      -0.00052086      -0.00520260
O       -0.95033575      -0.74704850       5.03496418       37      -0.00150968       0.00315186      -0.00494602
O       -0.38754551       4.93290754       1.52588187       38       0.00347483      -0.00409702      -0.00279579
O        3.57818936       4.63119123       4.93808682       39       0.00502099      -0.00191043      -0.00279579
