40
Lattice="8.185778426042964 6.415779183519229e-10 2.710221226354839e-14 -2.7285928092858733 7.717625912246837 -1.1112611340204826e-09 -2.7285928083785698 -3.8588129554818345 6.683660097651645" Properties=species:S:1:pos:R:3:spacegroup_kinds:I:1:forces:R:3 spacegroup="P 1" unit_cell=conventional occupancy="_JSON {\"0\": {\"In\": 1}, \"1\": {\"In\": 1}, \"2\": {\"In\": 1}, \"3\": {\"In\": 1}, \"4\": {\"In\": 1}, \"5\": {\"In\": 1}, \"6\": {\"In\": 1}, \"7\": {\"In\": 1}, \"8\": {\"In\": 1}, \"9\": {\"In\": 1}, \"10\": {\"In\": 1}, \"11\": {\"In\": 1}, \"12\": {\"In\": 1}, \"13\": {\"In\": 1}, \"14\": {\"In\": 1}, \"15\": {\"In\": 1}, \"16\": {\"O\": 1}, \"17\": {\"O\": 1}, \"18\": {\"O\": 1}, \"19\": {\"O\": 1}, \"20\": {\"O\": 1}, \"21\": {\"O\": 1}, \"22\": {\"O\": 1}, \"23\": {\"O\": 1}, \"24\": {\"O\": 1}, \"25\": {\"O\": 1}, \"26\": {\"O\": 1}, \"27\": {\"O\": 1}, \"28\": {\"O\": 1}, \"29\": {\"O\": 1}, \"30\": {\"O\": 1}, \"31\": {\"O\": 1}, \"32\": {\"O\": 1}, \"33\": {\"O\": 1}, \"34\": {\"O\": 1}, \"35\": {\"O\": 1}, \"36\": {\"O\": 1}, \"37\": {\"O\": 1}, \"38\": {\"O\": 1}, \"39\": {\"O\": 1}}" n_minim_iter=6 energy=-45131.79728614141 stress="-0.4172202120204776 8.663362672883982e-14 7.584438985427885e-14 8.663362672883982e-14 -0.4172202120208801 4.634295851872852e-14 7.584438985427885e-14 4.634295851872852e-14 -0.4172202120209383" free_energy=-45131.79728614141 pbc="T T T"
In      -3.88822685       2.74939157       5.26340426        0      -0.00384574       0.00271935      -0.00471005
In       6.61681965       1.10942139       1.42025584        1       0.00384574      -0.00271935       0.00471005
In       1.15963403      -0.81998509       4.76208588        2       0.00384574      -0.00271935       0.00471005
In      -1.36429641      -1.92940648       3.34183005        3       0.00000000       0.00000000      -0.00000000
In      -1.15963404       3.71409481       3.09117086        4      -0.00384574       0.00271935       0.00471005
In       4.29755158      -2.60467342       5.01274507        5      -0.00384574      -0.00543870       0.00000000
In      -1.15963404       1.25413954       5.01274507        6      -0.00384574      -0.00543870       0.00000000
In      -1.56895877       6.46348638       1.67091502        7       0.00384574       0.00543870      -0.00000000
In       3.88822684       0.14471815       3.59248923        8       0.00384574      -0.00271935      -0.00471005
In      -1.36429641       3.85881296      -0.00000000        9      -0.00000000       0.00000000       0.00000000
In       3.88822684       5.93293758       0.25065918       10       0.00384574      -0.00271935      -0.00471005
In      -1.15963404      -2.07412462       6.43300091       11      -0.00384574       0.00271935       0.00471005
In       3.88822684       2.60467342       1.67091502       12       0.00384574       0.00543870       0.00000000
In       1.56895877       4.67879805       1.92157421       13      -0.00384574       0.00271935      -0.00471005
In       4.09288921       0.00000000      -0.00000000       14      -0.00000000      -0.00000000      -0.00000000
In       1.36429640       1.92940648       3.34183005       15      -0.00000000      -0.00000000      -0.00000000
O        0.77603913       3.84887173       3.69805618       16       0.00477602      -0.00393954       0.00466142
O       -1.95255368       3.20758122       4.84324136       17       0.00477602       0.00600668       0.00108103
O       -0.36468014       2.08478507       0.10432123       18       0.00354093       0.00688003      -0.00043165
O       -0.77603913      -0.66117297       1.85763745       19      -0.00477602       0.00206714       0.00574245
O        3.67498780       4.58021582       1.75331621       20       0.00407115      -0.00231635       0.00617410
O        1.78219782       2.70109801       1.50141131       21      -0.00407115      -0.00650510       0.00108103
O        1.78219782       5.73793077       0.25190490       22      -0.00407115       0.00418875       0.00509307
O       -2.08711426       5.43711482       3.44615128       23      -0.00530624      -0.00563176      -0.00043165
O        3.09327295       1.77402789       6.57933886       24      -0.00354093      -0.00688003       0.00043165
O        4.81570707      -1.57830185       3.23750881       25       0.00530624       0.00563176       0.00043165
O        5.82186576       3.06214385       1.58851383       26      -0.00354093       0.00306620      -0.00617410
O        3.37007136       2.19530363       3.59373495       27      -0.00530624       0.00244206       0.00509307
O        0.64147855       3.94402043       6.32743396       28      -0.00530624       0.00318970      -0.00466142
O        2.08711426      -0.08520747       0.35622614       29       0.00530624      -0.00318970       0.00466142
O       -3.09327295       0.79666911       5.09514626       30       0.00354093      -0.00306620       0.00617410
O        4.68114649       0.65123174       1.84041874       31      -0.00477602      -0.00600668      -0.00108103
O        0.94639499       1.15771496       5.18224879       32       0.00407115       0.00650510      -0.00108103
O        3.09327295      -0.97735878       5.19946749       33      -0.00354093       0.00381383       0.00574245
O        1.95255368       0.00994123       2.98560391       34      -0.00477602       0.00393954      -0.00466142
O        0.94639499      -1.87911781       6.43175519       35       0.00407115      -0.00418875      -0.00509307
O       -0.64147855       1.66350933       3.08992514       36       0.00530624      -0.00244206      -0.00509307
O       -0.94639499      -0.72140286       4.93034388       37      -0.00407115       0.00231635      -0.00617410
O       -0.36468014       4.83617174       1.48419260       38       0.00354093      -0.00381383      -0.00574245
O        3.50463194       4.51998593       4.82602265       39       0.00477602      -0.00206714      -0.00574245
