40
Lattice="9.470069496353664 7.422388537218774e-10 3.2364672773856265e-14 -3.1566898328176776 8.928467145325321 -1.2856098631606183e-09 -3.1566898317680208 -4.464233571920416 7.732279365563509" Properties=species:S:1:pos:R:3:spacegroup_kinds:I:1:forces:R:3 spacegroup="P 1" unit_cell=conventional occupancy="_JSON {\"0\": {\"In\": 1}, \"1\": {\"In\": 1}, \"2\": {\"In\": 1}, \"3\": {\"In\": 1}, \"4\": {\"In\": 1}, \"5\": {\"In\": 1}, \"6\": {\"In\": 1}, \"7\": {\"In\": 1}, \"8\": {\"In\": 1}, \"9\": {\"In\": 1}, \"10\": {\"In\": 1}, \"11\": {\"In\": 1}, \"12\": {\"In\": 1}, \"13\": {\"In\": 1}, \"14\": {\"In\": 1}, \"15\": {\"In\": 1}, \"16\": {\"O\": 1}, \"17\": {\"O\": 1}, \"18\": {\"O\": 1}, \"19\": {\"O\": 1}, \"20\": {\"O\": 1}, \"21\": {\"O\": 1}, \"22\": {\"O\": 1}, \"23\": {\"O\": 1}, \"24\": {\"O\": 1}, \"25\": {\"O\": 1}, \"26\": {\"O\": 1}, \"27\": {\"O\": 1}, \"28\": {\"O\": 1}, \"29\": {\"O\": 1}, \"30\": {\"O\": 1}, \"31\": {\"O\": 1}, \"32\": {\"O\": 1}, \"33\": {\"O\": 1}, \"34\": {\"O\": 1}, \"35\": {\"O\": 1}, \"36\": {\"O\": 1}, \"37\": {\"O\": 1}, \"38\": {\"O\": 1}, \"39\": {\"O\": 1}}" n_minim_iter=1 energy=-45145.20809992232 stress="0.10084376758094689 3.971499990294239e-14 7.096020388945518e-14 3.971499990294239e-14 0.10084376758079314 -3.3292541150775754e-14 7.096020388945518e-14 -3.3292541150775754e-14 0.10084376758092181" free_energy=-45145.20809992232 pbc="T T T"
In      -4.48977457       3.17475004       6.09959067        0       0.03315616      -0.02344495       0.04060784
In       7.64646440       1.28948353       1.63268869        1      -0.03315616       0.02344495      -0.04060784
In       1.33308473      -0.94263325       5.49882837        2      -0.03315616       0.02344495      -0.04060784
In      -1.57834492      -2.23211678       3.86613968        3      -0.00000000       0.00000000       0.00000000
In      -1.33308474       4.29080844       3.56575853        4       0.03315616      -0.02344495      -0.04060784
In       4.98029493      -3.00132490       5.79920952        5       0.03315616       0.04688990      -0.00000000
In      -1.33308474       1.46290867       5.79920952        6       0.03315616       0.04688990      -0.00000000
In      -1.82360510       7.46555848       1.93306984        7      -0.03315616      -0.04688990      -0.00000000
In       4.48977457       0.17342514       4.16652083        8      -0.03315616       0.02344495       0.04060784
In      -1.57834492       4.46423357      -0.00000000        9       0.00000000      -0.00000000       0.00000000
In       4.48977457       6.86977550       0.30038114       10      -0.03315616       0.02344495       0.04060784
In      -1.33308474      -2.40554192       7.43189821       11       0.03315616      -0.02344495      -0.04060784
In       4.48977457       3.00132491       1.93306984       12      -0.03315616      -0.04688990       0.00000000
In       1.82360509       5.40686683       2.23345099       13       0.03315616      -0.02344495       0.04060784
In       4.73503475       0.00000000      -0.00000000       14      -0.00000000      -0.00000000      -0.00000000
In       1.57834491       2.23211679       3.86613968       15      -0.00000000       0.00000000       0.00000000
O        1.06280764       4.48430746       4.16870550       16       0.02873898       0.01691057      -0.05263825
O       -2.09388219       3.60016793       5.63054211       17       0.02873898      -0.05404135       0.01167414
O       -0.44145385       2.43172464      -0.07793412       18      -0.02542757      -0.01573981      -0.05466606
O       -1.06280765      -0.84399176       2.06696826       19      -0.02873898      -0.03713078      -0.04096411
O        4.09223160       5.26323005       2.14490237       20      -0.06053033       0.00556931       0.01370196
O        2.22114806       3.00619187       1.76440243       21       0.06053033      -0.00908159       0.01167414
O        2.22114806       6.72127176       0.38049993       22       0.06053033       0.01465090       0.00202782
O       -2.43980327       6.30198216       3.78820556       23       0.00636378       0.02921995      -0.05466606
O        3.59814368       2.03250893       7.81021348       24       0.02542757       0.01573981       0.05466606
O        5.59649309      -1.83774858       3.94407379       25      -0.00636378      -0.02921995       0.05466606
O        6.75483351       3.38048619       1.72123731       26       0.02542757      -0.05521211      -0.01370196
O        3.87357640       2.36180797       4.24663962       27       0.00636378      -0.06195217       0.00202782
O        0.71688657       4.72891060       7.42971354       28       0.00636378       0.03273223       0.05263825
O        2.43980326      -0.26467702       0.30256582       29      -0.00636378      -0.03273223      -0.05263825
O       -3.59814368       1.08374739       6.01104205       30      -0.02542757       0.05521211       0.01370196
O        5.25057202       0.86406565       2.10173724       31      -0.02873898       0.05404135      -0.01167414
O        0.93554177       1.45804171       5.96787693       32      -0.06053033       0.00908159      -0.01167414
O        3.59814368      -0.94876154       5.93310794       33       0.02542757       0.03947230      -0.04096411
O        2.09388218      -0.02007388       3.56357386       34      -0.02873898      -0.01691057       0.05263825
O        0.93554177      -2.25703818       7.35177942       35      -0.06053033      -0.01465090      -0.00202782
O       -0.71688657       2.10242561       3.48563974       36      -0.00636378       0.06195217      -0.00202782
O       -0.93554177      -0.79899648       5.58737699       37       0.06053033      -0.00556931      -0.01370196
O       -0.44145385       5.41299512       1.79917142       38      -0.02542757      -0.03947230       0.04096411
O        4.21949748       5.30822534       5.66531110       39       0.02873898       0.03713078       0.04096411
40
Lattice="9.470069496353656 7.422388537218772e-10 3.2364672773856246e-14 -3.1566898328176762 8.928467145325316 -1.2856098631606177e-09 -3.1566898317680194 -4.464233571920413 7.732279365563507" Properties=species:S:1:pos:R:3:spacegroup_kinds:I:1:forces:R:3 spacegroup="P 1" unit_cell=conventional occupancy="_JSON {\"0\": {\"In\": 1}, \"1\": {\"In\": 1}, \"2\": {\"In\": 1}, \"3\": {\"In\": 1}, \"4\": {\"In\": 1}, \"5\": {\"In\": 1}, \"6\": {\"In\": 1}, \"7\": {\"In\": 1}, \"8\": {\"In\": 1}, \"9\": {\"In\": 1}, \"10\": {\"In\": 1}, \"11\": {\"In\": 1}, \"12\": {\"In\": 1}, \"13\": {\"In\": 1}, \"14\": {\"In\": 1}, \"15\": {\"In\": 1}, \"16\": {\"O\": 1}, \"17\": {\"O\": 1}, \"18\": {\"O\": 1}, \"19\": {\"O\": 1}, \"20\": {\"O\": 1}, \"21\": {\"O\": 1}, \"22\": {\"O\": 1}, \"23\": {\"O\": 1}, \"24\": {\"O\": 1}, \"25\": {\"O\": 1}, \"26\": {\"O\": 1}, \"27\": {\"O\": 1}, \"28\": {\"O\": 1}, \"29\": {\"O\": 1}, \"30\": {\"O\": 1}, \"31\": {\"O\": 1}, \"32\": {\"O\": 1}, \"33\": {\"O\": 1}, \"34\": {\"O\": 1}, \"35\": {\"O\": 1}, \"36\": {\"O\": 1}, \"37\": {\"O\": 1}, \"38\": {\"O\": 1}, \"39\": {\"O\": 1}}" n_minim_iter=2 energy=-45145.21792635839 stress="0.09937114430348588 7.294447650576095e-14 -1.0552093467931087e-13 7.294447650576095e-14 0.0993711443037984 -1.5456906314577733e-14 -1.0552093467931087e-13 -1.5456906314577733e-14 0.09937114430368772" free_energy=-45145.21792635839 pbc="T T T"
In      -4.48483946       3.17126040       6.10563491        0      -0.00157548       0.00111404      -0.00192957
In       7.64152929       1.29297318       1.62664445        1       0.00157548      -0.00111404       0.00192957
In       1.32814963      -0.93914361       5.49278413        2       0.00157548      -0.00111404       0.00192957
In      -1.57834492      -2.23211678       3.86613968        3       0.00000000      -0.00000000      -0.00000000
In      -1.32814963       4.28731879       3.55971429        4      -0.00157548       0.00111404       0.00192957
In       4.98523003      -2.99434561       5.79920952        5      -0.00157548      -0.00222807       0.00000000
In      -1.32814963       1.46988796       5.79920952        6      -0.00157548      -0.00222807       0.00000000
In      -1.82854020       7.45857919       1.93306984        7       0.00157548       0.00222807       0.00000000
In       4.48483946       0.17691479       4.17256507        8       0.00157548      -0.00111404      -0.00192957
In      -1.57834492       4.46423357      -0.00000000        9      -0.00000000       0.00000000       0.00000000
In       4.48483946       6.87326514       0.30642539       10       0.00157548      -0.00111404      -0.00192957
In      -1.32814963      -2.40903157       7.42585397       11      -0.00157548       0.00111404       0.00192957
In       4.48483946       2.99434562       1.93306984       12       0.00157548       0.00222807      -0.00000000
In       1.82854020       5.40337719       2.23949523       13      -0.00157548       0.00111404      -0.00192957
In       4.73503475       0.00000000      -0.00000000       14       0.00000000      -0.00000000      -0.00000000
In       1.57834491       2.23211679       3.86613968       15      -0.00000000      -0.00000000      -0.00000000
O        1.06708528       4.48682450       4.16087060       16       0.02785455      -0.00594488       0.01381331
O       -2.08960456       3.59212418       5.63227974       17       0.02785455       0.01493512      -0.00175824
O       -0.44523860       2.42938186      -0.08607085       18       0.01776093       0.02207239      -0.01412035
O       -1.06708528      -0.84951846       2.06087098       19      -0.02785455       0.00899024       0.01205508
O        4.08322201       5.26405901       2.14694183       20       0.00479612      -0.01714263       0.02617542
O        2.23015765       3.00484013       1.76614006       21      -0.00479612      -0.03123989      -0.00175824
O        2.23015765       6.72345246       0.38080176       22      -0.00479612       0.01409727       0.02793366
O       -2.43885605       6.30633138       3.78006883       23      -0.01488974      -0.02410263      -0.01412035
O        3.60192843       2.03485171       7.81835021       24      -0.01776093      -0.02207239       0.01412035
O        5.59554588      -1.84209780       3.95221053       25       0.01488974       0.02410263       0.01412035
O        6.75861826       3.37226818       1.71919785       26      -0.01776093      -0.00119239      -0.02617542
O        3.87452361       2.35258674       4.24694145       27      -0.01488974      -0.00017727       0.02793366
O        0.71783378       4.73378260       7.43754844       28      -0.01488974       0.02427989      -0.01381331
O        2.43885605      -0.26954903       0.29473092       29       0.01488974      -0.02427989       0.01381331
O       -3.60192843       1.09196540       6.01308151       30       0.01776093       0.00119239       0.02617542
O        5.24629438       0.87210939       2.09999962       31      -0.02785455      -0.01493512       0.00175824
O        0.92653218       1.45939345       5.96613930       32       0.00479612       0.03123989       0.00175824
O        3.60192843      -0.94288631       5.92701067       33      -0.01776093       0.02326477       0.01205508
O        2.08960455      -0.02259092       3.57140876       34      -0.02785455       0.00594488      -0.01381331
O        0.92653218      -2.25921888       7.35147760       35       0.00479612      -0.01409727      -0.02793366
O       -0.71783378       2.11164684       3.48533791       36       0.01488974       0.00017727      -0.02793366
O       -0.92653218      -0.79982544       5.58533753       37      -0.00479612       0.01714263      -0.02617542
O       -0.44523860       5.40711989       1.80526869       38       0.01776093      -0.02326477      -0.01205508
O        4.22377511       5.31375204       5.67140838       39       0.02785455      -0.00899024      -0.01205508
40
Lattice="9.47006949635363 7.42238853721875e-10 3.236467277385617e-14 -3.1566898328176674 8.928467145325289 -1.285609863160614e-09 -3.1566898317680105 -4.4642335719204 7.7322793655634845" Properties=species:S:1:pos:R:3:spacegroup_kinds:I:1:forces:R:3 spacegroup="P 1" unit_cell=conventional occupancy="_JSON {\"0\": {\"In\": 1}, \"1\": {\"In\": 1}, \"2\": {\"In\": 1}, \"3\": {\"In\": 1}, \"4\": {\"In\": 1}, \"5\": {\"In\": 1}, \"6\": {\"In\": 1}, \"7\": {\"In\": 1}, \"8\": {\"In\": 1}, \"9\": {\"In\": 1}, \"10\": {\"In\": 1}, \"11\": {\"In\": 1}, \"12\": {\"In\": 1}, \"13\": {\"In\": 1}, \"14\": {\"In\": 1}, \"15\": {\"In\": 1}, \"16\": {\"O\": 1}, \"17\": {\"O\": 1}, \"18\": {\"O\": 1}, \"19\": {\"O\": 1}, \"20\": {\"O\": 1}, \"21\": {\"O\": 1}, \"22\": {\"O\": 1}, \"23\": {\"O\": 1}, \"24\": {\"O\": 1}, \"25\": {\"O\": 1}, \"26\": {\"O\": 1}, \"27\": {\"O\": 1}, \"28\": {\"O\": 1}, \"29\": {\"O\": 1}, \"30\": {\"O\": 1}, \"31\": {\"O\": 1}, \"32\": {\"O\": 1}, \"33\": {\"O\": 1}, \"34\": {\"O\": 1}, \"35\": {\"O\": 1}, \"36\": {\"O\": 1}, \"37\": {\"O\": 1}, \"38\": {\"O\": 1}, \"39\": {\"O\": 1}}" n_minim_iter=3 energy=-45145.22236526426 stress="0.09951070919077905 4.467958715788558e-14 -8.598777881831066e-14 4.467958715788558e-14 0.09951070919113877 -6.72583934631827e-14 -8.598777881831066e-14 -6.72583934631827e-14 0.09951070919062524" free_energy=-45145.22236526426 pbc="T T T"
In      -4.48531846       3.17159910       6.10504827        0       0.00691575      -0.00489017       0.00847003
In       7.64200829       1.29263448       1.62723109        1      -0.00691575       0.00489017      -0.00847003
In       1.32862862      -0.93948231       5.49337078        2      -0.00691575       0.00489017      -0.00847003
In      -1.57834492      -2.23211678       3.86613968        3      -0.00000000       0.00000000      -0.00000000
In      -1.32862863       4.28765749       3.56030093        4       0.00691575      -0.00489017      -0.00847003
In       4.98475104      -2.99502301       5.79920952        5       0.00691575       0.00978034      -0.00000000
In      -1.32862863       1.46921056       5.79920952        6       0.00691575       0.00978034      -0.00000000
In      -1.82806121       7.45925659       1.93306984        7      -0.00691575      -0.00978034      -0.00000000
In       4.48531846       0.17657608       4.17197843        8      -0.00691575       0.00489017       0.00847003
In      -1.57834492       4.46423357      -0.00000000        9      -0.00000000      -0.00000000       0.00000000
In       4.48531846       6.87292644       0.30583874       10      -0.00691575       0.00489017       0.00847003
In      -1.32862863      -2.40869287       7.42644062       11       0.00691575      -0.00489017      -0.00847003
In       4.48531846       2.99502302       1.93306984       12      -0.00691575      -0.00978034       0.00000000
In       1.82806120       5.40371589       2.23890858       13       0.00691575      -0.00489017       0.00847003
In       4.73503475       0.00000000      -0.00000000       14       0.00000000       0.00000000      -0.00000000
In       1.57834491       2.23211679       3.86613968       15      -0.00000000      -0.00000000       0.00000000
O        1.07527210       4.48506666       4.16496117       16       0.02097533       0.01095648      -0.01807647
O       -2.08141773       3.59654564       5.63175679       17       0.02097533      -0.02113292      -0.00045036
O       -0.43999837       2.43588689      -0.09020263       18      -0.00260267      -0.00446076      -0.02932738
O       -1.07527211      -0.84685484       2.06443861       19      -0.02097533      -0.01017644      -0.01852682
O        4.08466166       5.25900991       2.15464124       20      -0.02691608      -0.00675573       0.01080056
O        2.22871800       2.99564769       1.76561711       21       0.02691608      -0.01273142      -0.00045036
O        2.22871800       6.72759579       0.38902412       22       0.02691608       0.00597569       0.01125091
O       -2.44324230       6.29922251       3.77593705       23       0.00333809       0.00394074      -0.02932738
O        3.59668820       2.02834669       7.82248199       24       0.00260267       0.00446076       0.02932738
O        5.59993213      -1.83498893       3.95634231       25      -0.00333809      -0.00394074       0.02932738
O        6.75337803       3.37194246       1.71149844       26       0.00260267      -0.02762864      -0.01080056
O        3.87013736       2.35256295       4.25516380       27       0.00333809      -0.02736862       0.01125091
O        0.71344753       4.74091527       7.43345787       28       0.00333809       0.02342789       0.01807647
O        2.44324230      -0.27668169       0.29882149       29      -0.00333809      -0.02342789      -0.01807647
O       -3.59668820       1.09229112       6.02078092       30      -0.00260267       0.02762864       0.01080056
O        5.23810756       0.86768793       2.10052257       31      -0.02097533       0.02113292       0.00045036
O        0.92797182       1.46858588       5.96666225       32      -0.02691608       0.01273142       0.00045036
O        3.59668820      -0.93605557       5.93057829       33       0.00260267       0.02316787      -0.01852682
O        2.08141772      -0.02083308       3.56731819       34      -0.02097533      -0.01095648       0.01807647
O        0.92797183      -2.26336221       7.34325524       35      -0.02691608      -0.00597569      -0.01125091
O       -0.71344753       2.11167063       3.47711555       36      -0.00333809       0.02736862      -0.01125091
O       -0.92797183      -0.79477633       5.57763812       37       0.02691608       0.00675573      -0.01080056
O       -0.43999837       5.40028915       1.80170107       38      -0.00260267      -0.02316787       0.01852682
O        4.23196194       5.31108842       5.66784075       39       0.02097533       0.01017644       0.01852682
40
Lattice="9.470069496353574 7.422388537218706e-10 3.2364672773855955e-14 -3.1566898328176483 8.928467145325236 -1.2856098631606061e-09 -3.1566898317679914 -4.464233571920373 7.732279365563437" Properties=species:S:1:pos:R:3:spacegroup_kinds:I:1:forces:R:3 spacegroup="P 1" unit_cell=conventional occupancy="_JSON {\"0\": {\"In\": 1}, \"1\": {\"In\": 1}, \"2\": {\"In\": 1}, \"3\": {\"In\": 1}, \"4\": {\"In\": 1}, \"5\": {\"In\": 1}, \"6\": {\"In\": 1}, \"7\": {\"In\": 1}, \"8\": {\"In\": 1}, \"9\": {\"In\": 1}, \"10\": {\"In\": 1}, \"11\": {\"In\": 1}, \"12\": {\"In\": 1}, \"13\": {\"In\": 1}, \"14\": {\"In\": 1}, \"15\": {\"In\": 1}, \"16\": {\"O\": 1}, \"17\": {\"O\": 1}, \"18\": {\"O\": 1}, \"19\": {\"O\": 1}, \"20\": {\"O\": 1}, \"21\": {\"O\": 1}, \"22\": {\"O\": 1}, \"23\": {\"O\": 1}, \"24\": {\"O\": 1}, \"25\": {\"O\": 1}, \"26\": {\"O\": 1}, \"27\": {\"O\": 1}, \"28\": {\"O\": 1}, \"29\": {\"O\": 1}, \"30\": {\"O\": 1}, \"31\": {\"O\": 1}, \"32\": {\"O\": 1}, \"33\": {\"O\": 1}, \"34\": {\"O\": 1}, \"35\": {\"O\": 1}, \"36\": {\"O\": 1}, \"37\": {\"O\": 1}, \"38\": {\"O\": 1}, \"39\": {\"O\": 1}}" n_minim_iter=4 energy=-45145.227917774864 stress="0.09817526214352346 4.707994569444055e-14 3.938895767587399e-14 4.707994569444055e-14 0.09817526214378663 3.619039003080926e-14 3.938895767587399e-14 3.619039003080926e-14 0.0981752621438054" free_energy=-45145.227917774864 pbc="T T T"
In      -4.48164797       3.16900367       6.10954368        0      -0.01208958       0.00854862      -0.01480665
In       7.63833780       1.29522991       1.62273568        1       0.01208958      -0.00854862       0.01480665
In       1.32495814      -0.93688688       5.48887536        2       0.01208958      -0.00854862       0.01480665
In      -1.57834492      -2.23211678       3.86613968        3      -0.00000000       0.00000000       0.00000000
In      -1.32495814       4.28506207       3.55580552        4      -0.01208958       0.00854862       0.01480665
In       4.98842153      -2.98983216       5.79920952        5      -0.01208958      -0.01709724      -0.00000000
In      -1.32495814       1.47440141       5.79920952        6      -0.01208958      -0.01709724       0.00000000
In      -1.83173170       7.45406573       1.93306984        7       0.01208958       0.01709724       0.00000000
In       4.48164797       0.17917151       4.17647384        8       0.01208958      -0.00854862      -0.01480665
In      -1.57834492       4.46423357      -0.00000000        9       0.00000000      -0.00000000       0.00000000
In       4.48164797       6.87552187       0.31033415       10       0.01208958      -0.00854862      -0.01480665
In      -1.32495814      -2.41128829       7.42194520       11      -0.01208958       0.00854862       0.01480665
In       4.48164797       2.98983216       1.93306984       12       0.01208958       0.01709724      -0.00000000
In       1.83173169       5.40112046       2.24340400       13      -0.01208958       0.00854862      -0.01480665
In       4.73503475       0.00000000      -0.00000000       14      -0.00000000      -0.00000000       0.00000000
In       1.57834491       2.23211679       3.86613968       15      -0.00000000       0.00000000      -0.00000000
O        1.09676957       4.48408741       4.16574877       16       0.00383598       0.02026716      -0.01771577
O       -2.05992026       3.59771735       5.63221105       17       0.00383598      -0.02547588      -0.00869399
O       -0.43265111       2.44706429      -0.10707876       18      -0.00363217      -0.02019510      -0.01784057
O       -1.09676958      -0.84666239       2.06568046       19      -0.00383598      -0.00520872      -0.02640976
O        4.07860052       5.24907402       2.17275922       20      -0.02529755      -0.00509154      -0.00856919
O        2.23477914       2.97498912       1.76607137       21       0.02529755       0.00487537      -0.00869399
O        2.23477914       6.73831848       0.40668784       22       0.02529755      -0.00996690       0.00012481
O       -2.45133137       6.28856964       3.75906092       23       0.01782940       0.01015615      -0.01784057
O        3.58934093       2.01716929       7.83935812       24       0.00363217       0.02019510       0.01784057
O        5.60802120      -1.82433606       3.97321844       25      -0.01782940      -0.01015615       0.01784057
O        6.74603077       3.36291601       1.69338046       26       0.00363217      -0.02554794       0.00856919
O        3.86204829       2.34327423       4.27282752       27       0.01782940      -0.02052846       0.00012481
O        0.70535846       4.76085686       7.43267027       28       0.01782940       0.01037232       0.01771577
O        2.45133137      -0.29662328       0.29960909       29      -0.01782940      -0.01037232      -0.01771577
O       -3.58934094       1.10131757       6.03889890       30      -0.00363217       0.02554794      -0.00856919
O        5.21661009       0.86651623       2.10006831       31      -0.00383598       0.02547588       0.00869399
O        0.92191069       1.48924446       5.96620799       32      -0.02529755      -0.00487537       0.00869399
O        3.58934093      -0.91585171       5.93182014       33       0.00363217       0.00535284      -0.02640976
O        2.05992026      -0.01985383       3.56653059       34      -0.00383598      -0.02026716       0.01771577
O        0.92191069      -2.27408490       7.32559152       35      -0.02529755       0.00996690      -0.00012481
O       -0.70535846       2.12095935       3.45945183       36      -0.01782940       0.02052846      -0.00012481
O       -0.92191070      -0.78484044       5.55952014       37       0.02529755       0.00509154       0.00856919
O       -0.43265111       5.38008529       1.80045922       38      -0.00363217      -0.00535284       0.02640976
O        4.25345940       5.31089597       5.66659890       39       0.00383598       0.00520872       0.02640976
40
Lattice="9.470069496353574 7.422388537218704e-10 3.236467277385598e-14 -3.1566898328176483 8.928467145325236 -1.2856098631606061e-09 -3.1566898317679914 -4.464233571920373 7.7322793655634365" Properties=species:S:1:pos:R:3:spacegroup_kinds:I:1:forces:R:3 spacegroup="P 1" unit_cell=conventional occupancy="_JSON {\"0\": {\"In\": 1}, \"1\": {\"In\": 1}, \"2\": {\"In\": 1}, \"3\": {\"In\": 1}, \"4\": {\"In\": 1}, \"5\": {\"In\": 1}, \"6\": {\"In\": 1}, \"7\": {\"In\": 1}, \"8\": {\"In\": 1}, \"9\": {\"In\": 1}, \"10\": {\"In\": 1}, \"11\": {\"In\": 1}, \"12\": {\"In\": 1}, \"13\": {\"In\": 1}, \"14\": {\"In\": 1}, \"15\": {\"In\": 1}, \"16\": {\"O\": 1}, \"17\": {\"O\": 1}, \"18\": {\"O\": 1}, \"19\": {\"O\": 1}, \"20\": {\"O\": 1}, \"21\": {\"O\": 1}, \"22\": {\"O\": 1}, \"23\": {\"O\": 1}, \"24\": {\"O\": 1}, \"25\": {\"O\": 1}, \"26\": {\"O\": 1}, \"27\": {\"O\": 1}, \"28\": {\"O\": 1}, \"29\": {\"O\": 1}, \"30\": {\"O\": 1}, \"31\": {\"O\": 1}, \"32\": {\"O\": 1}, \"33\": {\"O\": 1}, \"34\": {\"O\": 1}, \"35\": {\"O\": 1}, \"36\": {\"O\": 1}, \"37\": {\"O\": 1}, \"38\": {\"O\": 1}, \"39\": {\"O\": 1}}" n_minim_iter=5 energy=-45145.228373463164 stress="0.09804263689992684 -5.246286890062601e-14 -1.0475694302327959e-13 -5.246286890062601e-14 0.0980426368999244 -4.592517035348782e-14 -1.0475694302327959e-13 -4.592517035348782e-14 0.0980426368998849" free_energy=-45145.228373463164 pbc="T T T"
In      -4.48148614       3.16888924       6.10974188        0      -0.01504125       0.01063577      -0.01842170
In       7.63817597       1.29534433       1.62253748        1       0.01504125      -0.01063577       0.01842170
In       1.32479631      -0.93677245       5.48867717        2       0.01504125      -0.01063577       0.01842170
In      -1.57834492      -2.23211678       3.86613968        3      -0.00000000      -0.00000000      -0.00000000
In      -1.32479631       4.28494764       3.55560732        4      -0.01504125       0.01063577       0.01842170
In       4.98858335      -2.98960330       5.79920952        5      -0.01504125      -0.02127154       0.00000000
In      -1.32479631       1.47463027       5.79920952        6      -0.01504125      -0.02127154      -0.00000000
In      -1.83189352       7.45383688       1.93306984        7       0.01504125       0.02127154      -0.00000000
In       4.48148614       0.17928594       4.17667203        8       0.01504125      -0.01063577      -0.01842170
In      -1.57834492       4.46423357      -0.00000000        9      -0.00000000      -0.00000000      -0.00000000
In       4.48148614       6.87563630       0.31053235       10       0.01504125      -0.01063577      -0.01842170
In      -1.32479631      -2.41140272       7.42174701       11      -0.01504125       0.01063577       0.01842170
In       4.48148614       2.98960330       1.93306984       12       0.01504125       0.02127154      -0.00000000
In       1.83189352       5.40100603       2.24360219       13      -0.01504125       0.01063577      -0.01842170
In       4.73503475       0.00000000      -0.00000000       14       0.00000000      -0.00000000      -0.00000000
In       1.57834491       2.23211679       3.86613968       15       0.00000000      -0.00000000       0.00000000
O        1.09578427       4.48473953       4.16450640       16       0.00536905       0.01335565      -0.00789305
O       -2.06090556       3.59631536       5.63226748       17       0.00536905      -0.01351341      -0.00761981
O       -0.43368651       2.44569774      -0.10708370       18       0.00164095      -0.01087724      -0.01218578
O       -1.09578428      -0.84741225       2.06449452       19      -0.00536905      -0.00015776      -0.01551286
O        4.07760716       5.24982103       2.17157822       20      -0.01453025      -0.00687771      -0.00332708
O        2.23577250       2.97638540       1.76612780       21       0.01453025      -0.00055752      -0.00761981
O        2.23577250       6.73766921       0.40545042       22       0.01453025      -0.00632018       0.00429273
O       -2.45038811       6.29000135       3.75905598       23       0.01080214       0.00207865      -0.01218578
O        3.59037634       2.01853584       7.83936306       24      -0.00164095       0.01087724       0.01218578
O        5.60707794      -1.82576777       3.97322338       25      -0.01080214      -0.00207865       0.01218578
O        6.74706617       3.36222846       1.69456146       26      -0.00164095      -0.01599182       0.00332708
O        3.86299155       2.34255409       4.27159010       27       0.01080214      -0.01159252       0.00429273
O        0.70630172       4.76014529       7.43391264       28       0.01080214       0.00951387       0.00789305
O        2.45038811      -0.29591171       0.29836672       29      -0.01080214      -0.00951387      -0.00789305
O       -3.59037635       1.10200512       6.03771790       30       0.00164095       0.01599182      -0.00332708
O        5.21759539       0.86791821       2.10001188       31      -0.00536905       0.01351341       0.00761981
O        0.92091732       1.48784818       5.96615156       32      -0.01453025       0.00055752       0.00761981
O        3.59037634      -0.91653071       5.93063420       33      -0.00164095       0.00511458      -0.01551286
O        2.06090556      -0.02050595       3.56777296       34      -0.00536905      -0.01335565       0.00789305
O        0.92091733      -2.27343563       7.32682894       35      -0.01453025       0.00632018      -0.00429273
O       -0.70630172       2.12167948       3.46068926       36      -0.01080214       0.01159252      -0.00429273
O       -0.92091733      -0.78558745       5.56070114       37       0.01453025       0.00687771       0.00332708
O       -0.43368651       5.38076429       1.80164516       38       0.00164095      -0.00511458       0.01551286
O        4.25247410       5.31164583       5.66778484       39       0.00536905       0.00015776       0.01551286
40