40
Lattice="9.268517157723815 7.264416730125552e-10 2.0431386363187153e-14 -3.089505719926167 8.738441778118354 -1.258239737907732e-09 -3.089505718898842 -4.369220888332736 7.567712570180568" Properties=species:S:1:pos:R:3:spacegroup_kinds:I:1:forces:R:3 spacegroup="P 1" unit_cell=conventional occupancy="_JSON {\"0\": {\"In\": 1}, \"1\": {\"In\": 1}, \"2\": {\"In\": 1}, \"3\": {\"In\": 1}, \"4\": {\"In\": 1}, \"5\": {\"In\": 1}, \"6\": {\"In\": 1}, \"7\": {\"In\": 1}, \"8\": {\"In\": 1}, \"9\": {\"In\": 1}, \"10\": {\"In\": 1}, \"11\": {\"In\": 1}, \"12\": {\"In\": 1}, \"13\": {\"In\": 1}, \"14\": {\"In\": 1}, \"15\": {\"In\": 1}, \"16\": {\"O\": 1}, \"17\": {\"O\": 1}, \"18\": {\"O\": 1}, \"19\": {\"O\": 1}, \"20\": {\"O\": 1}, \"21\": {\"O\": 1}, \"22\": {\"O\": 1}, \"23\": {\"O\": 1}, \"24\": {\"O\": 1}, \"25\": {\"O\": 1}, \"26\": {\"O\": 1}, \"27\": {\"O\": 1}, \"28\": {\"O\": 1}, \"29\": {\"O\": 1}, \"30\": {\"O\": 1}, \"31\": {\"O\": 1}, \"32\": {\"O\": 1}, \"33\": {\"O\": 1}, \"34\": {\"O\": 1}, \"35\": {\"O\": 1}, \"36\": {\"O\": 1}, \"37\": {\"O\": 1}, \"38\": {\"O\": 1}, \"39\": {\"O\": 1}}" n_minim_iter=1 energy=-45148.87613540366 stress="0.07988507437294753 -4.609772933425418e-14 -3.0402803703232706e-14 -4.609772933425418e-14 0.0798850743730752 8.565333081507377e-15 -3.0402803703232706e-14 8.565333081507377e-15 0.07988507437313305" free_energy=-45148.87613540366 pbc="T T T"
In      -4.40549509       3.11515545       5.95596134        0       0.01536143      -0.01086217       0.01881383
In       7.49500080       1.25406544       1.61175122        1      -0.01536143       0.01086217      -0.01881383
In       1.31598936      -0.93054500       5.39560751        2      -0.01536143       0.01086217      -0.01881383
In      -1.54475286      -2.18461044       3.78385628        3      -0.00000000       0.00000000      -0.00000000
In      -1.31598937       4.20746067       3.50367937        4       0.01536143      -0.01086217      -0.01881383
In       4.86302207      -2.95339523       5.67578443        5       0.01536143       0.02172434      -0.00000000
In      -1.31598937       1.41582566       5.67578442        6       0.01536143       0.02172434      -0.00000000
In      -1.77351636       7.32261612       1.89192814        7      -0.01536143      -0.02172434      -0.00000000
In       4.40549508       0.16176022       4.06403320        8      -0.01536143       0.01086217       0.01881383
In      -1.54475286       4.36922089      -0.00000000        9      -0.00000000       0.00000000      -0.00000000
In       4.40549508       6.71559155       0.28017691       10      -0.01536143       0.01086217       0.01881383
In      -1.31598937      -2.34637066       7.28753565       11       0.01536143      -0.01086217      -0.01881383
In       4.40549508       2.95339523       1.89192814       12      -0.01536143      -0.02172434       0.00000000
In       1.77351635       5.29976590       2.17210506       13       0.01536143      -0.01086217       0.01881383
In       4.63425858       0.00000000      -0.00000000       14       0.00000000       0.00000000      -0.00000000
In       1.54475286       2.18461045       3.78385628       15       0.00000000      -0.00000000      -0.00000000
O        0.97342909       4.38158437       4.10141002       16       0.02277017       0.00679398      -0.05954571
O       -2.11607662       3.54574353       5.50630047       17       0.02277017      -0.05496509       0.02388909
O       -0.44024913       2.36075455      -0.00895098       18      -0.03782610      -0.01211706      -0.05032587
O       -0.97342910      -0.81111388       2.03999792       19      -0.02277017      -0.04817111      -0.03565662
O        4.04831793       5.17516692       2.04894890       20      -0.05941164       0.01911545       0.01466925
O        2.13069350       2.99775211       1.72244418       21       0.05941164      -0.00314622       0.02388909
O        2.13069350       6.54663570       0.32650471       22       0.05941164       0.02226167      -0.00921984
O       -2.37249045       6.18198402       3.77490531       23      -0.00118463       0.03970181      -0.05032587
O        3.52975485       2.00846634       7.57666354       24       0.03782610       0.01211706       0.05032587
O        5.46199616      -1.81276312       3.79280726       25       0.00118463      -0.03970181       0.05032587
O        6.61926057       3.35723595       1.73490738       26       0.03782610      -0.04964201      -0.01466925
O        3.80652099       2.36278233       4.11036099       27      -0.00118463      -0.06343439      -0.00921984
O        0.71701527       4.56289632       7.25015883       28      -0.00118463       0.02373258       0.05954571
O        2.37249044      -0.19367543       0.31755373       29       0.00118463      -0.02373258      -0.05954571
O       -3.52975485       1.01198495       5.83280518       30      -0.03782610       0.04964201       0.01466925
O        5.20558234       0.82347736       2.06141210       31      -0.02277017       0.05496509      -0.02388909
O        0.95881221       1.37146878       5.84526838       32      -0.05941164       0.00314622      -0.02388909
O        3.52975485      -0.99648140       5.82385420       33       0.03782610       0.03752495      -0.03565662
O        2.11607662      -0.01236348       3.46630255       34      -0.02277017      -0.00679398       0.05954571
O        0.95881221      -2.17741481       7.24120785       35      -0.05941164      -0.02226167       0.00921984
O       -0.71701528       2.00643856       3.45735157       36       0.00118463       0.06343439       0.00921984
O       -0.95881222      -0.80594603       5.51876367       37       0.05941164      -0.01911545      -0.01466925
O       -0.44024914       5.36570229       1.74385836       38      -0.03782610      -0.03752495       0.03565662
O        4.06293481       5.18033477       5.52771464       39       0.02277017       0.04817111       0.03565662
40
Lattice="9.268517157723812 7.264416730125553e-10 2.043138636318716e-14 -3.089505719926168 8.738441778118348 -1.258239737907732e-09 -3.089505718898843 -4.369220888332733 7.56771257018057" Properties=species:S:1:pos:R:3:spacegroup_kinds:I:1:forces:R:3 spacegroup="P 1" unit_cell=conventional occupancy="_JSON {\"0\": {\"In\": 1}, \"1\": {\"In\": 1}, \"2\": {\"In\": 1}, \"3\": {\"In\": 1}, \"4\": {\"In\": 1}, \"5\": {\"In\": 1}, \"6\": {\"In\": 1}, \"7\": {\"In\": 1}, \"8\": {\"In\": 1}, \"9\": {\"In\": 1}, \"10\": {\"In\": 1}, \"11\": {\"In\": 1}, \"12\": {\"In\": 1}, \"13\": {\"In\": 1}, \"14\": {\"In\": 1}, \"15\": {\"In\": 1}, \"16\": {\"O\": 1}, \"17\": {\"O\": 1}, \"18\": {\"O\": 1}, \"19\": {\"O\": 1}, \"20\": {\"O\": 1}, \"21\": {\"O\": 1}, \"22\": {\"O\": 1}, \"23\": {\"O\": 1}, \"24\": {\"O\": 1}, \"25\": {\"O\": 1}, \"26\": {\"O\": 1}, \"27\": {\"O\": 1}, \"28\": {\"O\": 1}, \"29\": {\"O\": 1}, \"30\": {\"O\": 1}, \"31\": {\"O\": 1}, \"32\": {\"O\": 1}, \"33\": {\"O\": 1}, \"34\": {\"O\": 1}, \"35\": {\"O\": 1}, \"36\": {\"O\": 1}, \"37\": {\"O\": 1}, \"38\": {\"O\": 1}, \"39\": {\"O\": 1}}" n_minim_iter=2 energy=-45148.88169035808 stress="0.07929714547723302 -7.093801490455757e-14 5.5599437578448116e-14 -7.093801490455757e-14 0.0792971454774774 -3.769303997504253e-14 5.5599437578448116e-14 -3.769303997504253e-14 0.07929714547738602" free_energy=-45148.88169035808 pbc="T T T"
In      -4.40439784       3.11437958       5.95730519        0       0.00400339      -0.00283082       0.00490313
In       7.49390356       1.25484131       1.61040738        1      -0.00400339       0.00283082      -0.00490313
In       1.31489212      -0.92976913       5.39426366        2      -0.00400339       0.00283082      -0.00490313
In      -1.54475286      -2.18461044       3.78385628        3      -0.00000000      -0.00000000      -0.00000000
In      -1.31489212       4.20668480       3.50233552        4       0.00400339      -0.00283082      -0.00490313
In       4.86411932      -2.95184349       5.67578443        5       0.00400339       0.00566165      -0.00000000
In      -1.31489212       1.41737740       5.67578442        6       0.00400339       0.00566165      -0.00000000
In      -1.77461360       7.32106438       1.89192814        7      -0.00400339      -0.00566165       0.00000000
In       4.40439784       0.16253609       4.06537704        8      -0.00400339       0.00283082       0.00490313
In      -1.54475286       4.36922089      -0.00000000        9       0.00000000       0.00000000      -0.00000000
In       4.40439784       6.71636742       0.28152076       10      -0.00400339       0.00283082       0.00490313
In      -1.31489212      -2.34714653       7.28619181       11       0.00400339      -0.00283082      -0.00490313
In       4.40439784       2.95184349       1.89192814       12      -0.00400339      -0.00566165      -0.00000000
In       1.77461360       5.29899003       2.17344890       13       0.00400339      -0.00283082       0.00490313
In       4.63425858       0.00000000      -0.00000000       14       0.00000000       0.00000000      -0.00000000
In       1.54475286       2.18461045       3.78385628       15       0.00000000       0.00000000      -0.00000000
O        0.97505553       4.38206966       4.09715675       16       0.02236641       0.00634044      -0.02297174
O       -2.11445018       3.54181745       5.50800683       17       0.02236641      -0.02306433       0.00599489
O       -0.44295100       2.35988904      -0.01254568       18      -0.00831197      -0.00137145      -0.03157829
O       -0.97505554      -0.81455467       2.03745102       19      -0.02236641      -0.01672389      -0.01697686
O        4.04407424       5.17653231       2.04999670       20      -0.02920073      -0.00150785       0.01460144
O        2.13493719       2.99752738       1.72415055       21       0.02920073      -0.01339914       0.00599489
O        2.13493719       6.54822582       0.32584615       22       0.02920073       0.01189129       0.00860655
O       -2.37257506       6.18481986       3.77131060       23      -0.00147764       0.00829375      -0.03157829
O        3.53245671       2.00933185       7.58025825       24       0.00831197       0.00137145       0.03157829
O        5.46208078      -1.81559897       3.79640196       25       0.00147764      -0.00829375       0.03157829
O        6.62196243       3.35369009       1.73385958       26       0.00831197      -0.02803333      -0.01460144
O        3.80643638       2.35825131       4.10970243       27      -0.00147764      -0.03149448       0.00860655
O        0.71693066       4.56459151       7.25441209       28      -0.00147764       0.02320073       0.02297174
O        2.37257506      -0.19537061       0.31330047       29       0.00147764      -0.02320073      -0.02297174
O       -3.53245672       1.01553080       5.83385298       30      -0.00831197       0.02803333       0.01460144
O        5.20395590       0.82740344       2.05970573       31      -0.02236641       0.02306433      -0.00599489
O        0.95456852       1.37169351       5.84356202       32      -0.02920073       0.01339914      -0.00599489
O        3.53245672      -0.99380104       5.82130730       33       0.00831197       0.02666188      -0.01697686
O        2.11445018      -0.01284876       3.47055581       34      -0.02236641      -0.00634044       0.02297174
O        0.95456852      -2.17900493       7.24186641       35      -0.02920073      -0.01189129      -0.00860655
O       -0.71693066       2.01096959       3.45801013       36       0.00147764       0.03149448      -0.00860655
O       -0.95456853      -0.80731142       5.51771587       37       0.02920073       0.00150785      -0.01460144
O       -0.44295100       5.36302194       1.74640526       38      -0.00831197      -0.02666188       0.01697686
O        4.06456125       5.18377556       5.53026155       39       0.02236641       0.01672389       0.01697686
40
Lattice="9.26851715772381 7.264416730125552e-10 2.043138636318716e-14 -3.0895057199261675 8.738441778118347 -1.2582397379077315e-09 -3.0895057188988426 -4.369220888332732 7.567712570180568" Properties=species:S:1:pos:R:3:spacegroup_kinds:I:1:forces:R:3 spacegroup="P 1" unit_cell=conventional occupancy="_JSON {\"0\": {\"In\": 1}, \"1\": {\"In\": 1}, \"2\": {\"In\": 1}, \"3\": {\"In\": 1}, \"4\": {\"In\": 1}, \"5\": {\"In\": 1}, \"6\": {\"In\": 1}, \"7\": {\"In\": 1}, \"8\": {\"In\": 1}, \"9\": {\"In\": 1}, \"10\": {\"In\": 1}, \"11\": {\"In\": 1}, \"12\": {\"In\": 1}, \"13\": {\"In\": 1}, \"14\": {\"In\": 1}, \"15\": {\"In\": 1}, \"16\": {\"O\": 1}, \"17\": {\"O\": 1}, \"18\": {\"O\": 1}, \"19\": {\"O\": 1}, \"20\": {\"O\": 1}, \"21\": {\"O\": 1}, \"22\": {\"O\": 1}, \"23\": {\"O\": 1}, \"24\": {\"O\": 1}, \"25\": {\"O\": 1}, \"26\": {\"O\": 1}, \"27\": {\"O\": 1}, \"28\": {\"O\": 1}, \"29\": {\"O\": 1}, \"30\": {\"O\": 1}, \"31\": {\"O\": 1}, \"32\": {\"O\": 1}, \"33\": {\"O\": 1}, \"34\": {\"O\": 1}, \"35\": {\"O\": 1}, \"36\": {\"O\": 1}, \"37\": {\"O\": 1}, \"38\": {\"O\": 1}, \"39\": {\"O\": 1}}" n_minim_iter=3 energy=-45148.883298250934 stress="0.0787708978832844 -3.914712038230851e-14 -1.1404151054051578e-13 -3.914712038230851e-14 0.07877089788365874 -1.2275100409839481e-13 -1.1404151054051578e-13 -1.2275100409839481e-13 0.07877089788337366" free_energy=-45148.883298250934 pbc="T T T"
In      -4.40354305       3.11377516       5.95835208        0      -0.00501903       0.00354899      -0.00614703
In       7.49304877       1.25544574       1.60936048        1       0.00501903      -0.00354899       0.00614703
In       1.31403733      -0.92916471       5.39321677        2       0.00501903      -0.00354899       0.00614703
In      -1.54475286      -2.18461044       3.78385628        3       0.00000000       0.00000000       0.00000000
In      -1.31403733       4.20608038       3.50128862        4      -0.00501903       0.00354899       0.00614703
In       4.86497410      -2.95063464       5.67578443        5      -0.00501903      -0.00709797      -0.00000000
In      -1.31403733       1.41858625       5.67578442        6      -0.00501903      -0.00709797       0.00000000
In      -1.77546839       7.31985553       1.89192814        7       0.00501903       0.00709797      -0.00000000
In       4.40354305       0.16314052       4.06642394        8       0.00501903      -0.00354899      -0.00614703
In      -1.54475286       4.36922089      -0.00000000        9       0.00000000       0.00000000      -0.00000000
In       4.40354305       6.71697185       0.28256766       10       0.00501903      -0.00354899      -0.00614703
In      -1.31403733      -2.34775096       7.28514491       11      -0.00501903       0.00354899       0.00614703
In       4.40354305       2.95063464       1.89192814       12       0.00501903       0.00709797      -0.00000000
In       1.77546838       5.29838560       2.17449580       13      -0.00501903       0.00354899      -0.00614703
In       4.63425858       0.00000000      -0.00000000       14      -0.00000000      -0.00000000      -0.00000000
In       1.54475286       2.18461045       3.78385628       15       0.00000000       0.00000000      -0.00000000
O        0.97675001       4.38256658       4.09364945       16       0.02117960       0.00469998       0.00708428
O       -2.11275571       3.53853158       5.50933014       17       0.02117960       0.00378518      -0.00761244
O       -0.44501562       2.35926126      -0.01582632       18       0.01505975       0.00811257      -0.01510770
O       -0.97675001      -0.81734362       2.03526702       19      -0.02117960       0.00848515      -0.00052816
O        4.04041147       5.17742719       2.05109334       20      -0.00349117      -0.01720759       0.01457954
O        2.13859997       2.99702510       1.72547385       21       0.00349117      -0.02123004      -0.00761244
O        2.13859997       6.54962298       0.32561948       22       0.00349117       0.00402246       0.02219198
O       -2.37267139       6.18697567       3.76802997       23      -0.00262869      -0.01690265      -0.01510770
O        3.53452134       2.00995964       7.58353888       24      -0.01505975      -0.00811257       0.01510770
O        5.46217710      -1.81775477       3.79968260       25       0.00262869       0.01690265       0.01510770
O        6.62402706       3.35053509       1.73276294       26      -0.01505975      -0.00902737      -0.01457954
O        3.80634005       2.35433229       4.10947577       27      -0.00262869      -0.00463232       0.02219198
O        0.71683433       4.56635472       7.25791939       28      -0.00262869       0.02153498      -0.00708428
O        2.37267138      -0.19713382       0.30979317       29       0.00262869      -0.02153498       0.00708428
O       -3.53452134       1.01868581       5.83494962       30       0.01505975       0.00902737       0.01457954
O        5.20226142       0.83068931       2.05838243       31      -0.02117960      -0.00378518       0.00761244
O        0.95090575       1.37219579       5.84223871       32      -0.00349117       0.02123004       0.00761244
O        3.53452134      -0.99127382       5.81912331       33      -0.01505975       0.01713993      -0.00052816
O        2.11275570      -0.01334568       3.47406311       34      -0.02117960      -0.00469998      -0.00708428
O        0.95090575      -2.18040208       7.24209308       35      -0.00349117      -0.00402246      -0.02219198
O       -0.71683434       2.01488860       3.45823680       36       0.00262869       0.00463232      -0.02219198
O       -0.95090575      -0.80820629       5.51661923       37       0.00349117       0.01720759      -0.01457954
O       -0.44501562       5.36049472       1.74858926       38       0.01505975      -0.01713993       0.00052816
O        4.06625573       5.18656451       5.53244554       39       0.02117960      -0.00848515       0.00052816
40
Lattice="9.268517157723801 7.264416730125544e-10 2.0431386363187153e-14 -3.0895057199261657 8.738441778118334 -1.2582397379077307e-09 -3.089505718898841 -4.369220888332726 7.56771257018056" Properties=species:S:1:pos:R:3:spacegroup_kinds:I:1:forces:R:3 spacegroup="P 1" unit_cell=conventional occupancy="_JSON {\"0\": {\"In\": 1}, \"1\": {\"In\": 1}, \"2\": {\"In\": 1}, \"3\": {\"In\": 1}, \"4\": {\"In\": 1}, \"5\": {\"In\": 1}, \"6\": {\"In\": 1}, \"7\": {\"In\": 1}, \"8\": {\"In\": 1}, \"9\": {\"In\": 1}, \"10\": {\"In\": 1}, \"11\": {\"In\": 1}, \"12\": {\"In\": 1}, \"13\": {\"In\": 1}, \"14\": {\"In\": 1}, \"15\": {\"In\": 1}, \"16\": {\"O\": 1}, \"17\": {\"O\": 1}, \"18\": {\"O\": 1}, \"19\": {\"O\": 1}, \"20\": {\"O\": 1}, \"21\": {\"O\": 1}, \"22\": {\"O\": 1}, \"23\": {\"O\": 1}, \"24\": {\"O\": 1}, \"25\": {\"O\": 1}, \"26\": {\"O\": 1}, \"27\": {\"O\": 1}, \"28\": {\"O\": 1}, \"29\": {\"O\": 1}, \"30\": {\"O\": 1}, \"31\": {\"O\": 1}, \"32\": {\"O\": 1}, \"33\": {\"O\": 1}, \"34\": {\"O\": 1}, \"35\": {\"O\": 1}, \"36\": {\"O\": 1}, \"37\": {\"O\": 1}, \"38\": {\"O\": 1}, \"39\": {\"O\": 1}}" n_minim_iter=4 energy=-45148.88456927289 stress="0.0782055334356028 1.2033018584604682e-14 -8.695365061372698e-15 1.2033018584604682e-14 0.07820553343555699 -1.0337877498245624e-13 -8.695365061372698e-15 -1.0337877498245624e-13 0.07820553343551855" free_energy=-45148.88456927289 pbc="T T T"
In      -4.40352135       3.11375981       5.95837866        0      -0.00486110       0.00343732      -0.00595361
In       7.49302707       1.25546108       1.60933391        1       0.00486110      -0.00343732       0.00595361
In       1.31401563      -0.92914936       5.39319019        2       0.00486110      -0.00343732       0.00595361
In      -1.54475286      -2.18461044       3.78385628        3      -0.00000000      -0.00000000       0.00000000
In      -1.31401564       4.20606503       3.50126205        4      -0.00486110       0.00343732       0.00595361
In       4.86499580      -2.95060395       5.67578443        5      -0.00486110      -0.00687464       0.00000000
In      -1.31401564       1.41861694       5.67578442        6      -0.00486110      -0.00687464       0.00000000
In      -1.77549009       7.31982484       1.89192814        7       0.00486110       0.00687464      -0.00000000
In       4.40352135       0.16315586       4.06645052        8       0.00486110      -0.00343732      -0.00595361
In      -1.54475286       4.36922089      -0.00000000        9       0.00000000      -0.00000000      -0.00000000
In       4.40352135       6.71698719       0.28259423       10       0.00486110      -0.00343732      -0.00595361
In      -1.31401564      -2.34776630       7.28511833       11      -0.00486110       0.00343732       0.00595361
In       4.40352135       2.95060396       1.89192814       12       0.00486110       0.00687464       0.00000000
In       1.77549008       5.29837026       2.17452237       13      -0.00486110       0.00343732      -0.00595361
In       4.63425858       0.00000000      -0.00000000       14      -0.00000000       0.00000000       0.00000000
In       1.54475286       2.18461045       3.78385628       15      -0.00000000      -0.00000000      -0.00000000
O        0.98228942       4.38391912       4.09117810       16       0.01294143      -0.00513262       0.02623089
O       -2.10721629       3.53571505       5.50939448       17       0.01294143       0.02528293      -0.00867047
O       -0.44454941       2.36003203      -0.02197535       18       0.02331170       0.01795004       0.00403047
O       -0.98228943      -0.81880761       2.03286001       19      -0.01294143       0.02015031       0.01756042
O        4.03590955       5.17534103       2.05483536       20       0.01952316      -0.01782332       0.01352995
O        2.14310189       2.99274134       1.72553820       21      -0.01952316      -0.02062894      -0.00867047
O        2.14310189       6.55182058       0.32929716       22      -0.01952316       0.00280563       0.02220042
O       -2.37324267       6.18627920       3.76188093       23      -0.00915289      -0.02796183       0.00403047
O        3.53405513       2.00918887       7.58968792       24      -0.02331170      -0.01795004      -0.00403047
O        5.46274839      -1.81705830       3.80583163       25       0.00915289       0.02796183      -0.00403047
O        6.62356085       3.34559525       1.72902092       26      -0.02331170       0.01246551      -0.01352995
O        3.80576877       2.34935531       4.11315345       27      -0.00915289       0.01747140       0.02220042
O        0.71626305       4.57202817       7.26039075       28      -0.00915289       0.01049043      -0.02623089
O        2.37324267      -0.20280728       0.30732181       29       0.00915289      -0.01049043       0.02623089
O       -3.53405513       1.02362564       5.83869164       30       0.02331170      -0.01246551       0.01352995
O        5.19672201       0.83350584       2.05831808       31      -0.01294143      -0.02528293       0.00867047
O        0.94640383       1.37647956       5.84217437       32       0.01952316       0.02062894       0.00867047
O        3.53405513      -0.98556322       5.81671630       33      -0.02331170       0.00548453       0.01756042
O        2.10721629      -0.01469822       3.47653447       34      -0.01294143       0.00513262      -0.02623089
O        0.94640383      -2.18259969       7.23841540       35       0.01952316      -0.00280563      -0.02220042
O       -0.71626305       2.01986559       3.45455912       36       0.00915289      -0.01747140      -0.02220042
O       -0.94640383      -0.80612013       5.51287721       37      -0.01952316       0.01782332      -0.01352995
O       -0.44454941       5.35478411       1.75099627       38       0.02331170      -0.00548453      -0.01756042
O        4.07179514       5.18802850       5.53485255       39       0.01294143      -0.02015031      -0.01756042
40
Lattice="9.268517157723789 7.264416730125533e-10 2.0431386363187112e-14 -3.0895057199261617 8.738441778118325 -1.2582397379077294e-09 -3.089505718898837 -4.3692208883327215 7.567712570180551" Properties=species:S:1:pos:R:3:spacegroup_kinds:I:1:forces:R:3 spacegroup="P 1" unit_cell=conventional occupancy="_JSON {\"0\": {\"In\": 1}, \"1\": {\"In\": 1}, \"2\": {\"In\": 1}, \"3\": {\"In\": 1}, \"4\": {\"In\": 1}, \"5\": {\"In\": 1}, \"6\": {\"In\": 1}, \"7\": {\"In\": 1}, \"8\": {\"In\": 1}, \"9\": {\"In\": 1}, \"10\": {\"In\": 1}, \"11\": {\"In\": 1}, \"12\": {\"In\": 1}, \"13\": {\"In\": 1}, \"14\": {\"In\": 1}, \"15\": {\"In\": 1}, \"16\": {\"O\": 1}, \"17\": {\"O\": 1}, \"18\": {\"O\": 1}, \"19\": {\"O\": 1}, \"20\": {\"O\": 1}, \"21\": {\"O\": 1}, \"22\": {\"O\": 1}, \"23\": {\"O\": 1}, \"24\": {\"O\": 1}, \"25\": {\"O\": 1}, \"26\": {\"O\": 1}, \"27\": {\"O\": 1}, \"28\": {\"O\": 1}, \"29\": {\"O\": 1}, \"30\": {\"O\": 1}, \"31\": {\"O\": 1}, \"32\": {\"O\": 1}, \"33\": {\"O\": 1}, \"34\": {\"O\": 1}, \"35\": {\"O\": 1}, \"36\": {\"O\": 1}, \"37\": {\"O\": 1}, \"38\": {\"O\": 1}, \"39\": {\"O\": 1}}" n_minim_iter=5 energy=-45148.886101068696 stress="0.07834735393039631 9.495322118489454e-14 3.0945030040306575e-15 9.495322118489454e-14 0.07834735393003069 -1.128622339186632e-13 3.0945030040306575e-15 -1.128622339186632e-13 0.07834735393014594" free_energy=-45148.886101068696 pbc="T T T"
In      -4.40472103       3.11460811       5.95690936        0       0.00975426      -0.00689731       0.01194648
In       7.49422675       1.25461278       1.61080321        1      -0.00975426       0.00689731      -0.01194648
In       1.31521531      -0.92999766       5.39465949        2      -0.00975426       0.00689731      -0.01194648
In      -1.54475286      -2.18461044       3.78385628        3      -0.00000000      -0.00000000       0.00000000
In      -1.31521531       4.20691333       3.50273135        4       0.00975426      -0.00689731      -0.01194648
In       4.86379613      -2.95230055       5.67578443        5       0.00975426       0.01379461      -0.00000000
In      -1.31521531       1.41692034       5.67578442        6       0.00975426       0.01379461       0.00000000
In      -1.77429041       7.32152144       1.89192814        7      -0.00975426      -0.01379461       0.00000000
In       4.40472103       0.16230756       4.06498122        8      -0.00975426       0.00689731       0.01194648
In      -1.54475286       4.36922089      -0.00000000        9      -0.00000000       0.00000000      -0.00000000
In       4.40472103       6.71613889       0.28112493       10      -0.00975426       0.00689731       0.01194648
In      -1.31521531      -2.34691800       7.28658763       11       0.00975426      -0.00689731      -0.01194648
In       4.40472103       2.95230056       1.89192814       12      -0.00975426      -0.01379461       0.00000000
In       1.77429041       5.29921856       2.17305307       13       0.00975426      -0.00689731       0.01194648
In       4.63425858       0.00000000      -0.00000000       14      -0.00000000       0.00000000      -0.00000000
In       1.54475286       2.18461045       3.78385628       15       0.00000000      -0.00000000      -0.00000000
O        0.98690159       4.38467779       4.09359587       16       0.00442302      -0.01277950       0.00251991
O       -2.10260413       3.53742957       5.50752856       17       0.00442302       0.00857206       0.00980742
O       -0.44068028       2.36227194      -0.02475130       18      -0.00249248       0.01346205       0.00133770
O       -0.98690159      -0.81633442       2.03341186       19      -0.00442302      -0.00420745       0.01232733
O        4.03598862       5.17126515       2.05816315       20       0.00660747       0.00497977       0.01098963
O        2.14302282       2.98782144       1.72367228       21      -0.00660747      -0.00702742       0.00980742
O        2.14302282       6.55266460       0.33449087       22      -0.00660747       0.01200718       0.00118221
O       -2.37406477       6.18188471       3.75910499       23      -0.01352297      -0.00213742       0.00133770
O        3.53018600       2.00694895       7.59246386       24       0.00249248      -0.01346205      -0.00133770
O        5.46357049      -1.81266381       3.80860758       25       0.01352297       0.00213742      -0.00133770
O        6.61969171       3.34431117       1.72569312       26       0.00249248       0.00788951      -0.01098963
O        3.80494667       2.34914851       4.11834716       27      -0.01352297       0.00222719       0.00118221
O        0.71544095       4.57662946       7.25797298       28      -0.01352297      -0.00008977      -0.00251991
O        2.37406477      -0.20740856       0.30973958       29       0.01352297       0.00008977       0.00251991
O       -3.53018600       1.02490973       5.84201944       30      -0.00249248      -0.00788951       0.01098963
O        5.19210984       0.83179133       2.06018400       31      -0.00442302      -0.00857206      -0.00980742
O        0.94648290       1.38139945       5.84404029       32       0.00660747       0.00702742      -0.00980742
O        3.53018600      -0.98203922       5.81726815       33       0.00249248       0.00557255       0.01232733
O        2.10260412      -0.01545690       3.47411670       34      -0.00442302       0.01277950      -0.00251991
O        0.94648290      -2.18344371       7.23322169       35       0.00660747      -0.01200718      -0.00118221
O       -0.71544095       2.02007238       3.44936540       36       0.01352297      -0.00222719      -0.00118221
O       -0.94648290      -0.80204425       5.50954941       37      -0.00660747      -0.00497977      -0.01098963
O       -0.44068028       5.35126012       1.75044442       38      -0.00249248      -0.00557255      -0.01232733
O        4.07640731       5.18555532       5.53430070       39       0.00442302       0.00420745      -0.01232733
40