40
Lattice="8.272867711709676 6.484032998785826e-10 2.1043206891476227e-14 -2.757622571181215 7.799734478196068 -1.1230815926760216e-09 -2.7576225702642505 -3.8998672384496227 6.754768201639865" Properties=species:S:1:pos:R:3:spacegroup_kinds:I:1:forces:R:3 spacegroup="P 1" unit_cell=conventional occupancy="_JSON {\"0\": {\"In\": 1}, \"1\": {\"In\": 1}, \"2\": {\"In\": 1}, \"3\": {\"In\": 1}, \"4\": {\"In\": 1}, \"5\": {\"In\": 1}, \"6\": {\"In\": 1}, \"7\": {\"In\": 1}, \"8\": {\"In\": 1}, \"9\": {\"In\": 1}, \"10\": {\"In\": 1}, \"11\": {\"In\": 1}, \"12\": {\"In\": 1}, \"13\": {\"In\": 1}, \"14\": {\"In\": 1}, \"15\": {\"In\": 1}, \"16\": {\"O\": 1}, \"17\": {\"O\": 1}, \"18\": {\"O\": 1}, \"19\": {\"O\": 1}, \"20\": {\"O\": 1}, \"21\": {\"O\": 1}, \"22\": {\"O\": 1}, \"23\": {\"O\": 1}, \"24\": {\"O\": 1}, \"25\": {\"O\": 1}, \"26\": {\"O\": 1}, \"27\": {\"O\": 1}, \"28\": {\"O\": 1}, \"29\": {\"O\": 1}, \"30\": {\"O\": 1}, \"31\": {\"O\": 1}, \"32\": {\"O\": 1}, \"33\": {\"O\": 1}, \"34\": {\"O\": 1}, \"35\": {\"O\": 1}, \"36\": {\"O\": 1}, \"37\": {\"O\": 1}, \"38\": {\"O\": 1}, \"39\": {\"O\": 1}}" n_minim_iter=5 energy=-45141.07920055218 stress="-0.27184381010998826 1.9628236072957535e-13 8.173792182041557e-14 1.9628236072957535e-13 -0.27184381011026715 -2.7514505941044367e-14 8.173792182041557e-14 -2.7514505941044367e-14 -0.2718438101101767" free_energy=-45141.07920055218 pbc="T T T"
In      -3.94000891       2.78600702       5.30664660        0      -0.00038338       0.00027109      -0.00046955
In       6.69763148       1.11386023       1.44812160        1       0.00038338      -0.00027109       0.00046955
In       1.18238633      -0.83607339       4.82550570        2       0.00038338      -0.00027109       0.00046955
In      -1.37881129      -1.94993362       3.37738410        3       0.00000000       0.00000000      -0.00000000
In      -1.18238634       3.76097383       3.13681365        4      -0.00038338       0.00027109       0.00046955
In       4.33285880      -2.64711360       5.06607615        5      -0.00038338      -0.00054219      -0.00000000
In      -1.18238634       1.25275364       5.06607615        6      -0.00038338      -0.00054219       0.00000000
In      -1.57523624       6.54698084       1.68869205        7       0.00038338       0.00054219      -0.00000000
In       3.94000891       0.13889342       3.61795455        8       0.00038338      -0.00027109      -0.00046955
In      -1.37881129       3.89986724      -0.00000000        9      -0.00000000      -0.00000000       0.00000000
In       3.94000891       5.98869427       0.24057045       10       0.00038338      -0.00027109      -0.00046955
In      -1.18238634      -2.08882703       6.51419775       11      -0.00038338       0.00027109       0.00046955
In       3.94000891       2.64711360       1.68869205       12       0.00038338       0.00054219       0.00000000
In       1.57523623       4.73594064       1.92926250       13      -0.00038338       0.00027109      -0.00046955
In       4.13643385       0.00000000      -0.00000000       14       0.00000000       0.00000000      -0.00000000
In       1.37881128       1.94993362       3.37738410       15      -0.00000000       0.00000000       0.00000000
O        0.78405210       3.89083593       3.71850438       16       0.00502099      -0.00146601       0.00305238
O       -1.97357047       3.22483491       4.90333736       17       0.00502099       0.00337644      -0.00025659
O       -0.38359068       2.10054943       0.09588874       18       0.00347483       0.00446974      -0.00215023
O       -0.78405211      -0.68406364       1.86707353       19      -0.00502099       0.00191043       0.00279579
O        3.69826033       4.63929227       1.77118479       20       0.00150968      -0.00315186       0.00494602
O        1.81698480       2.73568873       1.52595326       21      -0.00150968      -0.00585931      -0.00025659
O        1.81698480       5.80347078       0.24523153       22      -0.00150968       0.00270745       0.00520260
O       -2.10828055       5.51127048       3.47327284       23      -0.00305583      -0.00476602      -0.00215023
O        3.14121325       1.79931782       6.65887946       24      -0.00347483      -0.00446974       0.00215023
O        4.86590312      -1.61140324       3.28149536       25       0.00305583       0.00476602       0.00215023
O        5.89883582       3.08325042       1.60619930       26      -0.00347483       0.00037272      -0.00494602
O        3.40696459       2.20224090       3.62261563       27      -0.00305583       0.00052086       0.00520260
O        0.64934202       3.98609034       6.41364792       28      -0.00305583       0.00424516      -0.00305238
O        2.10828055      -0.08622310       0.34112028       29       0.00305583      -0.00424516       0.00305238
O       -3.14121326       0.81661682       5.14856889       30       0.00347483      -0.00037272       0.00494602
O        4.73119303       0.67503233       1.85143084       31      -0.00502099      -0.00337644       0.00025659
O        0.94063776       1.16417851       5.22881494       32       0.00150968       0.00585931       0.00025659
O        3.14121325      -0.98270099       5.24445763       33      -0.00347483       0.00409702       0.00279579
O        1.97357046       0.00903131       3.03626382       34      -0.00502099       0.00146601      -0.00305238
O        0.94063776      -1.90360354       6.50953666       35       0.00150968      -0.00270745      -0.00520260
O       -0.64934202       1.69762635       3.13215256       36       0.00305583      -0.00052086      -0.00520260
O       -0.94063777      -0.73942503       4.98358340       37      -0.00150968       0.00315186      -0.00494602
O       -0.38359069       4.88256823       1.51031056       38       0.00347483      -0.00409702      -0.00279579
O        3.54167467       4.58393088       4.88769466       39       0.00502099      -0.00191043      -0.00279579
