40
Lattice="9.403843067427076 7.37048145472428e-10 2.4076602273181395e-14 -3.134614356503923 8.86602826934337 -1.2766176672267726e-09 -3.134614355461599 -4.433014133934635 7.678205712773409" Properties=species:S:1:pos:R:3:spacegroup_kinds:I:1:forces:R:3 spacegroup="P 1" unit_cell=conventional occupancy="_JSON {\"0\": {\"In\": 1}, \"1\": {\"In\": 1}, \"2\": {\"In\": 1}, \"3\": {\"In\": 1}, \"4\": {\"In\": 1}, \"5\": {\"In\": 1}, \"6\": {\"In\": 1}, \"7\": {\"In\": 1}, \"8\": {\"In\": 1}, \"9\": {\"In\": 1}, \"10\": {\"In\": 1}, \"11\": {\"In\": 1}, \"12\": {\"In\": 1}, \"13\": {\"In\": 1}, \"14\": {\"In\": 1}, \"15\": {\"In\": 1}, \"16\": {\"O\": 1}, \"17\": {\"O\": 1}, \"18\": {\"O\": 1}, \"19\": {\"O\": 1}, \"20\": {\"O\": 1}, \"21\": {\"O\": 1}, \"22\": {\"O\": 1}, \"23\": {\"O\": 1}, \"24\": {\"O\": 1}, \"25\": {\"O\": 1}, \"26\": {\"O\": 1}, \"27\": {\"O\": 1}, \"28\": {\"O\": 1}, \"29\": {\"O\": 1}, \"30\": {\"O\": 1}, \"31\": {\"O\": 1}, \"32\": {\"O\": 1}, \"33\": {\"O\": 1}, \"34\": {\"O\": 1}, \"35\": {\"O\": 1}, \"36\": {\"O\": 1}, \"37\": {\"O\": 1}, \"38\": {\"O\": 1}, \"39\": {\"O\": 1}}" n_minim_iter=7 energy=-45147.76016357872 stress="0.08653823419739909 1.2056413615647994e-13 1.573417768935454e-13 1.2056413615647994e-13 0.0865382341974357 -3.87421669780021e-14 1.573417768935454e-13 -3.87421669780021e-14 0.0865382341971552" free_energy=-45147.76016357872 pbc="T T T"
In      -4.46347189       3.15615124       6.05069426        0       0.00132883      -0.00093963       0.00162748
In       7.59808624       1.27686290       1.62751145        1      -0.00132883       0.00093963      -0.00162748
In       1.32885753      -0.93964417       5.46661430        2      -0.00132883       0.00093963      -0.00162748
In      -1.56730718      -2.21650707       3.83910285        3      -0.00000000       0.00000000       0.00000000
In      -1.32885753       4.26440478       3.54706287        4       0.00132883      -0.00093963      -0.00162748
In       4.94037118      -2.98754188       5.75865428        5       0.00132883       0.00187925       0.00000000
In      -1.32885753       1.44547226       5.75865428        6       0.00132883       0.00187925       0.00000000
In      -1.80575683       7.42055602       1.91955142        7      -0.00132883      -0.00187925       0.00000000
In       4.46347189       0.16860936       4.13114283        8      -0.00132883       0.00093963       0.00162748
In      -1.56730718       4.43301414      -0.00000000        9       0.00000000       0.00000000       0.00000000
In       4.46347189       6.81813057       0.29203998       10      -0.00132883       0.00093963       0.00162748
In      -1.32885753      -2.38511643       7.38616573       11       0.00132883      -0.00093963      -0.00162748
In       4.46347189       2.98754188       1.91955143       12      -0.00132883      -0.00187925       0.00000000
In       1.80575682       5.37265831       2.21159140       13       0.00132883      -0.00093963       0.00162748
In       4.70192153       0.00000000      -0.00000000       14       0.00000000      -0.00000000       0.00000000
In       1.56730718       2.21650707       3.83910285       15      -0.00000000      -0.00000000      -0.00000000
O        1.02816852       4.45053904       4.14566351       16       0.00003064       0.00370113       0.00217550
O       -2.10644584       3.58148747       5.59019695       17       0.00003064       0.00003347      -0.00429302
O       -0.44358157       2.40566487      -0.05142429       18       0.00353123      -0.00244182      -0.00000570
O       -1.02816852      -0.83400177       2.05765474       19      -0.00003064       0.00373460      -0.00211752
O        4.07880737       5.23732608       2.10907903       20       0.00002134      -0.00373789      -0.00211183
O        2.19042133       3.00865409       1.75109409       21      -0.00002134      -0.00004005      -0.00429302
O        2.19042133       6.66168613       0.35798493       22      -0.00002134      -0.00369784       0.00218119
O       -2.41594311       6.26584563       3.78767857       23       0.00347924      -0.00251533      -0.00000570
O        3.57819592       2.02734927       7.72962999       24      -0.00353123       0.00244182       0.00000570
O        5.55055747      -1.83283149       3.89052714       25      -0.00347924       0.00251533       0.00000570
O        6.71281028       3.37480477       1.73002382       26      -0.00353123      -0.00122584       0.00211183
O        3.85328560       2.36381012       4.19708779       27       0.00347924       0.00125273       0.00218119
O        0.71867124       4.66938666       7.37164506       28       0.00347924       0.00126260      -0.00217550
O        2.41594311      -0.23637252       0.30656065       29      -0.00347924      -0.00126260       0.00217550
O       -3.57819593       1.05820937       5.94818188       30       0.00353123       0.00122584      -0.00211183
O        5.24106019       0.85152667       2.08800876       31      -0.00003064      -0.00003347       0.00429302
O        0.94419302       1.42436005       5.92711162       32       0.00002134       0.00004005       0.00429302
O        3.57819592      -0.96913990       5.89675760       33      -0.00353123      -0.00121598      -0.00211752
O        2.10644583      -0.01752490       3.53254220       34      -0.00003064      -0.00370113      -0.00217550
O        0.94419302      -2.22867199       7.32022077       35       0.00002134       0.00369784      -0.00218119
O       -0.71867125       2.06920402       3.48111792       36      -0.00347924      -0.00125273      -0.00218119
O       -0.94419302      -0.80431195       5.56912668       37      -0.00002134       0.00373789       0.00211183
O       -0.44358157       5.40215404       1.78144811       38       0.00353123       0.00121598       0.00211752
O        4.16278288       5.26701591       5.62055096       39       0.00003064      -0.00373460       0.00211752
