40
Lattice="8.683070522901321 6.805534897093485e-10 4.020714638408405e-15 -2.8943568416087406 8.186477397459209 -1.1787534482309295e-09 -2.894356840646296 -4.093238698049049 7.089697394492629" Properties=species:S:1:pos:R:3:spacegroup_kinds:I:1:forces:R:3 spacegroup="P 1" unit_cell=conventional occupancy="_JSON {\"0\": {\"In\": 1}, \"1\": {\"In\": 1}, \"2\": {\"In\": 1}, \"3\": {\"In\": 1}, \"4\": {\"In\": 1}, \"5\": {\"In\": 1}, \"6\": {\"In\": 1}, \"7\": {\"In\": 1}, \"8\": {\"In\": 1}, \"9\": {\"In\": 1}, \"10\": {\"In\": 1}, \"11\": {\"In\": 1}, \"12\": {\"In\": 1}, \"13\": {\"In\": 1}, \"14\": {\"In\": 1}, \"15\": {\"In\": 1}, \"16\": {\"O\": 1}, \"17\": {\"O\": 1}, \"18\": {\"O\": 1}, \"19\": {\"O\": 1}, \"20\": {\"O\": 1}, \"21\": {\"O\": 1}, \"22\": {\"O\": 1}, \"23\": {\"O\": 1}, \"24\": {\"O\": 1}, \"25\": {\"O\": 1}, \"26\": {\"O\": 1}, \"27\": {\"O\": 1}, \"28\": {\"O\": 1}, \"29\": {\"O\": 1}, \"30\": {\"O\": 1}, \"31\": {\"O\": 1}, \"32\": {\"O\": 1}, \"33\": {\"O\": 1}, \"34\": {\"O\": 1}, \"35\": {\"O\": 1}, \"36\": {\"O\": 1}, \"37\": {\"O\": 1}, \"38\": {\"O\": 1}, \"39\": {\"O\": 1}}" n_minim_iter=5 energy=-45151.23027996019 stress="-0.051872915048974774 1.259522573315941e-13 8.033508873819987e-14 1.259522573315941e-13 -0.0518729150490132 -1.380071324238254e-13 8.033508873819987e-14 -1.380071324238254e-13 -0.05187291504885539" free_energy=-45151.23027996019 pbc="T T T"
In      -4.14436786       2.93051061       5.55875281        0      -0.00187112       0.00132308      -0.00229164
In       7.03872469       1.16272809       1.53094457        1       0.00187112      -0.00132308       0.00229164
In       1.25001101      -0.88389126       5.07579327        2       0.00187112      -0.00132308       0.00229164
In      -1.44717842      -2.04661935       3.54484869        3       0.00000000       0.00000000       0.00000000
In      -1.25001101       3.95382029       3.30336892        4      -0.00187112       0.00132308       0.00229164
In       4.53870267      -2.79109220       5.31727304        5      -0.00187112      -0.00264616      -0.00000000
In      -1.25001101       1.30214650       5.31727304        6      -0.00187112      -0.00264616      -0.00000000
In      -1.64434583       6.88433090       1.77242435        7       0.00187112       0.00264616      -0.00000000
In       4.14436785       0.13941841       3.78632847        8       0.00187112      -0.00132308      -0.00229164
In      -1.44717842       4.09323870      -0.00000000        9       0.00000000       0.00000000      -0.00000000
In       4.14436785       6.27927646       0.24147977       10       0.00187112      -0.00132308      -0.00229164
In      -1.25001101      -2.18603776       6.84821762       11      -0.00187112       0.00132308       0.00229164
In       4.14436785       2.79109220       1.77242435       12       0.00187112       0.00264616      -0.00000000
In       1.64434583       4.97712996       2.01390412       13      -0.00187112       0.00132308      -0.00229164
In       4.34153526       0.00000000      -0.00000000       14       0.00000000      -0.00000000       0.00000000
In       1.44717842       2.04661935       3.54484869       15      -0.00000000      -0.00000000       0.00000000
O        0.84254381       4.08936131       3.87079590       16      -0.00488238       0.00787135       0.00096568
O       -2.05181304       3.35414628       5.15765735       17      -0.00488238      -0.00309937      -0.00729963
O       -0.41963071       2.20001910       0.06696689       18       0.00287161      -0.00858226       0.00219702
O       -0.84254381      -0.74296980       1.93875587       19       0.00488238       0.00477198      -0.00633394
O        3.84625712       4.87487186       1.87178898       20      -0.00129465      -0.00350353      -0.00853097
O        1.94245656       2.86303847       1.61280866       21       0.00129465       0.00563627      -0.00729963
O        1.94245656       6.10507209       0.25898032       22       0.00129465      -0.00913980      -0.00123134
O       -2.21407480       5.80214998       3.61181558       23       0.00904864       0.00015338       0.00219702
O        3.31398755       1.89321961       7.02273050       24      -0.00287161       0.00858226      -0.00219702
O        5.10843164      -1.70891128       3.47788181       25      -0.00904864      -0.00015338      -0.00219702
O        6.20834439       3.20462393       1.67305971       26      -0.00287161      -0.00238845       0.00853097
O        3.57463888       2.27346841       3.80382902       27       0.00904864       0.00182599      -0.00123134
O        0.68028204       4.20409771       6.76375018       28       0.00904864      -0.00197937      -0.00096568
O        2.21407480      -0.11085901       0.32594721       29      -0.00904864       0.00197937       0.00096568
O       -3.31398756       0.88861478       5.41663768       30       0.00287161       0.00238845      -0.00853097
O        4.94616987       0.73909242       1.93204004       31       0.00488238       0.00309937       0.00729963
O        0.95190028       1.23020023       5.47688873       32      -0.00129465      -0.00563627       0.00729963
O        3.31398755      -1.00460483       5.48360456       33      -0.00287161      -0.00619381      -0.00633394
O        2.05181303       0.00387739       3.21890148       34       0.00488238      -0.00787135      -0.00096568
O        0.95190028      -2.01183338       6.83071707       35      -0.00129465       0.00913980       0.00123134
O       -0.68028204       1.81977029       3.28586837       36      -0.00904864      -0.00182599       0.00123134
O       -0.95190028      -0.78163315       5.21790841       37       0.00129465       0.00350353       0.00853097
O       -0.41963071       5.09784353       1.60609283       38       0.00287161       0.00619381       0.00633394
O        3.73690065       4.83620851       5.15094152       39      -0.00488238      -0.00477198       0.00633394
