40
Lattice="9.268517157723815 7.264404957783524e-10 1.8093258306794095e-14 -3.0895057199261693 8.73844177811835 -1.2582358357637877e-09 -3.0895057188988395 -4.369220888332736 7.567712570180573" Properties=species:S:1:pos:R:3:spacegroup_kinds:I:1:forces:R:3 spacegroup="P 1" unit_cell=conventional occupancy="_JSON {\"0\": {\"In\": 1}, \"1\": {\"In\": 1}, \"2\": {\"In\": 1}, \"3\": {\"In\": 1}, \"4\": {\"In\": 1}, \"5\": {\"In\": 1}, \"6\": {\"In\": 1}, \"7\": {\"In\": 1}, \"8\": {\"In\": 1}, \"9\": {\"In\": 1}, \"10\": {\"In\": 1}, \"11\": {\"In\": 1}, \"12\": {\"In\": 1}, \"13\": {\"In\": 1}, \"14\": {\"In\": 1}, \"15\": {\"In\": 1}, \"16\": {\"O\": 1}, \"17\": {\"O\": 1}, \"18\": {\"O\": 1}, \"19\": {\"O\": 1}, \"20\": {\"O\": 1}, \"21\": {\"O\": 1}, \"22\": {\"O\": 1}, \"23\": {\"O\": 1}, \"24\": {\"O\": 1}, \"25\": {\"O\": 1}, \"26\": {\"O\": 1}, \"27\": {\"O\": 1}, \"28\": {\"O\": 1}, \"29\": {\"O\": 1}, \"30\": {\"O\": 1}, \"31\": {\"O\": 1}, \"32\": {\"O\": 1}, \"33\": {\"O\": 1}, \"34\": {\"O\": 1}, \"35\": {\"O\": 1}, \"36\": {\"O\": 1}, \"37\": {\"O\": 1}, \"38\": {\"O\": 1}, \"39\": {\"O\": 1}}" n_minim_iter=6 energy=-45149.87775558743 stress="0.0668233312571851 -2.6804213995562353e-14 3.4418110471920947e-14 -2.6804213995562353e-14 0.06682333125719578 -2.7440806812633895e-14 3.4418110471920947e-14 -2.7440806812633895e-14 0.06682333125728425" free_energy=-45149.87775558743 pbc="T T T"
In      -4.40549509       3.11515545       5.95596134        0       0.00002272      -0.00001607       0.00002783
In       7.49500080       1.25406544       1.61175122        1      -0.00002272       0.00001607      -0.00002783
In       1.31598936      -0.93054500       5.39560751        2      -0.00002272       0.00001607      -0.00002783
In      -1.54475286      -2.18461044       3.78385628        3       0.00000000      -0.00000000       0.00000000
In      -1.31598937       4.20746067       3.50367937        4       0.00002272      -0.00001607      -0.00002783
In       4.86302207      -2.95339523       5.67578443        5       0.00002272       0.00003213      -0.00000000
In      -1.31598937       1.41582566       5.67578442        6       0.00002272       0.00003213      -0.00000000
In      -1.77351636       7.32261612       1.89192814        7      -0.00002272      -0.00003213      -0.00000000
In       4.40549508       0.16176022       4.06403320        8      -0.00002272       0.00001607       0.00002783
In      -1.54475286       4.36922089      -0.00000000        9      -0.00000000       0.00000000      -0.00000000
In       4.40549508       6.71559155       0.28017691       10      -0.00002272       0.00001607       0.00002783
In      -1.31598937      -2.34637066       7.28753565       11       0.00002272      -0.00001607      -0.00002783
In       4.40549508       2.95339523       1.89192814       12      -0.00002272      -0.00003213       0.00000000
In       1.77351635       5.29976590       2.17210506       13       0.00002272      -0.00001607       0.00002783
In       4.63425858       0.00000000      -0.00000000       14      -0.00000000      -0.00000000      -0.00000000
In       1.54475286       2.18461045       3.78385628       15       0.00000000       0.00000000      -0.00000000
O        0.97342909       4.38158437       4.10141002       16       0.00077853      -0.00965719       0.00182821
O       -2.11607662       3.54574353       5.50630047       17       0.00077853       0.00641187       0.00744927
O       -0.44024913       2.36075455      -0.00895098       18      -0.00280020       0.00894242       0.00306623
O       -0.97342910      -0.81111388       2.03999792       19      -0.00077853      -0.00324532       0.00927748
O        4.04831793       5.17516692       2.04894890       20       0.00578566       0.00501561       0.00621125
O        2.13069350       2.99775211       1.72244418       21      -0.00578566      -0.00287130       0.00744927
O        2.13069350       6.54663570       0.32650471       22      -0.00578566       0.00788691      -0.00123802
O       -2.37249045       6.18198402       3.77490531       23      -0.00936440      -0.00034075       0.00306623
O        3.52975485       2.00846634       7.57666354       24       0.00280020      -0.00894242      -0.00306623
O        5.46199616      -1.81276312       3.79280726       25       0.00936440       0.00034075      -0.00306623
O        6.61926057       3.35723595       1.73490738       26       0.00280020       0.00712664      -0.00621125
O        3.80652099       2.36278233       4.11036099       27      -0.00936440       0.00282580      -0.00123802
O        0.71701527       4.56289632       7.25015883       28      -0.00936440      -0.00248506      -0.00182821
O        2.37249044      -0.19367543       0.31755373       29       0.00936440       0.00248506       0.00182821
O       -3.52975485       1.01198495       5.83280518       30      -0.00280020      -0.00712664       0.00621125
O        5.20558234       0.82347736       2.06141210       31      -0.00077853      -0.00641187      -0.00744927
O        0.95881221       1.37146878       5.84526838       32       0.00578566       0.00287130      -0.00744927
O        3.52975485      -0.99648140       5.82385420       33       0.00280020       0.00181578       0.00927748
O        2.11607662      -0.01236348       3.46630255       34      -0.00077853       0.00965719      -0.00182821
O        0.95881221      -2.17741481       7.24120785       35       0.00578566      -0.00788691       0.00123802
O       -0.71701528       2.00643856       3.45735157       36       0.00936440      -0.00282580       0.00123802
O       -0.95881222      -0.80594603       5.51876367       37      -0.00578566      -0.00501561      -0.00621125
O       -0.44024914       5.36570229       1.74385836       38      -0.00280020      -0.00181578      -0.00927748
O        4.06293481       5.18033477       5.52771464       39       0.00077853       0.00324532      -0.00927748
