40
Lattice="9.5353823843662 7.473579041312072e-10 3.258788446720791e-14 -3.17846079549335 8.990044726673672 -1.294476418263805e-09 -3.1784607944364542 -4.495022362589472 7.785607115320698" Properties=species:S:1:pos:R:3:spacegroup_kinds:I:1:forces:R:3 spacegroup="P 1" unit_cell=conventional occupancy="_JSON {\"0\": {\"In\": 1}, \"1\": {\"In\": 1}, \"2\": {\"In\": 1}, \"3\": {\"In\": 1}, \"4\": {\"In\": 1}, \"5\": {\"In\": 1}, \"6\": {\"In\": 1}, \"7\": {\"In\": 1}, \"8\": {\"In\": 1}, \"9\": {\"In\": 1}, \"10\": {\"In\": 1}, \"11\": {\"In\": 1}, \"12\": {\"In\": 1}, \"13\": {\"In\": 1}, \"14\": {\"In\": 1}, \"15\": {\"In\": 1}, \"16\": {\"O\": 1}, \"17\": {\"O\": 1}, \"18\": {\"O\": 1}, \"19\": {\"O\": 1}, \"20\": {\"O\": 1}, \"21\": {\"O\": 1}, \"22\": {\"O\": 1}, \"23\": {\"O\": 1}, \"24\": {\"O\": 1}, \"25\": {\"O\": 1}, \"26\": {\"O\": 1}, \"27\": {\"O\": 1}, \"28\": {\"O\": 1}, \"29\": {\"O\": 1}, \"30\": {\"O\": 1}, \"31\": {\"O\": 1}, \"32\": {\"O\": 1}, \"33\": {\"O\": 1}, \"34\": {\"O\": 1}, \"35\": {\"O\": 1}, \"36\": {\"O\": 1}, \"37\": {\"O\": 1}, \"38\": {\"O\": 1}, \"39\": {\"O\": 1}}" n_minim_iter=7 energy=-45145.22998168618 stress="0.09792843341914857 7.578469487495659e-14 -5.4956455136483256e-14 7.578469487495659e-14 0.09792843341925085 -5.385364277546966e-14 -5.4956455136483256e-14 -5.385364277546966e-14 0.09792843341944828" free_energy=-45145.22998168618 pbc="T T T"
In      -4.51543246       3.19289291       6.14815792        0      -0.00307664       0.00217551      -0.00376810
In       7.69389325       1.30212945       1.63744919        1       0.00307664      -0.00217551       0.00376810
In       1.33697166      -0.94538173       5.53025275        2       0.00307664      -0.00217551       0.00376810
In      -1.58923040      -2.24751118       3.89280356        3       0.00000000       0.00000000       0.00000000
In      -1.33697167       4.31664851       3.58385097        4      -0.00307664       0.00217551       0.00376810
In       5.01994992      -3.01451905       5.83920533        5      -0.00307664      -0.00435103       0.00000000
In      -1.33697167       1.48050331       5.83920533        6      -0.00307664      -0.00435103      -0.00000000
In      -1.84148913       7.50954142       1.94640178        7       0.00307664       0.00435103       0.00000000
In       4.51543246       0.17837386       4.20175614        8       0.00307664      -0.00217551      -0.00376810
In      -1.58923040       4.49502236      -0.00000000        9       0.00000000       0.00000000       0.00000000
In       4.51543246       6.92090741       0.30895258       10       0.00307664      -0.00217551      -0.00376810
In      -1.33697167      -2.42588504       7.47665452       11      -0.00307664       0.00217551       0.00376810
In       4.51543246       3.01451906       1.94640178       12       0.00307664       0.00435103      -0.00000000
In       1.84148913       5.44040410       2.25535436       13      -0.00307664       0.00217551      -0.00376810
In       4.76769119       0.00000000      -0.00000000       14      -0.00000000       0.00000000       0.00000000
In       1.58923040       2.24751118       3.89280355       15      -0.00000000      -0.00000000       0.00000000
O        1.10557212       4.51857073       4.19141945       16       0.00462315      -0.00799118      -0.00004370
O       -2.07288868       3.61810155       5.66950391       17       0.00462315       0.00395775       0.00694242
O       -0.43604323       2.46067703      -0.11138514       18      -0.00226171       0.00882608      -0.00148978
O       -1.10557212      -0.85337246       2.07531625       19      -0.00462315      -0.00403344       0.00689872
O        4.10214174       5.28408658       2.18670139       20       0.00219035       0.00317331       0.00838850
O        2.25477985       2.99581552       1.77670035       21      -0.00219035      -0.00567800       0.00694242
O        2.25477985       6.78329343       0.41000104       22      -0.00219035       0.00885131       0.00144608
O       -2.46529630       6.33341337       3.78141841       23      -0.00907521      -0.00080966      -0.00148978
O        3.61450402       2.03434533       7.89699225       24       0.00226171      -0.00882608       0.00148978
O        5.64375709      -1.83839100       4.00418870       25       0.00907521       0.00080966       0.00148978
O        6.79296482       3.38138734       1.70610216       26       0.00226171       0.00312285      -0.00838850
O        3.89162529       2.35560891       4.30280459       27      -0.00907521      -0.00088535       0.00144608
O        0.71316450       4.79604482       7.48699121       28      -0.00907521       0.00169502       0.00004370
O        2.46529630      -0.30102245       0.29861590       29       0.00907521      -0.00169502      -0.00004370
O       -3.61450403       1.11363503       6.07950495       30      -0.00226171      -0.00312285       0.00838850
O        5.25134947       0.87692082       2.11610320       31      -0.00462315      -0.00395775      -0.00694242
O        0.92368095       1.49920685       6.00890676       32       0.00219035       0.00567799      -0.00694242
O        3.61450402      -0.92071030       5.96811980       33       0.00226171       0.00570322       0.00689872
O        2.07288867      -0.02354836       3.59418766       34      -0.00462315       0.00799118       0.00004370
O        0.92368095      -2.28827106       7.37560607       35       0.00219035      -0.00885131      -0.00144608
O       -0.71316450       2.13941346       3.48280252       36       0.00907521       0.00088535      -0.00144608
O       -0.92368095      -0.78906421       5.59890572       37      -0.00219035      -0.00317331      -0.00838850
O       -0.43604323       5.41573267       1.81748730       38      -0.00226171      -0.00570322      -0.00689872
O        4.28403291       5.34839482       5.71029086       39       0.00462315       0.00403344      -0.00689872
