40
Lattice="4.150565538638738 1.808293294568743e-17 5.532962390805251e-33 9.246741348244439e-16 4.138079316389991 1.200569514402045e-14 1.793968359344303e-31 -4.14685069930119e-14 16.69462236145711" Properties=species:S:1:pos:R:3:spacegroup_kinds:I:1:forces:R:3 spacegroup="P 1" unit_cell=conventional occupancy="_JSON {\"0\": {\"In\": 1}, \"1\": {\"In\": 1}, \"2\": {\"In\": 1}, \"3\": {\"In\": 1}, \"4\": {\"In\": 1}, \"5\": {\"In\": 1}, \"6\": {\"In\": 1}, \"7\": {\"In\": 1}, \"8\": {\"In\": 1}, \"9\": {\"In\": 1}, \"10\": {\"In\": 1}, \"11\": {\"In\": 1}, \"12\": {\"In\": 1}, \"13\": {\"In\": 1}, \"14\": {\"In\": 1}, \"15\": {\"In\": 1}, \"16\": {\"O\": 1}, \"17\": {\"O\": 1}, \"18\": {\"O\": 1}, \"19\": {\"O\": 1}, \"20\": {\"O\": 1}, \"21\": {\"O\": 1}, \"22\": {\"O\": 1}, \"23\": {\"O\": 1}, \"24\": {\"O\": 1}, \"25\": {\"O\": 1}, \"26\": {\"O\": 1}, \"27\": {\"O\": 1}, \"28\": {\"O\": 1}, \"29\": {\"O\": 1}, \"30\": {\"O\": 1}, \"31\": {\"O\": 1}, \"32\": {\"O\": 1}, \"33\": {\"O\": 1}, \"34\": {\"O\": 1}, \"35\": {\"O\": 1}, \"36\": {\"O\": 1}, \"37\": {\"O\": 1}, \"38\": {\"O\": 1}, \"39\": {\"O\": 1}}" n_minim_iter=1 energy=-45263.30411327353 stress="-1.772354281891714 -1.0406850664874145e-12 4.221072466776164e-13 -1.0406850664874145e-12 -1.8184944200892308 -4.1130649093800224e-12 4.221072466776164e-13 -4.1130649093800224e-12 -1.7668992658839344" free_energy=-45263.30411327353 pbc="T T T"
In       2.01047809       3.10355711       9.44071347        0      -0.46301995      -0.00000000       0.74419694
In      -0.06480468       3.10355711       7.25393255        1      -0.46301995       0.00000000      -0.74419694
In       2.14005037       1.03451745      15.60124373        2       0.46301995       0.00000000      -0.74419694
In       4.21533314       1.03451745       1.09340229        3       0.46301995      -0.00000000       0.74419694
In       2.14005037       1.03451745       7.25393255        4       0.46301995       0.00000000      -0.74419694
In       4.21533314       1.03451745       9.44071347        5       0.46301995      -0.00000000       0.74419695
In       2.01047809       3.10355711       1.09340229        6      -0.46301995       0.00000000       0.74419694
In      -0.06480468       3.10355711      15.60124373        7      -0.46301995       0.00000000      -0.74419694
In       2.14005037       3.10355711      13.61436906        8       0.46301995      -0.00000000       0.74419694
In       4.21533314       3.10355711       3.08027696        9       0.46301995      -0.00000000      -0.74419694
In       2.01047809       1.03451745      11.42758814       10      -0.46301995      -0.00000000      -0.74419694
In      -0.06480468       1.03451745       5.26705788       11      -0.46301995       0.00000000       0.74419694
In       2.01047809       1.03451745       3.08027696       12      -0.46301995      -0.00000000      -0.74419694
In      -0.06480468       1.03451745      13.61436906       13      -0.46301995      -0.00000000       0.74419694
In       2.14005037       3.10355711       5.26705788       14       0.46301995      -0.00000000       0.74419694
In       4.21533314       3.10355711      11.42758814       15       0.46301995       0.00000000      -0.74419694
O        3.11290562       4.13807694      12.50068689       16       0.00000000      -0.00000000       0.49419828
O        1.03762285       2.06903728       4.19395913       17      -0.00000000      -0.00000000      -0.49419828
O        1.03762285       2.06903728      12.54127031       18       0.00000000       0.00000000      -0.49419828
O        3.11290562      -0.00000238       4.15337571       19       0.00000000      -0.00000000       0.49419828
O        1.03762285      -0.00000238       4.19395913       20      -0.00000000      -0.00000000      -0.49419828
O        3.11290562       2.06903728      12.50068689       21       0.00000000       0.00000000       0.49419828
O        3.11290562       2.06903728       4.15337571       22      -0.00000000       0.00000000       0.49419828
O        1.03762285       4.13807694      12.54127031       23      -0.00000000       0.00000000      -0.49419828
O        3.11290562       2.06903728      10.43415081       24       0.00000000       0.00000000       0.00000000
O        1.03762285       4.13807694       6.26049522       25      -0.00000000       0.00000000       0.00000000
O        1.03762285      -0.00000238      14.60780640       26       0.00000000      -0.00000000      -0.00000000
O        3.11290562       2.06903728       2.08683962       27      -0.00000000       0.00000000      -0.00000000
O        1.03762285       2.06903728       6.26049522       28       0.00000000      -0.00000000      -0.00000000
O        3.11290562      -0.00000238      10.43415081       29       0.00000000      -0.00000000       0.00000000
O        3.11290562       4.13807694       2.08683962       30      -0.00000000       0.00000000      -0.00000000
O        1.03762285       2.06903728      14.60780640       31       0.00000000       0.00000000       0.00000000
O        3.11290562       2.06903728      16.71492590       32      -0.00000000       0.00000000      -0.49419828
O        1.03762285       4.13807694      -0.02027988       33      -0.00000000       0.00000000       0.49419828
O        1.03762285      -0.00000238       8.32703130       34       0.00000000       0.00000000       0.49419828
O        3.11290562       2.06903728       8.36761472       35      -0.00000000      -0.00000000      -0.49419828
O        1.03762285       2.06903728      -0.02027988       36       0.00000000       0.00000000       0.49419828
O        3.11290562      -0.00000238      16.71492590       37       0.00000000       0.00000000      -0.49419828
O        3.11290562       4.13807694       8.36761472       38      -0.00000000      -0.00000000      -0.49419828
O        1.03762285       2.06903728       8.32703130       39      -0.00000000      -0.00000000       0.49419828
40
Lattice="4.147932628933035 1.1570167693925017e-17 -2.2393444663459682e-32 9.170920835263547e-16 4.144391972402821 1.2024708336496637e-14 1.3161294794795027e-31 -4.141277652029963e-14 16.679774250938085" Properties=species:S:1:pos:R:3:spacegroup_kinds:I:1:forces:R:3 spacegroup="P 1" unit_cell=conventional occupancy="_JSON {\"0\": {\"In\": 1}, \"1\": {\"In\": 1}, \"2\": {\"In\": 1}, \"3\": {\"In\": 1}, \"4\": {\"In\": 1}, \"5\": {\"In\": 1}, \"6\": {\"In\": 1}, \"7\": {\"In\": 1}, \"8\": {\"In\": 1}, \"9\": {\"In\": 1}, \"10\": {\"In\": 1}, \"11\": {\"In\": 1}, \"12\": {\"In\": 1}, \"13\": {\"In\": 1}, \"14\": {\"In\": 1}, \"15\": {\"In\": 1}, \"16\": {\"O\": 1}, \"17\": {\"O\": 1}, \"18\": {\"O\": 1}, \"19\": {\"O\": 1}, \"20\": {\"O\": 1}, \"21\": {\"O\": 1}, \"22\": {\"O\": 1}, \"23\": {\"O\": 1}, \"24\": {\"O\": 1}, \"25\": {\"O\": 1}, \"26\": {\"O\": 1}, \"27\": {\"O\": 1}, \"28\": {\"O\": 1}, \"29\": {\"O\": 1}, \"30\": {\"O\": 1}, \"31\": {\"O\": 1}, \"32\": {\"O\": 1}, \"33\": {\"O\": 1}, \"34\": {\"O\": 1}, \"35\": {\"O\": 1}, \"36\": {\"O\": 1}, \"37\": {\"O\": 1}, \"38\": {\"O\": 1}, \"39\": {\"O\": 1}}" n_minim_iter=2 energy=-45263.31611353361 stress="-1.7823365282373147 1.0680642608306225e-13 -2.157584757316528e-12 1.0680642608306225e-13 -1.7781030514793432 -3.595561022155844e-12 -2.157584757316528e-12 -3.595561022155844e-12 -1.785307537161604" free_energy=-45263.31611353361 pbc="T T T"
In       2.00912724       3.10829160       9.43243828        0      -0.39257493       0.00000000       0.67774797
In      -0.06483908       3.10829160       7.24735961        1      -0.39257493       0.00000000      -0.67774797
In       2.13876834       1.03609561      15.58724673        2       0.39257493       0.00000000      -0.67774797
In       4.21273466       1.03609561       1.09255116        3       0.39257493       0.00000000       0.67774797
In       2.13876834       1.03609561       7.24735961        4       0.39257493       0.00000000      -0.67774797
In       4.21273466       1.03609561       9.43243828        5       0.39257493       0.00000000       0.67774797
In       2.00912724       3.10829160       1.09255116        6      -0.39257493      -0.00000000       0.67774797
In      -0.06483908       3.10829160      15.58724673        7      -0.39257493      -0.00000000      -0.67774797
In       2.13876834       3.10829160      13.60238185        8       0.39257493      -0.00000000       0.67774797
In       4.21273466       3.10829160       3.07741604        9       0.39257493       0.00000000      -0.67774797
In       2.00912724       1.03609561      11.41730317       10      -0.39257493       0.00000000      -0.67774797
In      -0.06483908       1.03609561       5.26249472       11      -0.39257493      -0.00000000       0.67774797
In       2.00912724       1.03609561       3.07741604       12      -0.39257493      -0.00000000      -0.67774797
In      -0.06483908       1.03609561      13.60238185       13      -0.39257493       0.00000000       0.67774797
In       2.13876834       3.10829160       5.26249472       14       0.39257493      -0.00000000       0.67774797
In       4.21273466       3.10829160      11.41730317       15       0.39257493       0.00000000      -0.67774797
O        3.11093095       4.14438959      12.48964942       16      -0.00000000       0.00000000       0.45733995
O        1.03696463       2.07219360       4.19014847       17       0.00000000       0.00000000      -0.45733995
O        1.03696463       2.07219360      12.53003560       18       0.00000000      -0.00000000      -0.45733995
O        3.11093095      -0.00000238       4.14976229       19       0.00000000      -0.00000000       0.45733995
O        1.03696463      -0.00000238       4.19014847       20       0.00000000       0.00000000      -0.45733995
O        3.11093095       2.07219360      12.48964942       21      -0.00000000      -0.00000000       0.45733995
O        3.11093095       2.07219360       4.14976229       22       0.00000000      -0.00000000       0.45733995
O        1.03696463       4.14438959      12.53003560       23      -0.00000000       0.00000000      -0.45733995
O        3.11093095       2.07219360      10.42487073       24      -0.00000000      -0.00000000       0.00000000
O        1.03696463       4.14438959       6.25492716       25      -0.00000000       0.00000000      -0.00000000
O        1.03696463      -0.00000238      14.59481429       26       0.00000000       0.00000000      -0.00000000
O        3.11093095       2.07219360       2.08498360       27       0.00000000      -0.00000000       0.00000000
O        1.03696463       2.07219360       6.25492716       28      -0.00000000      -0.00000000       0.00000000
O        3.11093095      -0.00000238      10.42487073       29       0.00000000      -0.00000000      -0.00000000
O        3.11093095       4.14438959       2.08498360       30      -0.00000000      -0.00000000       0.00000000
O        1.03696463       2.07219360      14.59481429       31      -0.00000000       0.00000000      -0.00000000
O        3.11093095       2.07219360      16.69997916       32       0.00000000       0.00000000      -0.45733995
O        1.03696463       4.14438959      -0.02018127       33       0.00000000      -0.00000000       0.45733995
O        1.03696463      -0.00000238       8.31970586       34       0.00000000      -0.00000000       0.45733995
O        3.11093095       2.07219360       8.36009203       35       0.00000000       0.00000000      -0.45733995
O        1.03696463       2.07219360      -0.02018127       36       0.00000000      -0.00000000       0.45733995
O        3.11093095      -0.00000238      16.69997916       37      -0.00000000       0.00000000      -0.45733995
O        3.11093095       4.14438959       8.36009203       38       0.00000000       0.00000000      -0.45733995
O        1.03696463       2.07219360       8.31970586       39      -0.00000000      -0.00000000       0.45733995
40
Lattice="4.143372492485933 1.237098284165257e-17 -2.014905764399515e-32 9.168861493546194e-16 4.1436276683208515 1.2022799381059677e-14 1.3276693094299758e-31 -4.147503473576702e-14 16.701211790280816" Properties=species:S:1:pos:R:3:spacegroup_kinds:I:1:forces:R:3 spacegroup="P 1" unit_cell=conventional occupancy="_JSON {\"0\": {\"In\": 1}, \"1\": {\"In\": 1}, \"2\": {\"In\": 1}, \"3\": {\"In\": 1}, \"4\": {\"In\": 1}, \"5\": {\"In\": 1}, \"6\": {\"In\": 1}, \"7\": {\"In\": 1}, \"8\": {\"In\": 1}, \"9\": {\"In\": 1}, \"10\": {\"In\": 1}, \"11\": {\"In\": 1}, \"12\": {\"In\": 1}, \"13\": {\"In\": 1}, \"14\": {\"In\": 1}, \"15\": {\"In\": 1}, \"16\": {\"O\": 1}, \"17\": {\"O\": 1}, \"18\": {\"O\": 1}, \"19\": {\"O\": 1}, \"20\": {\"O\": 1}, \"21\": {\"O\": 1}, \"22\": {\"O\": 1}, \"23\": {\"O\": 1}, \"24\": {\"O\": 1}, \"25\": {\"O\": 1}, \"26\": {\"O\": 1}, \"27\": {\"O\": 1}, \"28\": {\"O\": 1}, \"29\": {\"O\": 1}, \"30\": {\"O\": 1}, \"31\": {\"O\": 1}, \"32\": {\"O\": 1}, \"33\": {\"O\": 1}, \"34\": {\"O\": 1}, \"35\": {\"O\": 1}, \"36\": {\"O\": 1}, \"37\": {\"O\": 1}, \"38\": {\"O\": 1}, \"39\": {\"O\": 1}}" n_minim_iter=3 energy=-45263.34276961727 stress="-1.8034236949288898 -6.965903276517969e-12 -4.257985140759113e-12 -6.965903276517969e-12 -1.772363418520503 2.545069346374226e-13 -4.257985140759113e-12 2.545069346374226e-13 -1.7535796642769947" free_energy=-45263.34276961727 pbc="T T T"
In       2.00535912       3.10771837       9.44723680        0      -0.10392019       0.00000000       0.26464781
In      -0.06632713       3.10771837       7.25399866        1      -0.10392019      -0.00000000      -0.26464781
In       2.13797637       1.03590454      15.60460456        2       0.10392019       0.00000000      -0.26464781
In       4.20966261       1.03590454       1.09663090        3       0.10392019       0.00000000       0.26464781
In       2.13797637       1.03590454       7.25399866        4       0.10392019      -0.00000000      -0.26464781
In       4.20966261       1.03590454       9.44723680        5       0.10392019      -0.00000000       0.26464781
In       2.00535912       3.10771837       1.09663090        6      -0.10392019       0.00000000       0.26464781
In      -0.06632713       3.10771837      15.60460456        7      -0.10392019       0.00000000      -0.26464781
In       2.13797637       3.10771837      13.62253974        8       0.10392019       0.00000000       0.26464781
In       4.20966261       3.10771837       3.07869572        9       0.10392019       0.00000000      -0.26464781
In       2.00535912       1.03590454      11.42930161       10      -0.10392019      -0.00000000      -0.26464781
In      -0.06632713       1.03590454       5.27193385       11      -0.10392019      -0.00000000       0.26464781
In       2.00535912       1.03590454       3.07869572       12      -0.10392019       0.00000000      -0.26464781
In      -0.06632713       1.03590454      13.62253974       13      -0.10392019      -0.00000000       0.26464781
In       2.13797637       3.10771837       5.27193385       14       0.10392019      -0.00000000       0.26464781
In       4.20966261       3.10771837      11.42930161       15       0.10392019      -0.00000000      -0.26464781
O        3.10751087       4.14362529      12.50750395       16      -0.00000000       0.00000000       0.09786068
O        1.03582462       2.07181145       4.19373151       17      -0.00000000      -0.00000000      -0.09786068
O        1.03582462       2.07181145      12.54433740       18       0.00000000      -0.00000000      -0.09786068
O        3.10751087      -0.00000238       4.15689806       19      -0.00000000      -0.00000000       0.09786068
O        1.03582462      -0.00000238       4.19373151       20      -0.00000000      -0.00000000      -0.09786068
O        3.10751087       2.07181145      12.50750395       21       0.00000000      -0.00000000       0.09786068
O        3.10751087       2.07181145       4.15689806       22      -0.00000000      -0.00000000       0.09786068
O        1.03582462       4.14362529      12.54433740       23      -0.00000000       0.00000000      -0.09786068
O        3.10751087       2.07181145      10.43826920       24       0.00000000      -0.00000000      -0.00000000
O        1.03582462       4.14362529       6.26296626       25       0.00000000       0.00000000       0.00000000
O        1.03582462      -0.00000238      14.61357215       26      -0.00000000      -0.00000000       0.00000000
O        3.10751087       2.07181145       2.08766331       27       0.00000000      -0.00000000      -0.00000000
O        1.03582462       2.07181145       6.26296626       28      -0.00000000      -0.00000000      -0.00000000
O        3.10751087      -0.00000238      10.43826920       29       0.00000000      -0.00000000       0.00000000
O        3.10751087       4.14362529       2.08766331       30       0.00000000       0.00000000       0.00000000
O        1.03582462       2.07181145      14.61357215       31      -0.00000000       0.00000000       0.00000000
O        3.10751087       2.07181145      16.71964035       32      -0.00000000      -0.00000000      -0.09786068
O        1.03582462       4.14362529      -0.01840489       33      -0.00000000       0.00000000       0.09786068
O        1.03582462      -0.00000238       8.33220100       34      -0.00000000       0.00000000       0.09786068
O        3.10751087       2.07181145       8.36903446       35       0.00000000      -0.00000000      -0.09786068
O        1.03582462       2.07181145      -0.01840489       36       0.00000000      -0.00000000       0.09786068
O        3.10751087      -0.00000238      16.71964035       37       0.00000000      -0.00000000      -0.09786068
O        3.10751087       4.14362529       8.36903446       38      -0.00000000       0.00000000      -0.09786068
O        1.03582462       2.07181145       8.33220100       39      -0.00000000       0.00000000       0.09786068
40
Lattice="4.148733066050082 9.663006016400229e-18 -3.844724897707788e-32 9.154209613423005e-16 4.14217648097477 1.2018506714049903e-14 8.861342865312155e-32 -4.1432105730019827e-14 16.685475784109908" Properties=species:S:1:pos:R:3:spacegroup_kinds:I:1:forces:R:3 spacegroup="P 1" unit_cell=conventional occupancy="_JSON {\"0\": {\"In\": 1}, \"1\": {\"In\": 1}, \"2\": {\"In\": 1}, \"3\": {\"In\": 1}, \"4\": {\"In\": 1}, \"5\": {\"In\": 1}, \"6\": {\"In\": 1}, \"7\": {\"In\": 1}, \"8\": {\"In\": 1}, \"9\": {\"In\": 1}, \"10\": {\"In\": 1}, \"11\": {\"In\": 1}, \"12\": {\"In\": 1}, \"13\": {\"In\": 1}, \"14\": {\"In\": 1}, \"15\": {\"In\": 1}, \"16\": {\"O\": 1}, \"17\": {\"O\": 1}, \"18\": {\"O\": 1}, \"19\": {\"O\": 1}, \"20\": {\"O\": 1}, \"21\": {\"O\": 1}, \"22\": {\"O\": 1}, \"23\": {\"O\": 1}, \"24\": {\"O\": 1}, \"25\": {\"O\": 1}, \"26\": {\"O\": 1}, \"27\": {\"O\": 1}, \"28\": {\"O\": 1}, \"29\": {\"O\": 1}, \"30\": {\"O\": 1}, \"31\": {\"O\": 1}, \"32\": {\"O\": 1}, \"33\": {\"O\": 1}, \"34\": {\"O\": 1}, \"35\": {\"O\": 1}, \"36\": {\"O\": 1}, \"37\": {\"O\": 1}, \"38\": {\"O\": 1}, \"39\": {\"O\": 1}}" n_minim_iter=4 energy=-45263.35518369968 stress="-1.7743167332690188 1.1869061954124437e-12 1.0908693048838333e-13 1.1869061954124437e-12 -1.7740877677072695 1.85147251211885e-13 1.0908693048838333e-13 1.85147251211885e-13 -1.7742651801727531" free_energy=-45263.35518369968 pbc="T T T"
In       2.00720567       3.10662998       9.43963627        0      -0.00994602      -0.00000000       0.00315469
In      -0.06716086       3.10662998       7.24586316        1      -0.00994602       0.00000000      -0.00315469
In       2.14149034       1.03554174      15.58860105        2       0.00994602       0.00000000      -0.00315469
In       4.21585687       1.03554174       1.09689838        3       0.00994602       0.00000000       0.00315469
In       2.14149034       1.03554174       7.24586316        4       0.00994602       0.00000000      -0.00315469
In       4.21585687       1.03554174       9.43963627        5       0.00994602       0.00000000       0.00315469
In       2.00720567       3.10662998       1.09689838        6      -0.00994602      -0.00000000       0.00315469
In      -0.06716086       3.10662998      15.58860105        7      -0.00994602       0.00000000      -0.00315469
In       2.14149034       3.10662998      13.61100522        8       0.00994602      -0.00000000       0.00315469
In       4.21585687       3.10662998       3.07449421        9       0.00994602      -0.00000000      -0.00315469
In       2.00720567       1.03554174      11.41723210       10      -0.00994602      -0.00000000      -0.00315469
In      -0.06716086       1.03554174       5.26826733       11      -0.00994602      -0.00000000       0.00315469
In       2.00720567       1.03554174       3.07449421       12      -0.00994602      -0.00000000      -0.00315469
In      -0.06716086       1.03554174      13.61100522       13      -0.00994602      -0.00000000       0.00315469
In       2.14149034       3.10662998       5.26826733       14       0.00994602       0.00000000       0.00315469
In       4.21585687       3.10662998      11.41723210       15       0.00994602       0.00000000      -0.00315469
O        3.11153127       4.14217410      12.49657670       16       0.00000000       0.00000000      -0.00583616
O        1.03716474       2.07108586       4.18892273       17      -0.00000000      -0.00000000       0.00583616
O        1.03716474       2.07108586      12.53166062       18       0.00000000      -0.00000000       0.00583616
O        3.11153127      -0.00000238       4.15383881       19      -0.00000000       0.00000000      -0.00583616
O        1.03716474      -0.00000238       4.18892273       20       0.00000000       0.00000000       0.00583616
O        3.11153127       2.07108586      12.49657670       21       0.00000000      -0.00000000      -0.00583616
O        3.11153127       2.07108586       4.15383881       22       0.00000000       0.00000000      -0.00583616
O        1.03716474       4.14217410      12.53166062       23       0.00000000      -0.00000000       0.00583616
O        3.11153127       2.07108586      10.42843419       24      -0.00000000       0.00000000      -0.00000000
O        1.03716474       4.14217410       6.25706524       25       0.00000000      -0.00000000      -0.00000000
O        1.03716474      -0.00000238      14.59980313       26      -0.00000000       0.00000000       0.00000000
O        3.11153127       2.07108586       2.08569630       27       0.00000000       0.00000000      -0.00000000
O        1.03716474       2.07108586       6.25706524       28      -0.00000000       0.00000000       0.00000000
O        3.11153127      -0.00000238      10.42843419       29       0.00000000       0.00000000       0.00000000
O        3.11153127       4.14217410       2.08569630       30       0.00000000       0.00000000       0.00000000
O        1.03716474       2.07108586      14.59980313       31       0.00000000       0.00000000      -0.00000000
O        3.11153127       2.07108586      16.70302956       32      -0.00000000      -0.00000000       0.00583616
O        1.03716474       4.14217410      -0.01753013       33       0.00000000      -0.00000000      -0.00583616
O        1.03716474      -0.00000238       8.32520776       34      -0.00000000      -0.00000000      -0.00583616
O        3.11153127       2.07108586       8.36029167       35      -0.00000000      -0.00000000       0.00583616
O        1.03716474       2.07108586      -0.01753013       36      -0.00000000       0.00000000      -0.00583616
O        3.11153127      -0.00000238      16.70302956       37      -0.00000000       0.00000000       0.00583616
O        3.11153127       4.14217410       8.36029167       38       0.00000000       0.00000000       0.00583616
O        1.03716474       2.07108586       8.32520776       39       0.00000000      -0.00000000      -0.00583616
40
Lattice="4.148755245946768 9.63928775047033e-18 -3.850918172570961e-32 9.154023026102037e-16 4.142126165639013 1.2018384534629838e-14 8.860348741773269e-32 -4.1432423852198086e-14 16.6855892620715" Properties=species:S:1:pos:R:3:spacegroup_kinds:I:1:forces:R:3 spacegroup="P 1" unit_cell=conventional occupancy="_JSON {\"0\": {\"In\": 1}, \"1\": {\"In\": 1}, \"2\": {\"In\": 1}, \"3\": {\"In\": 1}, \"4\": {\"In\": 1}, \"5\": {\"In\": 1}, \"6\": {\"In\": 1}, \"7\": {\"In\": 1}, \"8\": {\"In\": 1}, \"9\": {\"In\": 1}, \"10\": {\"In\": 1}, \"11\": {\"In\": 1}, \"12\": {\"In\": 1}, \"13\": {\"In\": 1}, \"14\": {\"In\": 1}, \"15\": {\"In\": 1}, \"16\": {\"O\": 1}, \"17\": {\"O\": 1}, \"18\": {\"O\": 1}, \"19\": {\"O\": 1}, \"20\": {\"O\": 1}, \"21\": {\"O\": 1}, \"22\": {\"O\": 1}, \"23\": {\"O\": 1}, \"24\": {\"O\": 1}, \"25\": {\"O\": 1}, \"26\": {\"O\": 1}, \"27\": {\"O\": 1}, \"28\": {\"O\": 1}, \"29\": {\"O\": 1}, \"30\": {\"O\": 1}, \"31\": {\"O\": 1}, \"32\": {\"O\": 1}, \"33\": {\"O\": 1}, \"34\": {\"O\": 1}, \"35\": {\"O\": 1}, \"36\": {\"O\": 1}, \"37\": {\"O\": 1}, \"38\": {\"O\": 1}, \"39\": {\"O\": 1}}" n_minim_iter=5 energy=-45263.3551954096 stress="-1.774236336069535 -2.4771309819910544e-12 1.6945496284477064e-12 -2.4771309819910544e-12 -1.7742303284571719 -3.2552454716029398e-12 1.6945496284477064e-12 -3.2552454716029398e-12 -1.7742453379033971" free_energy=-45263.3551954096 pbc="T T T"
In       2.00708409       3.10659224       9.43972303        0       0.00560941      -0.00000000       0.00407447
In      -0.06729354       3.10659224       7.24588988        1       0.00560941      -0.00000000      -0.00407447
In       2.14163410       1.03552916      15.58868451        2      -0.00560941      -0.00000000      -0.00407447
In       4.21601173       1.03552916       1.09692840        3      -0.00560941       0.00000000       0.00407447
In       2.14163410       1.03552916       7.24588988        4      -0.00560941      -0.00000000      -0.00407447
In       4.21601173       1.03552916       9.43972303        5      -0.00560941       0.00000000       0.00407447
In       2.00708409       3.10659224       1.09692840        6       0.00560941      -0.00000000       0.00407447
In      -0.06729354       3.10659224      15.58868451        7       0.00560941      -0.00000000      -0.00407447
In       2.14163410       3.10659224      13.61112035        8      -0.00560941      -0.00000000       0.00407447
In       4.21601173       3.10659224       3.07449256        9      -0.00560941      -0.00000000      -0.00407447
In       2.00708409       1.03552916      11.41728719       10       0.00560941       0.00000000      -0.00407447
In      -0.06729354       1.03552916       5.26832572       11       0.00560941       0.00000000       0.00407447
In       2.00708409       1.03552916       3.07449256       12       0.00560941      -0.00000000      -0.00407447
In      -0.06729354       1.03552916      13.61112035       13       0.00560941       0.00000000       0.00407447
In       2.14163410       3.10659224       5.26832572       14      -0.00560941       0.00000000       0.00407447
In       4.21601173       3.10659224      11.41728719       15      -0.00560941      -0.00000000      -0.00407447
O        3.11154791       4.14212378      12.49656421       16      -0.00000000       0.00000000      -0.00115113
O        1.03717028       2.07106070       4.18904870       17       0.00000000       0.00000000       0.00115113
O        1.03717028       2.07106070      12.53184333       18       0.00000000       0.00000000       0.00115113
O        3.11154791      -0.00000238       4.15376958       19      -0.00000000       0.00000000      -0.00115113
O        1.03717028      -0.00000238       4.18904870       20       0.00000000      -0.00000000       0.00115113
O        3.11154791       2.07106070      12.49656421       21       0.00000000       0.00000000      -0.00115113
O        3.11154791       2.07106070       4.15376958       22       0.00000000       0.00000000      -0.00115113
O        1.03717028       4.14212378      12.53184333       23      -0.00000000      -0.00000000       0.00115113
O        3.11154791       2.07106070      10.42850511       24      -0.00000000       0.00000000       0.00000000
O        1.03717028       4.14212378       6.25710780       25      -0.00000000       0.00000000       0.00000000
O        1.03717028      -0.00000238      14.59990243       26       0.00000000      -0.00000000      -0.00000000
O        3.11154791       2.07106070       2.08571048       27      -0.00000000      -0.00000000       0.00000000
O        1.03717028       2.07106070       6.25710780       28       0.00000000      -0.00000000      -0.00000000
O        3.11154791      -0.00000238      10.42850511       29       0.00000000      -0.00000000       0.00000000
O        3.11154791       4.14212378       2.08571048       30       0.00000000       0.00000000       0.00000000
O        1.03717028       2.07106070      14.59990243       31       0.00000000       0.00000000      -0.00000000
O        3.11154791       2.07106070      16.70324065       32      -0.00000000      -0.00000000       0.00115113
O        1.03717028       4.14212378      -0.01762774       33       0.00000000       0.00000000      -0.00115113
O        1.03717028      -0.00000238       8.32516689       34      -0.00000000      -0.00000000      -0.00115113
O        3.11154791       2.07106070       8.36044601       35       0.00000000      -0.00000000       0.00115113
O        1.03717028       2.07106070      -0.01762774       36       0.00000000      -0.00000000      -0.00115113
O        3.11154791      -0.00000238      16.70324065       37      -0.00000000       0.00000000       0.00115113
O        3.11154791       4.14212378       8.36044601       38      -0.00000000      -0.00000000       0.00115113
O        1.03717028       2.07106070       8.32516689       39      -0.00000000      -0.00000000      -0.00115113
