40
Lattice="5.25653037379962 6.396057321411062e-42 -8.22209583836546e-57 -6.895577254640112e-42 5.667055415929416 -8.612530748522668e-15 -3.9908382072563984e-57 2.127779752840525e-14 14.00081593242292" Properties=species:S:1:pos:R:3:spacegroup_kinds:I:1:forces:R:3 spacegroup="P 1" unit_cell=conventional occupancy="_JSON {\"0\": {\"In\": 1}, \"1\": {\"In\": 1}, \"2\": {\"In\": 1}, \"3\": {\"In\": 1}, \"4\": {\"In\": 1}, \"5\": {\"In\": 1}, \"6\": {\"In\": 1}, \"7\": {\"In\": 1}, \"8\": {\"In\": 1}, \"9\": {\"In\": 1}, \"10\": {\"In\": 1}, \"11\": {\"In\": 1}, \"12\": {\"In\": 1}, \"13\": {\"In\": 1}, \"14\": {\"In\": 1}, \"15\": {\"In\": 1}, \"16\": {\"O\": 1}, \"17\": {\"O\": 1}, \"18\": {\"O\": 1}, \"19\": {\"O\": 1}, \"20\": {\"O\": 1}, \"21\": {\"O\": 1}, \"22\": {\"O\": 1}, \"23\": {\"O\": 1}, \"24\": {\"O\": 1}, \"25\": {\"O\": 1}, \"26\": {\"O\": 1}, \"27\": {\"O\": 1}, \"28\": {\"O\": 1}, \"29\": {\"O\": 1}, \"30\": {\"O\": 1}, \"31\": {\"O\": 1}, \"32\": {\"O\": 1}, \"33\": {\"O\": 1}, \"34\": {\"O\": 1}, \"35\": {\"O\": 1}, \"36\": {\"O\": 1}, \"37\": {\"O\": 1}, \"38\": {\"O\": 1}, \"39\": {\"O\": 1}}" n_minim_iter=1 energy=-45161.4861763454 stress="0.42676721997871436 5.612225681508394e-13 6.741553561313932e-13 5.612225681508394e-13 0.42026421102522943 1.6582567091369865e-12 6.741553561313932e-13 1.6582567091369865e-12 0.40850506222614524" free_energy=-45161.4861763454 pbc="T T T"
In       2.84752969       4.47363390       8.02169016        0       0.19625301      -0.02469709      -0.72836547
In       0.21926451       4.02694922       5.97912578        1       0.19625301       0.02469709       0.72836547
In       2.40900068       1.64010619      12.97953374        2      -0.19625301      -0.02469709       0.72836547
In       5.03726587       1.19342151       1.02128219        3      -0.19625301       0.02469709      -0.72836547
In       2.40900068       1.19342151       5.97912578        4      -0.19625301       0.02469709       0.72836547
In       5.03726587       1.64010619       8.02169016        5      -0.19625301      -0.02469709      -0.72836547
In       2.84752969       4.02694922       1.02128219        6       0.19625301       0.02469709      -0.72836547
In       0.21926451       4.47363390      12.97953374        7       0.19625301      -0.02469709       0.72836547
In       2.82528351       4.05248674      11.53020586        8      -0.03636424       0.13147903       0.46098234
In       5.45354869       4.44809638       2.47061008        9      -0.03636424      -0.13147903      -0.46098234
In       2.43124687       1.21895903       9.47101804       10       0.03636424       0.13147903      -0.46098234
In      -0.19701832       1.61456868       4.52979789       11       0.03636424      -0.13147903       0.46098234
In       2.43124687       1.61456868       2.47061008       12       0.03636424      -0.13147903      -0.46098234
In      -0.19701832       1.21895903      11.53020586       13       0.03636424       0.13147903       0.46098234
In       2.82528351       4.44809638       4.52979789       14      -0.03636424      -0.13147903       0.46098234
In       5.45354869       4.05248674       9.47101804       15      -0.03636424       0.13147903      -0.46098234
O        4.61019099       4.81921898      11.19941643       16      -0.06355019      -0.01073154      -0.10980974
O        1.98192580       3.68136415       2.80139951       17      -0.06355019       0.01073154       0.10980974
O        0.64633939       1.98569127       9.80180747       18       0.06355019      -0.01073154       0.10980974
O        3.27460458       0.84783644       4.19900846       19       0.06355019       0.01073154      -0.10980974
O        0.64633939       0.84783644       2.80139951       20       0.06355019       0.01073154       0.10980974
O        3.27460458       1.98569127      11.19941643       21       0.06355019      -0.01073154      -0.10980974
O        4.61019099       3.68136415       4.19900846       22      -0.06355019       0.01073154      -0.10980974
O        1.98192580       4.81921898       9.80180747       23      -0.06355019      -0.01073154       0.10980974
O        3.31722169       2.51087054       8.32756720       24      -0.07367211       0.18523608      -0.13125399
O        0.68895650       5.98971259       5.67324873       25      -0.07367211      -0.18523608       0.13125399
O        1.93930868      -0.32265717      12.67365669       26       0.07367211       0.18523608       0.13125399
O        4.56757387       3.15618488       1.32715924       27       0.07367211      -0.18523608      -0.13125399
O        1.93930868       3.15618488       5.67324873       28       0.07367211      -0.18523608       0.13125399
O        4.56757387      -0.32265717       8.32756720       29       0.07367211       0.18523608      -0.13125399
O        3.31722169       5.98971259       1.32715924       30      -0.07367211      -0.18523608      -0.13125399
O        0.68895650       2.51087054      12.67365669       31      -0.07367211       0.18523608       0.13125399
O        3.67128643       3.99968470      13.28734368       32      -0.11504067       0.15884684       0.18032848
O        1.04302125       4.50089842       0.71347225       33      -0.11504067      -0.15884684      -0.18032848
O        1.58524394       1.16615700       7.71388021       34       0.11504067       0.15884684      -0.18032848
O        4.21350913       1.66737071       6.28693572       35       0.11504067      -0.15884684       0.18032848
O        1.58524394       1.66737071       0.71347225       36       0.11504067      -0.15884684      -0.18032848
O        4.21350913       1.16615700      13.28734368       37       0.11504067       0.15884684       0.18032848
O        3.67128643       4.50089842       6.28693572       38      -0.11504067      -0.15884684       0.18032848
O        1.04302125       3.99968470       7.71388021       39      -0.11504067       0.15884684      -0.18032848
40
Lattice="5.246069898470903 6.378468225375527e-42 -7.884094280740094e-57 -6.898043723258563e-42 5.664660027011131 -8.608890346373886e-15 -3.1013286633051645e-57 2.1329240280018987e-14 14.034665323810337" Properties=species:S:1:pos:R:3:spacegroup_kinds:I:1:forces:R:3 spacegroup="P 1" unit_cell=conventional occupancy="_JSON {\"0\": {\"In\": 1}, \"1\": {\"In\": 1}, \"2\": {\"In\": 1}, \"3\": {\"In\": 1}, \"4\": {\"In\": 1}, \"5\": {\"In\": 1}, \"6\": {\"In\": 1}, \"7\": {\"In\": 1}, \"8\": {\"In\": 1}, \"9\": {\"In\": 1}, \"10\": {\"In\": 1}, \"11\": {\"In\": 1}, \"12\": {\"In\": 1}, \"13\": {\"In\": 1}, \"14\": {\"In\": 1}, \"15\": {\"In\": 1}, \"16\": {\"O\": 1}, \"17\": {\"O\": 1}, \"18\": {\"O\": 1}, \"19\": {\"O\": 1}, \"20\": {\"O\": 1}, \"21\": {\"O\": 1}, \"22\": {\"O\": 1}, \"23\": {\"O\": 1}, \"24\": {\"O\": 1}, \"25\": {\"O\": 1}, \"26\": {\"O\": 1}, \"27\": {\"O\": 1}, \"28\": {\"O\": 1}, \"29\": {\"O\": 1}, \"30\": {\"O\": 1}, \"31\": {\"O\": 1}, \"32\": {\"O\": 1}, \"33\": {\"O\": 1}, \"34\": {\"O\": 1}, \"35\": {\"O\": 1}, \"36\": {\"O\": 1}, \"37\": {\"O\": 1}, \"38\": {\"O\": 1}, \"39\": {\"O\": 1}}" n_minim_iter=2 energy=-45161.49693607076 stress="0.41217763574760596 2.7073331200158015e-13 1.4654855872048784e-12 2.7073331200158015e-13 0.4182525965716181 -3.7024560197429994e-14 1.4654855872048784e-12 -3.7024560197429994e-14 0.41759248852373165" free_energy=-45161.49693607076 pbc="T T T"
In       2.84197644       4.47172867       8.04066155        0       0.19246933       0.03862352      -0.73809624
In       0.21894149       4.02526137       5.99400378        1       0.19246933      -0.03862352       0.73809624
In       2.40409346       1.63939866      13.01133644        2      -0.19246933       0.03862352       0.73809624
In       5.02712841       1.19293135       1.02332889        3      -0.19246933      -0.03862352      -0.73809624
In       2.40409346       1.19293135       5.99400378        4      -0.19246933      -0.03862352       0.73809624
In       5.02712841       1.63939866       8.04066155        5      -0.19246933       0.03862352      -0.73809624
In       2.84197644       4.02526137       1.02332889        6       0.19246933      -0.03862352      -0.73809624
In       0.21894149       4.47172867      13.01133644        7       0.19246933       0.03862352       0.73809624
In       2.81964021       4.05084985      11.55834948        8      -0.07021303       0.11043994       0.50298790
In       5.44267516       4.44614019       2.47631585        9      -0.07021303      -0.11043994      -0.50298790
In       2.42642969       1.21851983       9.49364851       10       0.07021303       0.11043994      -0.50298790
In      -0.19660526       1.61381018       4.54101681       11       0.07021303      -0.11043994       0.50298790
In       2.42642969       1.61381018       2.47631585       12       0.07021303      -0.11043994      -0.50298790
In      -0.19660526       1.21851983      11.55834948       13       0.07021303       0.11043994       0.50298790
In       2.81964021       4.44614019       4.54101681       14      -0.07021303      -0.11043994       0.50298790
In       5.44267516       4.05084985       9.49364851       15      -0.07021303       0.11043994      -0.50298790
O        4.60098003       4.81717575      11.22642926       16      -0.00809968       0.02672272      -0.11827356
O        1.97794508       3.67981429       2.80823606       17      -0.00809968      -0.02672272       0.11827356
O        0.64508987       1.98484574       9.82556872       18       0.00809968       0.02672272       0.11827356
O        3.26812482       0.84748428       4.20909660       19       0.00809968      -0.02672272      -0.11827356
O        0.64508987       0.84748428       2.80823606       20       0.00809968      -0.02672272       0.11827356
O        3.26812482       1.98484574      11.22642926       21       0.00809968       0.02672272      -0.11827356
O        4.60098003       3.67981429       4.20909660       22      -0.00809968      -0.02672272      -0.11827356
O        1.97794508       4.81717575       9.82556872       23      -0.00809968       0.02672272       0.11827356
O        3.31057789       2.50991635       8.34762441       24      -0.08127336       0.21834939      -0.15983656
O        0.68754294       5.98707369       5.68704091       25      -0.08127336      -0.21834939       0.15983656
O        1.93549201      -0.32241366      12.70437357       26       0.08127336       0.21834939       0.15983656
O        4.55852696       3.15474367       1.33029175       27       0.08127336      -0.21834939      -0.15983656
O        1.93549201       3.15474367       5.68704091       28       0.08127336      -0.21834939       0.15983656
O        4.55852696      -0.32241366       8.34762441       29       0.08127336       0.21834939      -0.15983656
O        3.31057789       5.98707369       1.33029175       30      -0.08127336      -0.21834939      -0.15983656
O        0.68754294       2.50991635      12.70437357       31      -0.08127336       0.21834939       0.15983656
O        3.66391416       3.99808596      13.31957272       32      -0.11611230       0.07934623       0.19043121
O        1.04087921       4.49890408       0.71509261       33      -0.11611230      -0.07934623      -0.19043121
O        1.58215574       1.16575594       7.73242527       34       0.11611230       0.07934623      -0.19043121
O        4.20519069       1.66657407       6.30224006       35       0.11611230      -0.07934623       0.19043121
O        1.58215574       1.66657407       0.71509261       36       0.11611230      -0.07934623      -0.19043121
O        4.20519069       1.16575594      13.31957272       37       0.11611230       0.07934623       0.19043121
O        3.66391416       4.49890408       6.30224006       38      -0.11611230      -0.07934623       0.19043121
O        1.04087921       3.99808596       7.73242527       39      -0.11611230       0.07934623      -0.19043121
40
Lattice="5.250718466014377 6.397133524848969e-42 -7.899338635614207e-57 -6.836383998691326e-42 5.653125418739237 -8.591360578068707e-15 -3.0746145156075225e-57 2.1353838614917295e-14 14.050851057258336" Properties=species:S:1:pos:R:3:spacegroup_kinds:I:1:forces:R:3 spacegroup="P 1" unit_cell=conventional occupancy="_JSON {\"0\": {\"In\": 1}, \"1\": {\"In\": 1}, \"2\": {\"In\": 1}, \"3\": {\"In\": 1}, \"4\": {\"In\": 1}, \"5\": {\"In\": 1}, \"6\": {\"In\": 1}, \"7\": {\"In\": 1}, \"8\": {\"In\": 1}, \"9\": {\"In\": 1}, \"10\": {\"In\": 1}, \"11\": {\"In\": 1}, \"12\": {\"In\": 1}, \"13\": {\"In\": 1}, \"14\": {\"In\": 1}, \"15\": {\"In\": 1}, \"16\": {\"O\": 1}, \"17\": {\"O\": 1}, \"18\": {\"O\": 1}, \"19\": {\"O\": 1}, \"20\": {\"O\": 1}, \"21\": {\"O\": 1}, \"22\": {\"O\": 1}, \"23\": {\"O\": 1}, \"24\": {\"O\": 1}, \"25\": {\"O\": 1}, \"26\": {\"O\": 1}, \"27\": {\"O\": 1}, \"28\": {\"O\": 1}, \"29\": {\"O\": 1}, \"30\": {\"O\": 1}, \"31\": {\"O\": 1}, \"32\": {\"O\": 1}, \"33\": {\"O\": 1}, \"34\": {\"O\": 1}, \"35\": {\"O\": 1}, \"36\": {\"O\": 1}, \"37\": {\"O\": 1}, \"38\": {\"O\": 1}, \"39\": {\"O\": 1}}" n_minim_iter=3 energy=-45161.50756236024 stress="0.4194456053919299 1.7582446899606283e-12 9.003861519287986e-13 1.7582446899606283e-12 0.4007133018085302 8.569132788199561e-13 9.003861519287986e-13 8.569132788199561e-13 0.41958157011945707" free_energy=-45161.50756236024 pbc="T T T"
In       2.84493801       4.46267677       8.04823446        0       0.13590338       0.05305727      -0.66977223
In       0.21957877       4.01701136       6.00261660        1       0.13590338      -0.05305727       0.66977223
In       2.40578046       1.63611406      13.02804213        2      -0.13590338       0.05305727       0.66977223
In       5.03113969       1.19044865       1.02280893        3      -0.13590338      -0.05305727      -0.66977223
In       2.40578046       1.19044865       6.00261660        4      -0.13590338      -0.05305727       0.66977223
In       5.03113969       1.63611406       8.04823446        5      -0.13590338       0.05305727      -0.66977223
In       2.84493801       4.01701136       1.02280893        6       0.13590338      -0.05305727      -0.66977223
In       0.21957877       4.46267677      13.02804213        7       0.13590338       0.05305727       0.66977223
In       2.82199644       4.04286606      11.57281832        8      -0.06761020       0.12266091       0.43525134
In       5.44735568       4.43682207       2.47803274        9      -0.06761020      -0.12266091      -0.43525134
In       2.42872202       1.21630335       9.50345827       10       0.06761020       0.12266091      -0.43525134
In      -0.19663721       1.61025936       4.54739279       11       0.06761020      -0.12266091       0.43525134
In       2.42872202       1.61025936       2.47803274       12       0.06761020      -0.12266091      -0.43525134
In      -0.19663721       1.21630335      11.57281832       13       0.06761020       0.12266091       0.43525134
In       2.82199644       4.43682207       4.54739279       14      -0.06761020      -0.12266091       0.43525134
In       5.44735568       4.04286606       9.50345827       15      -0.06761020       0.12266091      -0.43525134
O        4.60500780       4.80740742      11.23910775       16       0.02517617       0.04132763      -0.11524742
O        1.97964857       3.67228071       2.81174331       17       0.02517617      -0.04132763       0.11524742
O        0.64571066       1.98084471       9.83716884       18      -0.02517617       0.04132763       0.11524742
O        3.27106990       0.84571800       4.21368222       19      -0.02517617      -0.04132763      -0.11524742
O        0.64571066       0.84571800       2.81174331       20      -0.02517617      -0.04132763       0.11524742
O        3.27106990       1.98084471      11.23910775       21      -0.02517617       0.04132763      -0.11524742
O        4.60500780       3.67228071       4.21368222       22       0.02517617      -0.04132763      -0.11524742
O        1.97964857       4.80740742       9.83716884       23       0.02517617       0.04132763       0.11524742
O        3.31332931       2.50528773       8.35689798       24      -0.05864952       0.13930233      -0.16150720
O        0.68797008       5.97440039       5.69395308       25      -0.05864952      -0.13930233       0.16150720
O        1.93738916      -0.32127497      12.71937861       26       0.05864952       0.13930233       0.16150720
O        4.56274839       3.14783768       1.33147245       27       0.05864952      -0.13930233      -0.16150720
O        1.93738916       3.14783768       5.69395308       28       0.05864952      -0.13930233       0.16150720
O        4.56274839      -0.32127497       8.35689798       29       0.05864952       0.13930233      -0.16150720
O        3.31332931       5.97440039       1.33147245       30      -0.05864952      -0.13930233      -0.16150720
O        0.68797008       2.50528773      12.71937861       31      -0.05864952       0.13930233       0.16150720
O        3.66689521       3.99017057      13.33536819       32      -0.10173184       0.07155881       0.19241760
O        1.04153597       4.48951756       0.71548287       33      -0.10173184      -0.07155881      -0.19241760
O        1.58382326       1.16360786       7.74090840       34       0.10173184       0.07155881      -0.19241760
O        4.20918249       1.66295485       6.30994266       35       0.10173184      -0.07155881       0.19241760
O        1.58382326       1.66295485       0.71548287       36       0.10173184      -0.07155881      -0.19241760
O        4.20918249       1.16360786      13.33536819       37       0.10173184       0.07155881       0.19241760
O        3.66689521       4.48951756       6.30994266       38      -0.10173184      -0.07155881       0.19241760
O        1.04153597       3.99017057       7.74090840       39      -0.10173184       0.07155881      -0.19241760
40
Lattice="5.245656824445799 6.334986354851787e-42 -7.800596819689948e-57 -6.836756019751321e-42 5.6597586033057095 -8.601441387562608e-15 -3.0592575190862104e-57 2.1349392721286488e-14 14.047925653992467" Properties=species:S:1:pos:R:3:spacegroup_kinds:I:1:forces:R:3 spacegroup="P 1" unit_cell=conventional occupancy="_JSON {\"0\": {\"In\": 1}, \"1\": {\"In\": 1}, \"2\": {\"In\": 1}, \"3\": {\"In\": 1}, \"4\": {\"In\": 1}, \"5\": {\"In\": 1}, \"6\": {\"In\": 1}, \"7\": {\"In\": 1}, \"8\": {\"In\": 1}, \"9\": {\"In\": 1}, \"10\": {\"In\": 1}, \"11\": {\"In\": 1}, \"12\": {\"In\": 1}, \"13\": {\"In\": 1}, \"14\": {\"In\": 1}, \"15\": {\"In\": 1}, \"16\": {\"O\": 1}, \"17\": {\"O\": 1}, \"18\": {\"O\": 1}, \"19\": {\"O\": 1}, \"20\": {\"O\": 1}, \"21\": {\"O\": 1}, \"22\": {\"O\": 1}, \"23\": {\"O\": 1}, \"24\": {\"O\": 1}, \"25\": {\"O\": 1}, \"26\": {\"O\": 1}, \"27\": {\"O\": 1}, \"28\": {\"O\": 1}, \"29\": {\"O\": 1}, \"30\": {\"O\": 1}, \"31\": {\"O\": 1}, \"32\": {\"O\": 1}, \"33\": {\"O\": 1}, \"34\": {\"O\": 1}, \"35\": {\"O\": 1}, \"36\": {\"O\": 1}, \"37\": {\"O\": 1}, \"38\": {\"O\": 1}, \"39\": {\"O\": 1}}" n_minim_iter=4 energy=-45161.55973958686 stress="0.4021330407480161 1.7329276615563366e-12 -1.530413794720094e-12 1.7329276615563366e-12 0.40198578755862874 -4.746162208335055e-13 -1.530413794720094e-12 -4.746162208335055e-13 0.4011392879358803" free_energy=-45161.55973958686 pbc="T T T"
In       2.84463331       4.46828855       8.03687331        0      -0.27008429       0.02023796       0.08773187
In       0.22180490       4.02134935       6.01105234        1      -0.27008429      -0.02023796      -0.08773187
In       2.40102351       1.63840925      13.03501517        2       0.27008429       0.02023796      -0.08773187
In       5.02385193       1.19147005       1.01291048        3       0.27008429      -0.02023796       0.08773187
In       2.40102351       1.19147005       6.01105234        4       0.27008429      -0.02023796      -0.08773187
In       5.02385193       1.63840925       8.03687331        5       0.27008429       0.02023796       0.08773187
In       2.84463331       4.02134935       1.01291048        6      -0.27008429      -0.02023796       0.08773187
In       0.22180490       4.46828855      13.03501517        7      -0.27008429       0.02023796      -0.08773187
In       2.81844151       4.04915511      11.57687023        8      -0.14929431      -0.05331432       0.24899169
In       5.44126993       4.44048279       2.47105543        9      -0.14929431       0.05331432      -0.24899169
In       2.42721531       1.21927581       9.49501825       10       0.14929431      -0.05331432      -0.24899169
In      -0.19561310       1.61060349       4.55290740       11       0.14929431       0.05331432       0.24899169
In       2.42721531       1.61060349       2.47105543       12       0.14929431       0.05331432      -0.24899169
In      -0.19561310       1.21927581      11.57687023       13       0.14929431      -0.05331432       0.24899169
In       2.81844151       4.44048279       4.55290740       14      -0.14929431       0.05331432       0.24899169
In       5.44126993       4.04915511       9.49501825       15      -0.14929431      -0.05331432      -0.24899169
O        4.60038557       4.81333454      11.23521712       16       0.10847058       0.04095780       0.03095265
O        1.97755715       3.67630336       2.81270853       17       0.10847058      -0.04095780      -0.03095265
O        0.64527126       1.98345524       9.83667136       18      -0.10847058       0.04095780      -0.03095265
O        3.26809967       0.84642406       4.21125430       19      -0.10847058      -0.04095780       0.03095265
O        0.64527126       0.84642406       2.81270853       20      -0.10847058      -0.04095780      -0.03095265
O        3.26809967       1.98345524      11.23521712       21      -0.10847058       0.04095780       0.03095265
O        4.60038557       3.67630336       4.21125430       22       0.10847058      -0.04095780       0.03095265
O        1.97755715       4.81333454       9.83667136       23       0.10847058       0.04095780      -0.03095265
O        3.30912747       2.51086749       8.35309567       24      -0.05678027       0.18345162      -0.14305055
O        0.68629906       5.97877042       5.69482999       25      -0.05678027      -0.18345162       0.14305055
O        1.93652935      -0.31901181      12.71879281       26       0.05678027       0.18345161       0.14305055
O        4.55935776       3.14889112       1.32913284       27       0.05678027      -0.18345162      -0.14305055
O        1.93652935       3.14889112       5.69482999       28       0.05678027      -0.18345162       0.14305055
O        4.55935776      -0.31901181       8.35309567       29       0.05678027       0.18345161      -0.14305055
O        3.30912747       5.97877042       1.32913284       30      -0.05678027      -0.18345162      -0.14305055
O        0.68629906       2.51086749      12.71879281       31      -0.05678027       0.18345162       0.14305055
O        3.66185681       3.99609759      13.33511238       32       0.20267025      -0.01204000      -0.14988685
O        1.03902840       4.49354031       0.71281327       33       0.20267025       0.01204000       0.14988685
O        1.58380002       1.16621829       7.73677610       34      -0.20267025      -0.01204000       0.14988685
O        4.20662843       1.66366101       6.31114955       35      -0.20267025       0.01204000      -0.14988685
O        1.58380002       1.66366101       0.71281327       36      -0.20267025       0.01204000       0.14988685
O        4.20662843       1.16621829      13.33511238       37      -0.20267025      -0.01204000      -0.14988685
O        3.66185681       4.49354031       6.31114955       38       0.20267025       0.01204000      -0.14988685
O        1.03902840       3.99609759       7.73677610       39       0.20267025      -0.01204000       0.14988685
40
Lattice="5.241415590434072 6.139594272955896e-42 -7.504490236998741e-57 -6.702631015804983e-42 5.661392805917847 -8.603924973695676e-15 -3.061662789751741e-57 2.1360500517505188e-14 14.055234597038158" Properties=species:S:1:pos:R:3:spacegroup_kinds:I:1:forces:R:3 spacegroup="P 1" unit_cell=conventional occupancy="_JSON {\"0\": {\"In\": 1}, \"1\": {\"In\": 1}, \"2\": {\"In\": 1}, \"3\": {\"In\": 1}, \"4\": {\"In\": 1}, \"5\": {\"In\": 1}, \"6\": {\"In\": 1}, \"7\": {\"In\": 1}, \"8\": {\"In\": 1}, \"9\": {\"In\": 1}, \"10\": {\"In\": 1}, \"11\": {\"In\": 1}, \"12\": {\"In\": 1}, \"13\": {\"In\": 1}, \"14\": {\"In\": 1}, \"15\": {\"In\": 1}, \"16\": {\"O\": 1}, \"17\": {\"O\": 1}, \"18\": {\"O\": 1}, \"19\": {\"O\": 1}, \"20\": {\"O\": 1}, \"21\": {\"O\": 1}, \"22\": {\"O\": 1}, \"23\": {\"O\": 1}, \"24\": {\"O\": 1}, \"25\": {\"O\": 1}, \"26\": {\"O\": 1}, \"27\": {\"O\": 1}, \"28\": {\"O\": 1}, \"29\": {\"O\": 1}, \"30\": {\"O\": 1}, \"31\": {\"O\": 1}, \"32\": {\"O\": 1}, \"33\": {\"O\": 1}, \"34\": {\"O\": 1}, \"35\": {\"O\": 1}, \"36\": {\"O\": 1}, \"37\": {\"O\": 1}, \"38\": {\"O\": 1}, \"39\": {\"O\": 1}}" n_minim_iter=5 energy=-45161.58153544462 stress="0.39673975370104786 2.964861019744059e-13 -1.0478402002959013e-12 2.964861019744059e-13 0.3971755164458271 -1.1691088914642399e-12 -1.0478402002959013e-12 -1.1691088914642399e-12 0.396409872672975" free_energy=-45161.58153544462 pbc="T T T"
In       2.83929340       4.47004734       8.03882659        0       0.10222070       0.06887548       0.12185602
In       0.21858560       4.02204187       6.01640801        1       0.10222070      -0.06887548      -0.12185602
In       2.40212219       1.63935094      13.04402531        2      -0.10222070       0.06887548      -0.12185602
In       5.02282999       1.19134546       1.01120929        3      -0.10222070      -0.06887548       0.12185602
In       2.40212219       1.19134546       6.01640801        4      -0.10222070      -0.06887548      -0.12185602
In       5.02282999       1.63935094       8.03882659        5      -0.10222070       0.06887548       0.12185602
In       2.83929340       4.02204187       1.01120929        6       0.10222070      -0.06887548       0.12185602
In       0.21858560       4.47004734      13.04402531        7       0.10222070       0.06887548      -0.12185602
In       2.81367991       4.05010325      11.58890187        8      -0.13833708      -0.07105078       0.08077801
In       5.43438771       4.44198596       2.46633273        9      -0.13833708       0.07105078      -0.08077801
In       2.42773568       1.21940685       9.49395002       10       0.13833708      -0.07105078      -0.08077801
In      -0.19297212       1.61128955       4.56128457       11       0.13833708       0.07105078       0.08077801
In       2.42773568       1.61128955       2.46633273       12       0.13833708       0.07105078      -0.08077801
In      -0.19297212       1.21940685      11.58890187       13       0.13833708      -0.07105078       0.08077801
In       2.81367991       4.44198596       4.56128457       14      -0.13833708       0.07105078       0.08077801
In       5.43438771       4.05010325       9.49395002       15      -0.13833708      -0.07105078      -0.08077801
O        4.59820822       4.81544706      11.24094808       16       0.02626022       0.03195151      -0.03473544
O        1.97750042       3.67664215       2.81428652       17       0.02626022      -0.03195151       0.03473544
O        0.64320737       1.98475066       9.84190382       18      -0.02626022       0.03195151       0.03473544
O        3.26391517       0.84594575       4.21333078       19      -0.02626022      -0.03195151      -0.03473544
O        0.64320737       0.84594575       2.81428652       20      -0.02626022      -0.03195151       0.03473544
O        3.26391517       1.98475066      11.24094808       21      -0.02626022       0.03195151      -0.03473544
O        4.59820822       3.67664215       4.21333078       22       0.02626022      -0.03195151      -0.03473544
O        1.97750042       4.81544706       9.84190382       23       0.02626022       0.03195151       0.03473544
O        3.30526472       2.51521623       8.35457835       24       0.06021856       0.10023972      -0.09100247
O        0.68455692       5.97687298       5.70065625       25       0.06021856      -0.10023972       0.09100247
O        1.93615088      -0.31548017      12.72827355       26      -0.06021856       0.10023972       0.09100247
O        4.55685867       3.14617657       1.32696105       27      -0.06021856      -0.10023972      -0.09100247
O        1.93615088       3.14617657       5.70065625       28      -0.06021856      -0.10023972       0.09100247
O        4.55685867      -0.31548017       8.35457835       29      -0.06021856       0.10023972      -0.09100247
O        3.30526472       5.97687298       1.32696105       30       0.06021856      -0.10023972      -0.09100247
O        0.68455692       2.51521623      12.72827355       31       0.06021856       0.10023972       0.09100247
O        3.66128713       3.99748359      13.34077687       32      -0.01857424      -0.04612028      -0.01913486
O        1.04057933       4.49460562       0.71445772       33      -0.01857424       0.04612028       0.01913486
O        1.58012846       1.16678719       7.74207502       34       0.01857424      -0.04612028       0.01913486
O        4.20083626       1.66390922       6.31315958       35       0.01857424       0.04612028      -0.01913486
O        1.58012846       1.66390922       0.71445772       36       0.01857424       0.04612028       0.01913486
O        4.20083626       1.16678719      13.34077687       37       0.01857424      -0.04612028      -0.01913486
O        3.66128713       4.49460562       6.31315958       38      -0.01857424       0.04612028      -0.01913486
O        1.04057933       3.99748359       7.74207502       39      -0.01857424      -0.04612028       0.01913486
40