40
Lattice="4.2341503600487185 2.407124993218578e-42 6.952080504543705e-40 -8.881784197001254e-16 4.218184817146253 9.575154016364825e-15 2.159015730383359e-31 -4.18815786878587e-14 17.02726559152836" Properties=species:S:1:pos:R:3:spacegroup_kinds:I:1:forces:R:3 spacegroup="P 1" unit_cell=conventional occupancy="_JSON {\"0\": {\"In\": 1}, \"1\": {\"In\": 1}, \"2\": {\"In\": 1}, \"3\": {\"In\": 1}, \"4\": {\"In\": 1}, \"5\": {\"In\": 1}, \"6\": {\"In\": 1}, \"7\": {\"In\": 1}, \"8\": {\"In\": 1}, \"9\": {\"In\": 1}, \"10\": {\"In\": 1}, \"11\": {\"In\": 1}, \"12\": {\"In\": 1}, \"13\": {\"In\": 1}, \"14\": {\"In\": 1}, \"15\": {\"In\": 1}, \"16\": {\"O\": 1}, \"17\": {\"O\": 1}, \"18\": {\"O\": 1}, \"19\": {\"O\": 1}, \"20\": {\"O\": 1}, \"21\": {\"O\": 1}, \"22\": {\"O\": 1}, \"23\": {\"O\": 1}, \"24\": {\"O\": 1}, \"25\": {\"O\": 1}, \"26\": {\"O\": 1}, \"27\": {\"O\": 1}, \"28\": {\"O\": 1}, \"29\": {\"O\": 1}, \"30\": {\"O\": 1}, \"31\": {\"O\": 1}, \"32\": {\"O\": 1}, \"33\": {\"O\": 1}, \"34\": {\"O\": 1}, \"35\": {\"O\": 1}, \"36\": {\"O\": 1}, \"37\": {\"O\": 1}, \"38\": {\"O\": 1}, \"39\": {\"O\": 1}}" n_minim_iter=1 energy=-45279.00894453598 stress="-0.10025446430160923 -6.028334133296198e-13 2.4679232056087237e-12 -6.028334133296198e-13 -0.13636247084125522 1.4428258327140849e-12 2.4679232056087237e-12 1.4428258327140849e-12 -0.10458148463232884" free_energy=-45279.00894453598 pbc="T T T"
In       2.06136704       3.16363619       9.61636051        0      -0.56741890       0.00000000       0.85421386
In      -0.05570814       3.16363619       7.41092921        1      -0.56741890       0.00000000      -0.85421386
In       2.17274550       1.05454378      15.92456201        2       0.56741890      -0.00000000      -0.85421386
In       4.28982068       1.05454378       1.10272771        3       0.56741890       0.00000000       0.85421386
In       2.17274550       1.05454378       7.41092921        4       0.56741890      -0.00000000      -0.85421386
In       4.28982068       1.05454378       9.61636051        5       0.56741890      -0.00000000       0.85421386
In       2.06136704       3.16363619       1.10272771        6      -0.56741890       0.00000000       0.85421386
In      -0.05570814       3.16363619      15.92456201        7      -0.56741890       0.00000000      -0.85421386
In       2.17274550       3.16363619      13.87317691        8       0.56741890      -0.00000000       0.85421386
In       4.28982068       3.16363619       3.15411281        9       0.56741890      -0.00000000      -0.85421386
In       2.06136704       1.05454378      11.66774561       10      -0.56741890      -0.00000000      -0.85421386
In      -0.05570814       1.05454378       5.35954411       11      -0.56741890       0.00000000       0.85421386
In       2.06136704       1.05454378       3.15411281       12      -0.56741890       0.00000000      -0.85421386
In      -0.05570814       1.05454378      13.87317691       13      -0.56741890      -0.00000000       0.85421386
In       2.17274550       3.16363619       5.35954411       14       0.56741890      -0.00000000       0.85421386
In       4.28982068       3.16363619      11.66774561       15       0.56741890      -0.00000000      -0.85421386
O        3.17559386       4.21818239      12.74708861       16      -0.00000000       0.00000000       0.41158054
O        1.05851868       2.10908998       4.28020111       17       0.00000000      -0.00000000      -0.41158054
O        1.05851868       2.10908998      12.79383391       18       0.00000000       0.00000000      -0.41158054
O        3.17559386      -0.00000242       4.23345581       19       0.00000000      -0.00000000       0.41158054
O        1.05851868      -0.00000242       4.28020111       20       0.00000000      -0.00000000      -0.41158054
O        3.17559386       2.10908998      12.74708861       21       0.00000000       0.00000000       0.41158054
O        3.17559386       2.10908998       4.23345581       22      -0.00000000      -0.00000000       0.41158054
O        1.05851868       4.21818239      12.79383391       23       0.00000000      -0.00000000      -0.41158054
O        3.17559386       2.10908998      10.64205306       24       0.00000000       0.00000000      -0.00000000
O        1.05851868       4.21818239       6.38523666       25       0.00000000      -0.00000000      -0.00000000
O        1.05851868      -0.00000242      14.89886946       26      -0.00000000       0.00000000       0.00000000
O        3.17559386       2.10908998       2.12842026       27       0.00000000       0.00000000       0.00000000
O        1.05851868       2.10908998       6.38523666       28       0.00000000       0.00000000       0.00000000
O        3.17559386      -0.00000242      10.64205306       29      -0.00000000       0.00000000      -0.00000000
O        3.17559386       4.21818239       2.12842026       30      -0.00000000      -0.00000000       0.00000000
O        1.05851868       2.10908998      14.89886946       31       0.00000000       0.00000000       0.00000000
O        3.17559386       2.10908998      17.05065031       32      -0.00000000      -0.00000000      -0.41158054
O        1.05851868       4.21818239      -0.02336058       33       0.00000000      -0.00000000       0.41158054
O        1.05851868      -0.00000242       8.49027221       34      -0.00000000       0.00000000       0.41158054
O        3.17559386       2.10908998       8.53701751       35       0.00000000      -0.00000000      -0.41158054
O        1.05851868       2.10908998      -0.02336058       36       0.00000000       0.00000000       0.41158054
O        3.17559386      -0.00000242      17.05065031       37      -0.00000000       0.00000000      -0.41158054
O        3.17559386       4.21818239       8.53701751       38       0.00000000      -0.00000000      -0.41158054
O        1.05851868       2.10908998       8.49027221       39      -0.00000000       0.00000000       0.41158054
40
Lattice="4.231030714187692 7.463786431153224e-18 1.1728413184231518e-32 -8.79504344597527e-16 4.223407997681075 9.586935803813083e-15 1.8872671394022408e-31 -4.186631448456751e-14 17.018746708409136" Properties=species:S:1:pos:R:3:spacegroup_kinds:I:1:forces:R:3 spacegroup="P 1" unit_cell=conventional occupancy="_JSON {\"0\": {\"In\": 1}, \"1\": {\"In\": 1}, \"2\": {\"In\": 1}, \"3\": {\"In\": 1}, \"4\": {\"In\": 1}, \"5\": {\"In\": 1}, \"6\": {\"In\": 1}, \"7\": {\"In\": 1}, \"8\": {\"In\": 1}, \"9\": {\"In\": 1}, \"10\": {\"In\": 1}, \"11\": {\"In\": 1}, \"12\": {\"In\": 1}, \"13\": {\"In\": 1}, \"14\": {\"In\": 1}, \"15\": {\"In\": 1}, \"16\": {\"O\": 1}, \"17\": {\"O\": 1}, \"18\": {\"O\": 1}, \"19\": {\"O\": 1}, \"20\": {\"O\": 1}, \"21\": {\"O\": 1}, \"22\": {\"O\": 1}, \"23\": {\"O\": 1}, \"24\": {\"O\": 1}, \"25\": {\"O\": 1}, \"26\": {\"O\": 1}, \"27\": {\"O\": 1}, \"28\": {\"O\": 1}, \"29\": {\"O\": 1}, \"30\": {\"O\": 1}, \"31\": {\"O\": 1}, \"32\": {\"O\": 1}, \"33\": {\"O\": 1}, \"34\": {\"O\": 1}, \"35\": {\"O\": 1}, \"36\": {\"O\": 1}, \"37\": {\"O\": 1}, \"38\": {\"O\": 1}, \"39\": {\"O\": 1}}" n_minim_iter=2 energy=-45279.01722716483 stress="-0.11425671049856684 -1.3058253473493785e-12 1.5962032502799044e-12 -1.3058253473493785e-12 -0.10647594939030613 1.4346059708910853e-12 1.5962032502799044e-12 1.4346059708910853e-12 -0.11518066828737832" free_energy=-45279.01722716483 pbc="T T T"
In       2.05974631       3.16755357       9.61170289        0      -0.49065284       0.00000000       0.79562391
In      -0.05576905       3.16755357       7.40706794        1      -0.49065284      -0.00000000      -0.79562391
In       2.17124661       1.05584957      15.91644129        2       0.49065284       0.00000000      -0.79562391
In       4.28676197       1.05584957       1.10232953        3       0.49065284      -0.00000000       0.79562391
In       2.17124661       1.05584957       7.40706794        4       0.49065284       0.00000000      -0.79562391
In       4.28676197       1.05584957       9.61170289        5       0.49065284      -0.00000000       0.79562391
In       2.05974631       3.16755357       1.10232953        6      -0.49065284      -0.00000000       0.79562391
In      -0.05576905       3.16755357      15.91644129        7      -0.49065284       0.00000000      -0.79562391
In       2.17124661       3.16755357      13.86638957        8       0.49065284       0.00000000       0.79562391
In       4.28676197       3.16755357       3.15238126        9       0.49065284       0.00000000      -0.79562391
In       2.05974631       1.05584957      11.66175462       10      -0.49065284       0.00000000      -0.79562391
In      -0.05576905       1.05584957       5.35701621       11      -0.49065284       0.00000000       0.79562391
In       2.05974631       1.05584957       3.15238126       12      -0.49065284       0.00000000      -0.79562391
In      -0.05576905       1.05584957      13.86638957       13      -0.49065284       0.00000000       0.79562391
In       2.17124661       3.16755357       5.35701621       14       0.49065284       0.00000000       0.79562391
In       4.28676197       3.16755357      11.66175462       15       0.49065284      -0.00000000      -0.79562391
O        3.17325414       4.22340557      12.74078511       16      -0.00000000       0.00000000       0.36799757
O        1.05773878       2.11170157       4.27798572       17       0.00000000       0.00000000      -0.36799757
O        1.05773878       2.11170157      12.78735908       18       0.00000000       0.00000000      -0.36799757
O        3.17325414      -0.00000243       4.23141175       19      -0.00000000      -0.00000000       0.36799757
O        1.05773878      -0.00000243       4.27798572       20       0.00000000      -0.00000000      -0.36799757
O        3.17325414       2.11170157      12.74078511       21      -0.00000000       0.00000000       0.36799757
O        3.17325414       2.11170157       4.23141175       22       0.00000000      -0.00000000       0.36799757
O        1.05773878       4.22340557      12.78735908       23       0.00000000       0.00000000      -0.36799757
O        3.17325414       2.11170157      10.63672875       24       0.00000000      -0.00000000       0.00000000
O        1.05773878       4.22340557       6.38204208       25      -0.00000000       0.00000000       0.00000000
O        1.05773878      -0.00000243      14.89141543       26       0.00000000      -0.00000000      -0.00000000
O        3.17325414       2.11170157       2.12735540       27       0.00000000      -0.00000000       0.00000000
O        1.05773878       2.11170157       6.38204208       28       0.00000000      -0.00000000      -0.00000000
O        3.17325414      -0.00000243      10.63672875       29       0.00000000      -0.00000000      -0.00000000
O        3.17325414       4.22340557       2.12735540       30      -0.00000000       0.00000000      -0.00000000
O        1.05773878       2.11170157      14.89141543       31      -0.00000000      -0.00000000      -0.00000000
O        3.17325414       2.11170157      17.04204575       32      -0.00000000      -0.00000000      -0.36799757
O        1.05773878       4.22340557      -0.02327493       33      -0.00000000       0.00000000       0.36799757
O        1.05773878      -0.00000243       8.48609843       34      -0.00000000      -0.00000000       0.36799757
O        3.17325414       2.11170157       8.53267240       35       0.00000000       0.00000000      -0.36799757
O        1.05773878       2.11170157      -0.02327493       36       0.00000000       0.00000000       0.36799757
O        3.17325414      -0.00000243      17.04204575       37       0.00000000      -0.00000000      -0.36799757
O        3.17325414       4.22340557       8.53267240       38      -0.00000000       0.00000000      -0.36799757
O        1.05773878       2.11170157       8.48609843       39       0.00000000      -0.00000000       0.36799757
40
Lattice="4.227207384402807 7.384134326751833e-18 1.2154617358531192e-32 -8.787828981430156e-16 4.219902511227992 9.578302590533988e-15 1.9107351705133891e-31 -4.193340947817254e-14 17.048289756842966" Properties=species:S:1:pos:R:3:spacegroup_kinds:I:1:forces:R:3 spacegroup="P 1" unit_cell=conventional occupancy="_JSON {\"0\": {\"In\": 1}, \"1\": {\"In\": 1}, \"2\": {\"In\": 1}, \"3\": {\"In\": 1}, \"4\": {\"In\": 1}, \"5\": {\"In\": 1}, \"6\": {\"In\": 1}, \"7\": {\"In\": 1}, \"8\": {\"In\": 1}, \"9\": {\"In\": 1}, \"10\": {\"In\": 1}, \"11\": {\"In\": 1}, \"12\": {\"In\": 1}, \"13\": {\"In\": 1}, \"14\": {\"In\": 1}, \"15\": {\"In\": 1}, \"16\": {\"O\": 1}, \"17\": {\"O\": 1}, \"18\": {\"O\": 1}, \"19\": {\"O\": 1}, \"20\": {\"O\": 1}, \"21\": {\"O\": 1}, \"22\": {\"O\": 1}, \"23\": {\"O\": 1}, \"24\": {\"O\": 1}, \"25\": {\"O\": 1}, \"26\": {\"O\": 1}, \"27\": {\"O\": 1}, \"28\": {\"O\": 1}, \"29\": {\"O\": 1}, \"30\": {\"O\": 1}, \"31\": {\"O\": 1}, \"32\": {\"O\": 1}, \"33\": {\"O\": 1}, \"34\": {\"O\": 1}, \"35\": {\"O\": 1}, \"36\": {\"O\": 1}, \"37\": {\"O\": 1}, \"38\": {\"O\": 1}, \"39\": {\"O\": 1}}" n_minim_iter=3 energy=-45279.06498183464 stress="-0.12977324536443693 1.5051450237056506e-12 5.496665447233538e-13 1.5051450237056506e-12 -0.10351580499358824 2.3866675609853784e-12 5.496665447233538e-13 2.3866675609853784e-12 -0.06968511136107375" free_energy=-45279.06498183464 pbc="T T T"
In       2.05503265       3.16492446       9.63296083        0      -0.17486478      -0.00000000       0.26781389
In      -0.05857105       3.16492446       7.41535309        1      -0.17486478      -0.00000000      -0.26781389
In       2.17213698       1.05497320      15.93949797        2       0.17486478       0.00000000      -0.26781389
In       4.28574067       1.05497320       1.10881595        3       0.17486478      -0.00000000       0.26781389
In       2.17213698       1.05497320       7.41535309        4       0.17486478       0.00000000      -0.26781389
In       4.28574067       1.05497320       9.63296083        5       0.17486478       0.00000000       0.26781389
In       2.05503265       3.16492446       1.10881595        6      -0.17486478       0.00000000       0.26781389
In      -0.05857105       3.16492446      15.93949797        7      -0.17486478       0.00000000      -0.26781389
In       2.17213698       3.16492446      13.89503326        8       0.17486478      -0.00000000       0.26781389
In       4.28574067       3.16492446       3.15328065        9       0.17486478       0.00000000      -0.26781389
In       2.05503265       1.05497320      11.67742553       10      -0.17486478       0.00000000      -0.26781389
In      -0.05857105       1.05497320       5.37088839       11      -0.17486478      -0.00000000       0.26781389
In       2.05503265       1.05497320       3.15328065       12      -0.17486478      -0.00000000      -0.26781389
In      -0.05857105       1.05497320      13.89503326       13      -0.17486478       0.00000000       0.26781389
In       2.17213698       3.16492446       5.37088839       14       0.17486478       0.00000000       0.26781389
In       4.28574067       3.16492446      11.67742553       15       0.17486478      -0.00000000      -0.26781389
O        3.17038666       4.21990009      12.76503374       16       0.00000000       0.00000000      -0.07334855
O        1.05678297       2.10994883       4.28328018       17       0.00000000       0.00000000       0.07334855
O        1.05678297       2.10994883      12.80742506       18      -0.00000000      -0.00000000       0.07334855
O        3.17038666      -0.00000243       4.24088886       19      -0.00000000       0.00000000      -0.07334855
O        1.05678297      -0.00000243       4.28328018       20       0.00000000       0.00000000       0.07334855
O        3.17038666       2.10994883      12.76503374       21      -0.00000000      -0.00000000      -0.07334855
O        3.17038666       2.10994883       4.24088886       22      -0.00000000       0.00000000      -0.07334855
O        1.05678297       4.21990009      12.80742506       23      -0.00000000      -0.00000000       0.07334855
O        3.17038666       2.10994883      10.65519318       24       0.00000000      -0.00000000      -0.00000000
O        1.05678297       4.21990009       6.39312074       25       0.00000000      -0.00000000       0.00000000
O        1.05678297      -0.00000243      14.91726562       26      -0.00000000       0.00000000      -0.00000000
O        3.17038666       2.10994883       2.13104830       27       0.00000000      -0.00000000      -0.00000000
O        1.05678297       2.10994883       6.39312074       28       0.00000000      -0.00000000       0.00000000
O        3.17038666      -0.00000243      10.65519318       29      -0.00000000      -0.00000000      -0.00000000
O        3.17038666       4.21990009       2.13104830       30      -0.00000000      -0.00000000       0.00000000
O        1.05678297       2.10994883      14.91726562       31      -0.00000000       0.00000000       0.00000000
O        3.17038666       2.10994883      17.06949750       32      -0.00000000       0.00000000       0.07334855
O        1.05678297       4.21990009      -0.02118358       33       0.00000000      -0.00000000      -0.07334855
O        1.05678297      -0.00000243       8.50296130       34      -0.00000000       0.00000000      -0.07334855
O        3.17038666       2.10994883       8.54535262       35      -0.00000000      -0.00000000       0.07334855
O        1.05678297       2.10994883      -0.02118358       36       0.00000000      -0.00000000      -0.07334855
O        3.17038666      -0.00000243      17.06949750       37       0.00000000      -0.00000000       0.07334855
O        3.17038666       4.21990009       8.54535262       38       0.00000000       0.00000000       0.07334855
O        1.05678297       2.10994883       8.50296130       39       0.00000000       0.00000000      -0.07334855
40
Lattice="4.233116200705147 9.030971210676513e-18 -4.1398346768194976e-34 -8.783753165596223e-16 4.219271602732113 9.576859412697058e-15 1.2766549798328276e-31 -4.188474536940366e-14 17.02703849248727" Properties=species:S:1:pos:R:3:spacegroup_kinds:I:1:forces:R:3 spacegroup="P 1" unit_cell=conventional occupancy="_JSON {\"0\": {\"In\": 1}, \"1\": {\"In\": 1}, \"2\": {\"In\": 1}, \"3\": {\"In\": 1}, \"4\": {\"In\": 1}, \"5\": {\"In\": 1}, \"6\": {\"In\": 1}, \"7\": {\"In\": 1}, \"8\": {\"In\": 1}, \"9\": {\"In\": 1}, \"10\": {\"In\": 1}, \"11\": {\"In\": 1}, \"12\": {\"In\": 1}, \"13\": {\"In\": 1}, \"14\": {\"In\": 1}, \"15\": {\"In\": 1}, \"16\": {\"O\": 1}, \"17\": {\"O\": 1}, \"18\": {\"O\": 1}, \"19\": {\"O\": 1}, \"20\": {\"O\": 1}, \"21\": {\"O\": 1}, \"22\": {\"O\": 1}, \"23\": {\"O\": 1}, \"24\": {\"O\": 1}, \"25\": {\"O\": 1}, \"26\": {\"O\": 1}, \"27\": {\"O\": 1}, \"28\": {\"O\": 1}, \"29\": {\"O\": 1}, \"30\": {\"O\": 1}, \"31\": {\"O\": 1}, \"32\": {\"O\": 1}, \"33\": {\"O\": 1}, \"34\": {\"O\": 1}, \"35\": {\"O\": 1}, \"36\": {\"O\": 1}, \"37\": {\"O\": 1}, \"38\": {\"O\": 1}, \"39\": {\"O\": 1}}" n_minim_iter=4 energy=-45279.081595867174 stress="-0.09695904558626987 5.228965780214648e-12 4.323436591904106e-12 5.228965780214648e-12 -0.09710651581758842 8.101198330955612e-13 4.323436591904106e-12 8.101198330955612e-13 -0.09696871691670476" free_energy=-45279.081595867174 pbc="T T T"
In       2.05688499       3.16445128       9.62258220        0      -0.12857976       0.00000000      -0.00334795
In      -0.05967311       3.16445128       7.40448042        1      -0.12857976       0.00000000       0.00334795
In       2.17619340       1.05481548      15.91799967        2       0.12857976       0.00000000       0.00334795
In       4.29275150       1.05481548       1.10906296        3       0.12857976      -0.00000000      -0.00334795
In       2.17619340       1.05481548       7.40448042        4       0.12857976      -0.00000000       0.00334795
In       4.29275150       1.05481548       9.62258220        5       0.12857976       0.00000000      -0.00334795
In       2.05688499       3.16445128       1.10906296        6      -0.12857976       0.00000000      -0.00334795
In      -0.05967311       3.16445128      15.91799967        7      -0.12857976       0.00000000       0.00334795
In       2.17619340       3.16445128      13.87934183        8       0.12857976       0.00000000      -0.00334795
In       4.29275150       3.16445128       3.14772080        9       0.12857976      -0.00000000       0.00334795
In       2.05688499       1.05481548      11.66124004       10      -0.12857976       0.00000000       0.00334795
In      -0.05967311       1.05481548       5.36582258       11      -0.12857976       0.00000000      -0.00334795
In       2.05688499       1.05481548       3.14772080       12      -0.12857976      -0.00000000       0.00334795
In      -0.05967311       1.05481548      13.87934183       13      -0.12857976       0.00000000      -0.00334795
In       2.17619340       3.16445128       5.36582258       14       0.12857976       0.00000000      -0.00334795
In       4.29275150       3.16445128      11.66124004       15       0.12857976       0.00000000       0.00334795
O        3.17481825       4.21926918      12.74984257       16       0.00000000      -0.00000000      -0.15203453
O        1.05826015       2.10963338       4.27722006       17       0.00000000      -0.00000000       0.15203453
O        1.05826015       2.10963338      12.79073930       18      -0.00000000      -0.00000000       0.15203453
O        3.17481825      -0.00000243       4.23632332       19      -0.00000000       0.00000000      -0.15203453
O        1.05826015      -0.00000243       4.27722006       20      -0.00000000       0.00000000       0.15203453
O        3.17481825       2.10963338      12.74984257       21      -0.00000000      -0.00000000      -0.15203453
O        3.17481825       2.10963338       4.23632332       22       0.00000000      -0.00000000      -0.15203453
O        1.05826015       4.21926918      12.79073930       23       0.00000000       0.00000000       0.15203453
O        3.17481825       2.10963338      10.64191112       24       0.00000000       0.00000000      -0.00000000
O        1.05826015       4.21926918       6.38515150       25       0.00000000       0.00000000      -0.00000000
O        1.05826015      -0.00000243      14.89867075       26       0.00000000       0.00000000      -0.00000000
O        3.17481825       2.10963338       2.12839188       27      -0.00000000       0.00000000      -0.00000000
O        1.05826015       2.10963338       6.38515150       28      -0.00000000       0.00000000       0.00000000
O        3.17481825      -0.00000243      10.64191112       29       0.00000000      -0.00000000      -0.00000000
O        3.17481825       4.21926918       2.12839188       30      -0.00000000       0.00000000       0.00000000
O        1.05826015       2.10963338      14.89867075       31       0.00000000      -0.00000000       0.00000000
O        3.17481825       2.10963338      17.04749893       32       0.00000000       0.00000000       0.15203453
O        1.05826015       4.21926918      -0.02043630       33       0.00000000      -0.00000000      -0.15203453
O        1.05826015      -0.00000243       8.49308294       34       0.00000000       0.00000000      -0.15203453
O        3.17481825       2.10963338       8.53397968       35      -0.00000000      -0.00000000       0.15203453
O        1.05826015       2.10963338      -0.02043630       36      -0.00000000      -0.00000000      -0.15203453
O        3.17481825      -0.00000243      17.04749893       37       0.00000000      -0.00000000       0.15203453
O        3.17481825       4.21926918       8.53397968       38       0.00000000      -0.00000000       0.15203453
O        1.05826015       2.10963338       8.49308294       39      -0.00000000      -0.00000000      -0.15203453
40
Lattice="4.2332971220104625 9.16986503039962e-18 -3.7423416499689403e-35 -8.782733697829853e-16 4.218780093323586 9.575650362793179e-15 1.2781746409374035e-31 -4.1887596019709055e-14 17.028294448424273" Properties=species:S:1:pos:R:3:spacegroup_kinds:I:1:forces:R:3 spacegroup="P 1" unit_cell=conventional occupancy="_JSON {\"0\": {\"In\": 1}, \"1\": {\"In\": 1}, \"2\": {\"In\": 1}, \"3\": {\"In\": 1}, \"4\": {\"In\": 1}, \"5\": {\"In\": 1}, \"6\": {\"In\": 1}, \"7\": {\"In\": 1}, \"8\": {\"In\": 1}, \"9\": {\"In\": 1}, \"10\": {\"In\": 1}, \"11\": {\"In\": 1}, \"12\": {\"In\": 1}, \"13\": {\"In\": 1}, \"14\": {\"In\": 1}, \"15\": {\"In\": 1}, \"16\": {\"O\": 1}, \"17\": {\"O\": 1}, \"18\": {\"O\": 1}, \"19\": {\"O\": 1}, \"20\": {\"O\": 1}, \"21\": {\"O\": 1}, \"22\": {\"O\": 1}, \"23\": {\"O\": 1}, \"24\": {\"O\": 1}, \"25\": {\"O\": 1}, \"26\": {\"O\": 1}, \"27\": {\"O\": 1}, \"28\": {\"O\": 1}, \"29\": {\"O\": 1}, \"30\": {\"O\": 1}, \"31\": {\"O\": 1}, \"32\": {\"O\": 1}, \"33\": {\"O\": 1}, \"34\": {\"O\": 1}, \"35\": {\"O\": 1}, \"36\": {\"O\": 1}, \"37\": {\"O\": 1}, \"38\": {\"O\": 1}, \"39\": {\"O\": 1}}" n_minim_iter=5 energy=-45279.08564091682 stress="-0.09613799941233657 -1.6175771213017163e-12 -1.7999567136590812e-12 -1.6175771213017163e-12 -0.09592482452159098 -3.430837142260942e-12 -1.7999567136590812e-12 -3.430837142260942e-12 -0.0961349841639116" free_energy=-45279.08564091682 pbc="T T T"
In       2.05486242       3.16408264       9.62366380        0       0.03746921      -0.00000000       0.02356045
In      -0.06178614       3.16408264       7.40465478        1       0.03746921      -0.00000000      -0.02356045
In       2.17839689       1.05469260      15.91880201        2      -0.03746921      -0.00000000      -0.02356045
In       4.29504545       1.05469260       1.10951657        3      -0.03746921      -0.00000000       0.02356045
In       2.17839689       1.05469260       7.40465478        4      -0.03746921      -0.00000000      -0.02356045
In       4.29504545       1.05469260       9.62366380        5      -0.03746921      -0.00000000       0.02356045
In       2.05486242       3.16408264       1.10951657        6       0.03746921      -0.00000000       0.02356045
In      -0.06178614       3.16408264      15.91880201        7       0.03746921      -0.00000000      -0.02356045
In       2.17839689       3.16408264      13.88073741        8      -0.03746921      -0.00000000       0.02356045
In       4.29504545       3.16408264       3.14758117        9      -0.03746921       0.00000000      -0.02356045
In       2.05486242       1.05469260      11.66172840       10       0.03746921      -0.00000000      -0.02356045
In      -0.06178614       1.05469260       5.36659019       11       0.03746921      -0.00000000       0.02356045
In       2.05486242       1.05469260       3.14758117       12       0.03746921      -0.00000000      -0.02356045
In      -0.06178614       1.05469260      13.88073741       13       0.03746921      -0.00000000       0.02356045
In       2.17839689       3.16408264       5.36659019       14      -0.03746921      -0.00000000       0.02356045
In       4.29504545       3.16408264      11.66172840       15      -0.03746921      -0.00000000      -0.02356045
O        3.17495394       4.21877767      12.74878733       16      -0.00000000      -0.00000000      -0.00092466
O        1.05830538       2.10938762       4.27953125       17      -0.00000000      -0.00000000       0.00092466
O        1.05830538       2.10938762      12.79367847       18      -0.00000000       0.00000000       0.00092466
O        3.17495394      -0.00000243       4.23464011       19       0.00000000      -0.00000000      -0.00092466
O        1.05830538      -0.00000243       4.27953125       20       0.00000000       0.00000000       0.00092466
O        3.17495394       2.10938762      12.74878733       21      -0.00000000      -0.00000000      -0.00092466
O        3.17495394       2.10938762       4.23464011       22      -0.00000000      -0.00000000      -0.00092466
O        1.05830538       4.21877767      12.79367847       23       0.00000000       0.00000000       0.00092466
O        3.17495394       2.10938762      10.64269610       24       0.00000000      -0.00000000       0.00000000
O        1.05830538       4.21877767       6.38562248       25       0.00000000       0.00000000      -0.00000000
O        1.05830538      -0.00000243      14.89976971       26       0.00000000      -0.00000000       0.00000000
O        3.17495394       2.10938762       2.12854887       27      -0.00000000      -0.00000000       0.00000000
O        1.05830538       2.10938762       6.38562248       28      -0.00000000      -0.00000000       0.00000000
O        3.17495394      -0.00000243      10.64269610       29       0.00000000       0.00000000      -0.00000000
O        3.17495394       4.21877767       2.12854887       30      -0.00000000       0.00000000       0.00000000
O        1.05830538       2.10938762      14.89976971       31      -0.00000000      -0.00000000      -0.00000000
O        3.17495394       2.10938762      17.05075209       32       0.00000000       0.00000000       0.00092466
O        1.05830538       4.21877767      -0.02243351       33      -0.00000000      -0.00000000      -0.00092466
O        1.05830538      -0.00000243       8.49171372       34       0.00000000       0.00000000      -0.00092466
O        3.17495394       2.10938762       8.53660486       35       0.00000000       0.00000000       0.00092466
O        1.05830538       2.10938762      -0.02243351       36       0.00000000       0.00000000      -0.00092466
O        3.17495394      -0.00000243      17.05075209       37       0.00000000       0.00000000       0.00092466
O        3.17495394       4.21877767       8.53660486       38      -0.00000000      -0.00000000       0.00092466
O        1.05830538       2.10938762       8.49171372       39       0.00000000      -0.00000000      -0.00092466
40