40
Lattice="5.192813755143763 6.947134005206318e-42 -4.3535749435862053e-57 -5.755701155710462e-42 5.595358903364363 -5.274470547231638e-15 -2.041768894477164e-61 3.066787992702822e-14 14.952301837238569" Properties=species:S:1:pos:R:3:spacegroup_kinds:I:1:forces:R:3 spacegroup="P 1" unit_cell=conventional occupancy="_JSON {\"0\": {\"In\": 1}, \"1\": {\"In\": 1}, \"2\": {\"In\": 1}, \"3\": {\"In\": 1}, \"4\": {\"In\": 1}, \"5\": {\"In\": 1}, \"6\": {\"In\": 1}, \"7\": {\"In\": 1}, \"8\": {\"In\": 1}, \"9\": {\"In\": 1}, \"10\": {\"In\": 1}, \"11\": {\"In\": 1}, \"12\": {\"In\": 1}, \"13\": {\"In\": 1}, \"14\": {\"In\": 1}, \"15\": {\"In\": 1}, \"16\": {\"O\": 1}, \"17\": {\"O\": 1}, \"18\": {\"O\": 1}, \"19\": {\"O\": 1}, \"20\": {\"O\": 1}, \"21\": {\"O\": 1}, \"22\": {\"O\": 1}, \"23\": {\"O\": 1}, \"24\": {\"O\": 1}, \"25\": {\"O\": 1}, \"26\": {\"O\": 1}, \"27\": {\"O\": 1}, \"28\": {\"O\": 1}, \"29\": {\"O\": 1}, \"30\": {\"O\": 1}, \"31\": {\"O\": 1}, \"32\": {\"O\": 1}, \"33\": {\"O\": 1}, \"34\": {\"O\": 1}, \"35\": {\"O\": 1}, \"36\": {\"O\": 1}, \"37\": {\"O\": 1}, \"38\": {\"O\": 1}, \"39\": {\"O\": 1}}" n_minim_iter=23 energy=-45159.215678981665 stress="0.2304035806790849 1.1925731088120457e-12 1.7041862055405358e-12 1.1925731088120457e-12 0.2305934967975413 8.834650673149003e-13 1.7041862055405358e-12 8.834650673149003e-13 0.23046453562800115" free_energy=-45159.215678981665 pbc="T T T"
In       2.71672415       4.44215010       8.59215666        0       0.00071808      -0.00006083       0.00438533
In       0.12031727       3.95088825       6.36014518        1       0.00071808       0.00006083      -0.00438533
In       2.47608961       1.64447065      13.83629610        2      -0.00071808      -0.00006083      -0.00438533
In       5.07249649       1.15320880       1.11600574        3      -0.00071808       0.00006083       0.00438533
In       2.47608961       1.15320880       6.36014518        4      -0.00071808       0.00006083      -0.00438533
In       5.07249649       1.64447065       8.59215666        5      -0.00071808      -0.00006083       0.00438533
In       2.71672415       3.95088825       1.11600574        6       0.00071808       0.00006083       0.00438533
In       0.12031727       4.44215010      13.83629610        7       0.00071808      -0.00006083      -0.00438533
In       2.75234239       4.12505960      12.41951501        8       0.00002360       0.00012389      -0.00012589
In       5.34874927       4.26797876       2.53278683        9       0.00002360      -0.00012389       0.00012589
In       2.44047137       1.32738014      10.00893775       10      -0.00002360       0.00012389       0.00012589
In      -0.15593551       1.47029931       4.94336409       11      -0.00002360      -0.00012389      -0.00012589
In       2.44047137       1.47029931       2.53278683       12      -0.00002360      -0.00012389       0.00012589
In      -0.15593551       1.32738014      12.41951501       13      -0.00002360       0.00012389      -0.00012589
In       2.75234239       4.26797876       4.94336409       14       0.00002360      -0.00012389      -0.00012589
In       5.34874927       4.12505960      10.00893775       15       0.00002360       0.00012389       0.00012589
O        4.57643441       4.90099110      11.87833943       16       0.00306994      -0.00072046       0.00009858
O        1.98002753       3.49204726       3.07396241       17       0.00306994       0.00072046      -0.00009858
O        0.61637935       2.10331164      10.55011333       18      -0.00306994      -0.00072046      -0.00009858
O        3.21278623       0.69436781       4.40218851       19      -0.00306994       0.00072046       0.00009858
O        0.61637935       0.69436781       3.07396241       20      -0.00306994       0.00072046      -0.00009858
O        3.21278623       2.10331164      11.87833943       21      -0.00306994      -0.00072046       0.00009858
O        4.57643441       3.49204726       4.40218851       22       0.00306994       0.00072046       0.00009858
O        1.98002753       4.90099110      10.55011333       23       0.00306994      -0.00072046      -0.00009858
O        3.32897552       2.51614783       8.79506523       24       0.00022515       0.00268147       0.00199192
O        0.73256864       5.87689052       6.15723661       25       0.00022515      -0.00268147      -0.00199191
O        1.86383823      -0.28153162      13.63338753       26      -0.00022515       0.00268147      -0.00199191
O        4.46024511       3.07921107       1.31891431       27      -0.00022515      -0.00268147       0.00199191
O        1.86383823       3.07921107       6.15723661       28      -0.00022515      -0.00268147      -0.00199191
O        4.46024511      -0.28153162       8.79506523       29      -0.00022515       0.00268147       0.00199192
O        3.32897552       5.87689052       1.31891431       30       0.00022515      -0.00268147       0.00199191
O        0.73256864       2.51614783      13.63338753       31       0.00022515       0.00268147      -0.00199192
O        3.49501577       3.85018175      14.29070932       32       0.00413322      -0.00752086       0.00236859
O        0.89860889       4.54285661       0.66159252       33       0.00413322       0.00752086      -0.00236859
O        1.69779798       1.05250229       8.13774344       34      -0.00413322      -0.00752086      -0.00236859
O        4.29420486       1.74517716       6.81455840       35      -0.00413322       0.00752085       0.00236859
O        1.69779798       1.74517716       0.66159252       36      -0.00413322       0.00752086      -0.00236859
O        4.29420486       1.05250229      14.29070932       37      -0.00413322      -0.00752086       0.00236859
O        3.49501577       4.54285661       6.81455840       38       0.00413322       0.00752086       0.00236859
O        0.89860889       3.85018175       8.13774344       39       0.00413322      -0.00752086      -0.00236859
