40
Lattice="5.164168707840407 3.737210268103391e-42 -4.995193065155288e-57 -7.808757734186703e-43 5.4925368887963195 -8.3473054999931e-15 -4.343597725579294e-73 -2.588676181639812e-14 13.478700356315647" Properties=species:S:1:pos:R:3:spacegroup_kinds:I:1:forces:R:3 spacegroup="P 1" unit_cell=conventional occupancy="_JSON {\"0\": {\"In\": 1}, \"1\": {\"In\": 1}, \"2\": {\"In\": 1}, \"3\": {\"In\": 1}, \"4\": {\"In\": 1}, \"5\": {\"In\": 1}, \"6\": {\"In\": 1}, \"7\": {\"In\": 1}, \"8\": {\"In\": 1}, \"9\": {\"In\": 1}, \"10\": {\"In\": 1}, \"11\": {\"In\": 1}, \"12\": {\"In\": 1}, \"13\": {\"In\": 1}, \"14\": {\"In\": 1}, \"15\": {\"In\": 1}, \"16\": {\"O\": 1}, \"17\": {\"O\": 1}, \"18\": {\"O\": 1}, \"19\": {\"O\": 1}, \"20\": {\"O\": 1}, \"21\": {\"O\": 1}, \"22\": {\"O\": 1}, \"23\": {\"O\": 1}, \"24\": {\"O\": 1}, \"25\": {\"O\": 1}, \"26\": {\"O\": 1}, \"27\": {\"O\": 1}, \"28\": {\"O\": 1}, \"29\": {\"O\": 1}, \"30\": {\"O\": 1}, \"31\": {\"O\": 1}, \"32\": {\"O\": 1}, \"33\": {\"O\": 1}, \"34\": {\"O\": 1}, \"35\": {\"O\": 1}, \"36\": {\"O\": 1}, \"37\": {\"O\": 1}, \"38\": {\"O\": 1}, \"39\": {\"O\": 1}}" n_minim_iter=42 energy=-45173.449331527176 stress="0.2591513017544185 3.711593775519856e-13 1.4442703124841398e-12 3.711593775519856e-13 0.259167984183623 2.227563771193864e-12 1.4442703124841398e-12 2.227563771193864e-12 0.2592249312335156" free_energy=-45173.449331527176 pbc="T T T"
In       2.77908661       4.33183805       7.79310142        0      -0.00226688      -0.00006201       0.00044198
In       0.19700225       3.90696729       5.68559894        1      -0.00226688       0.00006201      -0.00044198
In       2.38508210       1.58556960      12.42494912        2       0.00226688      -0.00006201      -0.00044198
In       4.96716645       1.16069884       1.05375124        3       0.00226688       0.00006201       0.00044198
In       2.38508210       1.16069884       5.68559894        4       0.00226688       0.00006201      -0.00044198
In       4.96716645       1.58556960       7.79310142        5       0.00226688      -0.00006201       0.00044198
In       2.77908661       3.90696729       1.05375124        6      -0.00226688       0.00006201       0.00044198
In       0.19700225       4.33183805      12.42494912        7      -0.00226688      -0.00006201      -0.00044198
In       2.88621670       3.99210452      11.06799993        8       0.00057225      -0.00119791      -0.00139691
In       5.46830105       4.24670082       2.41070042        9       0.00057225       0.00119791       0.00139691
In       2.27795201       1.24583607       9.15005060       10      -0.00057225      -0.00119791       0.00139691
In      -0.30413234       1.50043237       4.32864975       11      -0.00057225       0.00119791      -0.00139691
In       2.27795201       1.50043237       2.41070042       12      -0.00057225       0.00119791       0.00139691
In      -0.30413234       1.24583607      11.06799993       13      -0.00057225      -0.00119791      -0.00139691
In       2.88621670       4.24670082       4.32864975       14       0.00057225       0.00119791      -0.00139691
In       5.46830105       3.99210452       9.15005060       15       0.00057225      -0.00119791       0.00139691
O        4.61693813       4.81997541      10.69215566       16       0.00238674      -0.00021618      -0.00160443
O        2.03485378       3.41882992       2.78654470       17       0.00238674       0.00021618       0.00160443
O        0.54723058       2.07370697       9.52589488       18      -0.00238674      -0.00021618       0.00160443
O        3.12931493       0.67256147       3.95280548       19      -0.00238674       0.00021618      -0.00160443
O        0.54723058       0.67256147       2.78654470       20      -0.00238674       0.00021618       0.00160443
O        3.12931493       2.07370697      10.69215566       21      -0.00238674      -0.00021618      -0.00160443
O        4.61693813       3.41882992       3.95280548       22       0.00238674       0.00021618      -0.00160443
O        2.03485378       4.81997541       9.52589488       23       0.00238674      -0.00021618       0.00160443
O        3.26506918       2.40773994       8.05292406       24       0.00103163      -0.00002606       0.00002500
O        0.68298483       5.83106540       5.42577630       25       0.00103163       0.00002606      -0.00002500
O        1.89909953      -0.33852851      12.16512648       26      -0.00103163      -0.00002606      -0.00002500
O        4.48118388       3.08479695       1.31357388       27      -0.00103163       0.00002606       0.00002500
O        1.89909953       3.08479695       5.42577630       28      -0.00103163       0.00002606      -0.00002500
O        4.48118388      -0.33852851       8.05292406       29      -0.00103163      -0.00002606       0.00002500
O        3.26506918       5.83106540       1.31357388       30       0.00103163       0.00002606       0.00002500
O        0.68298483       2.40773994      12.16512648       31       0.00103163      -0.00002606      -0.00002500
O        3.58486469       3.87464581      12.82613395       32       0.00035213      -0.00180855       0.00074518
O        1.00278033       4.36415953       0.65256641       33       0.00035213       0.00180855      -0.00074518
O        1.57930402       1.12837736       7.39191659       34      -0.00035213      -0.00180855      -0.00074518
O        4.16138838       1.61789108       6.08678377       35      -0.00035213       0.00180855       0.00074518
O        1.57930402       1.61789108       0.65256641       36      -0.00035213       0.00180855      -0.00074518
O        4.16138838       1.12837736      12.82613395       37      -0.00035213      -0.00180855       0.00074518
O        3.58486469       4.36415953       6.08678377       38       0.00035213       0.00180855       0.00074518
O        1.00278033       3.87464581       7.39191659       39       0.00035213      -0.00180855      -0.00074518
