40
Lattice="4.942136093789493 2.104919838460348e-42 -3.509420299791792e-81 -2.0910325043018032e-42 4.909530056192518 8.60866813524293e-39 2.2434652549501924e-80 -2.7000923670385537e-38 15.398647528532827" Properties=species:S:1:pos:R:3:spacegroup_kinds:I:1:forces:R:3 spacegroup="P 1" unit_cell=conventional occupancy="_JSON {\"0\": {\"In\": 1}, \"1\": {\"In\": 1}, \"2\": {\"In\": 1}, \"3\": {\"In\": 1}, \"4\": {\"In\": 1}, \"5\": {\"In\": 1}, \"6\": {\"In\": 1}, \"7\": {\"In\": 1}, \"8\": {\"In\": 1}, \"9\": {\"In\": 1}, \"10\": {\"In\": 1}, \"11\": {\"In\": 1}, \"12\": {\"In\": 1}, \"13\": {\"In\": 1}, \"14\": {\"In\": 1}, \"15\": {\"In\": 1}, \"16\": {\"O\": 1}, \"17\": {\"O\": 1}, \"18\": {\"O\": 1}, \"19\": {\"O\": 1}, \"20\": {\"O\": 1}, \"21\": {\"O\": 1}, \"22\": {\"O\": 1}, \"23\": {\"O\": 1}, \"24\": {\"O\": 1}, \"25\": {\"O\": 1}, \"26\": {\"O\": 1}, \"27\": {\"O\": 1}, \"28\": {\"O\": 1}, \"29\": {\"O\": 1}, \"30\": {\"O\": 1}, \"31\": {\"O\": 1}, \"32\": {\"O\": 1}, \"33\": {\"O\": 1}, \"34\": {\"O\": 1}, \"35\": {\"O\": 1}, \"36\": {\"O\": 1}, \"37\": {\"O\": 1}, \"38\": {\"O\": 1}, \"39\": {\"O\": 1}}" n_minim_iter=1 energy=-45169.558347819846 stress="0.32794772773915337 1.5174642765269084e-13 9.303967777150048e-13 1.5174642765269084e-13 0.3196336060229732 -6.211989008282075e-13 9.303967777150048e-13 -6.211989008282075e-13 0.36104231164002243" free_energy=-45169.558347819846 pbc="T T T"
In       2.56402107       4.05594989       8.81113088        0       0.34139217      -0.38374161       0.01941011
In       0.09295302       3.30834519       6.58751665        1       0.34139217       0.38374161      -0.01941011
In       2.37811503       1.60118486      14.28684042        2      -0.34139217      -0.38374161      -0.01941011
In       4.84918308       0.85358016       1.11180711        3      -0.34139217       0.38374161       0.01941011
In       2.37811503       0.85358016       6.58751665        4      -0.34139217       0.38374161      -0.01941011
In       4.84918308       1.60118486       8.81113088        5      -0.34139217      -0.38374161       0.01941011
In       2.56402107       3.30834519       1.11180711        6       0.34139217       0.38374161       0.01941011
In       0.09295302       4.05594989      14.28684042        7       0.34139217      -0.38374161      -0.01941011
In       2.58437846       3.69607932      12.72167371        8       0.11466561       0.56386612      -0.87021121
In       5.05544651       3.66821576       2.67697382        9       0.11466561      -0.56386612       0.87021121
In       2.35775763       1.24131430      10.37629758       10      -0.11466561       0.56386612       0.87021121
In      -0.11331042       1.21345073       5.02234995       11      -0.11466561      -0.56386612      -0.87021121
In       2.35775763       1.21345073       2.67697382       12      -0.11466561      -0.56386612       0.87021121
In      -0.11331042       1.24131430      12.72167371       13      -0.11466561       0.56386612      -0.87021121
In       2.58437846       3.66821576       5.02234995       14       0.11466561      -0.56386612      -0.87021121
In       5.05544651       3.69607932      10.37629758       15       0.11466561       0.56386612       0.87021121
O        4.14525498       4.57579483      11.86470935       16       0.04819434      -0.19869604       0.08113195
O        1.67418693       2.78850025       3.53393818       17       0.04819434       0.19869604      -0.08113195
O        0.79688112       2.12102980      11.23326194       18      -0.04819434      -0.19869604      -0.08113195
O        3.26794916       0.33373522       4.16538559       19      -0.04819434       0.19869604       0.08113195
O        0.79688112       0.33373522       3.53393818       20      -0.04819434       0.19869604      -0.08113195
O        3.26794916       2.12102980      11.86470935       21      -0.04819434      -0.19869604       0.08113195
O        4.14525498       2.78850025       4.16538559       22       0.04819434       0.19869604       0.08113195
O        1.67418693       4.57579483      11.23326194       23       0.04819434      -0.19869604      -0.08113195
O        3.42025184       2.59835986       9.64476687       24      -0.41609045      -0.01861068       0.17714606
O        0.94918379       4.76593523       5.75388066       25      -0.41609045       0.01861068      -0.17714606
O        1.52188425       0.14359483      13.45320442       26       0.41609045      -0.01861068      -0.17714606
O        3.99295230       2.31117020       1.94544311       27       0.41609045       0.01861068       0.17714606
O        1.52188425       2.31117020       5.75388066       28       0.41609045       0.01861068      -0.17714606
O        3.99295230       0.14359483       9.64476687       29       0.41609045      -0.01861068       0.17714606
O        3.42025184       4.76593523       1.94544311       30      -0.41609045       0.01861068       0.17714606
O        0.94918379       2.59835986      13.45320442       31      -0.41609045      -0.01861068      -0.17714606
O        3.35177401       3.26764883      14.64820877       32      -0.04602781       0.04182185       0.21949581
O        0.88070596       4.09664625       0.75043876       33      -0.04602781      -0.04182185      -0.21949581
O        1.59036208       0.81288380       8.44976252       34       0.04602781       0.04182185      -0.21949581
O        4.06143013       1.64188123       6.94888501       35       0.04602781      -0.04182185       0.21949581
O        1.59036208       1.64188123       0.75043876       36       0.04602781      -0.04182185      -0.21949581
O        4.06143013       0.81288380      14.64820877       37       0.04602781       0.04182185       0.21949581
O        3.35177401       4.09664625       6.94888501       38      -0.04602781      -0.04182185       0.21949581
O        0.88070596       3.26764883       8.44976252       39      -0.04602781       0.04182185      -0.21949581
40
Lattice="4.947722810499479 2.1103633253570623e-42 -4.702739684690403e-78 -2.0926978838472947e-42 4.920672367509228 -1.1087457065350439e-35 1.5266668693489769e-80 -3.271552823917428e-35 15.346431019206134" Properties=species:S:1:pos:R:3:spacegroup_kinds:I:1:forces:R:3 spacegroup="P 1" unit_cell=conventional occupancy="_JSON {\"0\": {\"In\": 1}, \"1\": {\"In\": 1}, \"2\": {\"In\": 1}, \"3\": {\"In\": 1}, \"4\": {\"In\": 1}, \"5\": {\"In\": 1}, \"6\": {\"In\": 1}, \"7\": {\"In\": 1}, \"8\": {\"In\": 1}, \"9\": {\"In\": 1}, \"10\": {\"In\": 1}, \"11\": {\"In\": 1}, \"12\": {\"In\": 1}, \"13\": {\"In\": 1}, \"14\": {\"In\": 1}, \"15\": {\"In\": 1}, \"16\": {\"O\": 1}, \"17\": {\"O\": 1}, \"18\": {\"O\": 1}, \"19\": {\"O\": 1}, \"20\": {\"O\": 1}, \"21\": {\"O\": 1}, \"22\": {\"O\": 1}, \"23\": {\"O\": 1}, \"24\": {\"O\": 1}, \"25\": {\"O\": 1}, \"26\": {\"O\": 1}, \"27\": {\"O\": 1}, \"28\": {\"O\": 1}, \"29\": {\"O\": 1}, \"30\": {\"O\": 1}, \"31\": {\"O\": 1}, \"32\": {\"O\": 1}, \"33\": {\"O\": 1}, \"34\": {\"O\": 1}, \"35\": {\"O\": 1}, \"36\": {\"O\": 1}, \"37\": {\"O\": 1}, \"38\": {\"O\": 1}, \"39\": {\"O\": 1}}" n_minim_iter=2 energy=-45169.58639547415 stress="0.33317669054327864 -4.079952234628439e-12 -1.569922810583349e-13 -4.079952234628439e-12 0.3267705836104067 4.64731145680808e-12 -1.569922810583349e-13 4.64731145680808e-12 0.3271161883909815" free_energy=-45169.58639547415 pbc="T T T"
In       2.56704462       4.06501418       8.78125959        0       0.31225393      -0.51727506       0.00150410
In       0.09318321       3.31599437       6.56517143        1       0.31225393       0.51727506      -0.00150410
In       2.38067819       1.60467800      14.23838694        2      -0.31225393      -0.51727506      -0.00150410
In       4.85453960       0.85565818       1.10804408        3      -0.31225393       0.51727506       0.00150410
In       2.38067819       0.85565818       6.56517143        4      -0.31225393       0.51727506      -0.00150410
In       4.85453960       1.60467800       8.78125959        5      -0.31225393      -0.51727506       0.00150410
In       2.56704462       3.31599437       1.10804408        6       0.31225393       0.51727506       0.00150410
In       0.09318321       4.06501418      14.23838694        7       0.31225393      -0.51727506      -0.00150410
In       2.58734193       3.70467456      12.67821728        8       0.10946771       0.63423286      -0.72949941
In       5.06120334       3.67633399       2.66821373        9       0.10946771      -0.63423286       0.72949941
In       2.36038088       1.24433838      10.34142924       10      -0.10946771       0.63423286       0.72949941
In      -0.11348053       1.21599781       5.00500177       11      -0.10946771      -0.63423286      -0.72949941
In       2.36038088       1.21599781       2.66821373       12      -0.10946771      -0.63423286       0.72949941
In      -0.11348053       1.24433838      12.67821728       13      -0.10946771       0.63423286      -0.72949941
In       2.58734193       3.67633399       5.00500177       14       0.10946771      -0.63423286      -0.72949941
In       5.06120334       3.70467456      10.34142924       15       0.10946771       0.63423286       0.72949941
O        4.14995854       4.58610682      11.82450596       16       0.15255995      -0.19755921       0.14756050
O        1.67609714       2.79490173       3.52192506       17       0.15255995       0.19755921      -0.14756050
O        0.79776427       2.12577064      11.19514057       18      -0.15255995      -0.19755921      -0.14756050
O        3.27162567       0.33456555       4.15129045       19      -0.15255995       0.19755921       0.14756050
O        0.79776427       0.33456555       3.52192506       20      -0.15255995       0.19755921      -0.14756050
O        3.27162567       2.12577064      11.82450596       21      -0.15255995      -0.19755921       0.14756050
O        4.14995854       2.79490173       4.15129045       22       0.15255995       0.19755921       0.14756050
O        1.67609714       4.58610682      11.19514057       23       0.15255995      -0.19755921      -0.14756050
O        3.42396569       2.60425008       9.61212629       24      -0.48450630      -0.07026103       0.10659798
O        0.95010428       4.77675847       5.73430473       25      -0.48450630       0.07026103      -0.10659798
O        1.52375712       0.14391389      13.40752024       26       0.48450630      -0.07026103      -0.10659798
O        3.99761853       2.31642229       1.93891078       27       0.48450630       0.07026103       0.10659798
O        1.52375712       2.31642229       5.73430473       28       0.48450630       0.07026103      -0.10659798
O        3.99761853       0.14391389       9.61212629       29       0.48450630      -0.07026103       0.10659798
O        3.42396569       4.77675847       1.93891078       30      -0.48450630       0.07026103       0.10659798
O        0.95010428       2.60425008      13.40752024       31      -0.48450630      -0.07026103      -0.10659798
O        3.35554607       3.27508019      14.59861706       32      -0.01461564       0.10021555       0.14906365
O        0.88168467       4.10592836       0.74781396       33      -0.01461564      -0.10021555      -0.14906365
O        1.59217674       0.81474401       8.42102947       34       0.01461564       0.10021555      -0.14906365
O        4.06603814       1.64559218       6.92540155       35       0.01461564      -0.10021555       0.14906365
O        1.59217674       1.64559218       0.74781396       36       0.01461564      -0.10021555      -0.14906365
O        4.06603814       0.81474401      14.59861706       37       0.01461564       0.10021555       0.14906365
O        3.35554607       4.10592836       6.92540155       38      -0.01461564      -0.10021555       0.14906365
O        0.88168467       3.27508019       8.42102947       39      -0.01461564       0.10021555      -0.14906365
40
Lattice="4.9357156842728624 2.1129974741355997e-42 -4.680850736556375e-78 -2.0897610376087297e-42 4.932418275827269 -1.1035252322561271e-35 1.5225126510626564e-80 -3.2614500113983056e-35 15.347129894651257" Properties=species:S:1:pos:R:3:spacegroup_kinds:I:1:forces:R:3 spacegroup="P 1" unit_cell=conventional occupancy="_JSON {\"0\": {\"In\": 1}, \"1\": {\"In\": 1}, \"2\": {\"In\": 1}, \"3\": {\"In\": 1}, \"4\": {\"In\": 1}, \"5\": {\"In\": 1}, \"6\": {\"In\": 1}, \"7\": {\"In\": 1}, \"8\": {\"In\": 1}, \"9\": {\"In\": 1}, \"10\": {\"In\": 1}, \"11\": {\"In\": 1}, \"12\": {\"In\": 1}, \"13\": {\"In\": 1}, \"14\": {\"In\": 1}, \"15\": {\"In\": 1}, \"16\": {\"O\": 1}, \"17\": {\"O\": 1}, \"18\": {\"O\": 1}, \"19\": {\"O\": 1}, \"20\": {\"O\": 1}, \"21\": {\"O\": 1}, \"22\": {\"O\": 1}, \"23\": {\"O\": 1}, \"24\": {\"O\": 1}, \"25\": {\"O\": 1}, \"26\": {\"O\": 1}, \"27\": {\"O\": 1}, \"28\": {\"O\": 1}, \"29\": {\"O\": 1}, \"30\": {\"O\": 1}, \"31\": {\"O\": 1}, \"32\": {\"O\": 1}, \"33\": {\"O\": 1}, \"34\": {\"O\": 1}, \"35\": {\"O\": 1}, \"36\": {\"O\": 1}, \"37\": {\"O\": 1}, \"38\": {\"O\": 1}, \"39\": {\"O\": 1}}" n_minim_iter=3 energy=-45169.60316015815 stress="0.31387304141708827 -5.391729374483759e-13 -3.547848303048061e-12 -5.391729374483759e-13 0.33549557480967396 1.9872947221467463e-12 -3.547848303048061e-12 1.9872947221467463e-12 0.3265147352111628" free_energy=-45169.60316015815 pbc="T T T"
In       2.56143411       4.07370945       8.78166486        0       0.25823325      -0.28532485      -0.00073247
In       0.09357627       3.32491797       6.56546504        1       0.25823325       0.28532485       0.00073247
In       2.37428157       1.60750031      14.23902999        2      -0.25823325      -0.28532485       0.00073247
In       4.84213942       0.85870883       1.10809991        3      -0.25823325       0.28532485      -0.00073247
In       2.37428157       0.85870883       6.56546504        4      -0.25823325       0.28532485       0.00073247
In       4.84213942       1.60750031       8.78166486        5      -0.25823325      -0.28532485      -0.00073247
In       2.56143411       3.32491797       1.10809991        6       0.25823325       0.28532485      -0.00073247
In       0.09357627       4.07370945      14.23902999        7       0.25823325      -0.28532485       0.00073247
In       2.58127937       3.71476665      12.67734723        8       0.11605047       0.44026039      -0.66448433
In       5.04913721       3.68386076       2.66978267        9       0.11605047      -0.44026039       0.66448433
In       2.35443632       1.24855751      10.34334762       10      -0.11605047       0.44026039       0.66448433
In      -0.11342153       1.21765163       5.00378228       11      -0.11605047      -0.44026039      -0.66448433
In       2.35443632       1.21765163       2.66978267       12      -0.11605047      -0.44026039       0.66448433
In      -0.11342153       1.24855751      12.67734723       13      -0.11605047       0.44026039      -0.66448433
In       2.58127937       3.68386076       5.00378228       14       0.11605047      -0.44026039      -0.66448433
In       5.04913721       3.71476665      10.34334762       15       0.11605047       0.44026039       0.66448433
O        4.14017386       4.59666195      11.82532437       16       0.22948072      -0.15108095       0.09145477
O        1.67231602       2.80196546       3.52180552       17       0.22948072       0.15108095      -0.09145477
O        0.79554182       2.13045281      11.19537047       18      -0.22948072      -0.15108095      -0.09145477
O        3.26339966       0.33575632       4.15175943       19      -0.22948072       0.15108095       0.09145477
O        0.79554182       0.33575632       3.52180552       20      -0.22948072       0.15108095      -0.09145477
O        3.26339966       2.13045281      11.82532437       21      -0.22948072      -0.15108095       0.09145477
O        4.14017386       2.80196546       4.15175943       22       0.22948072       0.15108095       0.09145477
O        1.67231602       4.59666195      11.19537047       23       0.22948072      -0.15108095      -0.09145477
O        3.41471106       2.61033420       9.61278230       24      -0.41496335      -0.07717156       0.05503084
O        0.94685322       4.78829321       5.73434760       25      -0.41496335       0.07717156      -0.05503084
O        1.52100462       0.14412506      13.40791255       26       0.41496335      -0.07717156      -0.05503084
O        3.98886246       2.32208408       1.93921735       27       0.41496335       0.07717156       0.05503084
O        1.52100462       2.32208408       5.73434760       28       0.41496335       0.07717156      -0.05503084
O        3.98886246       0.14412506       9.61278230       29       0.41496335      -0.07717156       0.05503084
O        3.41471106       4.78829321       1.93921735       30      -0.41496335       0.07717156       0.05503084
O        0.94685322       2.61033420      13.40791255       31      -0.41496335      -0.07717156      -0.05503084
O        3.34736978       3.28308886      14.59958329       32      -0.07495098       0.06373752       0.14077882
O        0.87951194       4.11553855       0.74754661       33      -0.07495098      -0.06373752      -0.14077882
O        1.58834590       0.81687972       8.42111155       34       0.07495098       0.06373752      -0.14077882
O        4.05620375       1.64932942       6.92601834       35       0.07495098      -0.06373752       0.14077882
O        1.58834590       1.64932942       0.74754661       36       0.07495098      -0.06373752      -0.14077882
O        4.05620375       0.81687972      14.59958329       37       0.07495098       0.06373752       0.14077882
O        3.34736978       4.11553855       6.92601834       38      -0.07495098      -0.06373752       0.14077882
O        0.87951194       3.28308886       8.42111155       39      -0.07495098       0.06373752      -0.14077882
40
Lattice="4.947291826926428 2.118503244062793e-42 -4.635692641891438e-78 -2.0850299665278567e-42 4.922741298872464 -1.097584478077136e-35 1.4996129464433363e-80 -3.2379291395415967e-35 15.341317559258076" Properties=species:S:1:pos:R:3:spacegroup_kinds:I:1:forces:R:3 spacegroup="P 1" unit_cell=conventional occupancy="_JSON {\"0\": {\"In\": 1}, \"1\": {\"In\": 1}, \"2\": {\"In\": 1}, \"3\": {\"In\": 1}, \"4\": {\"In\": 1}, \"5\": {\"In\": 1}, \"6\": {\"In\": 1}, \"7\": {\"In\": 1}, \"8\": {\"In\": 1}, \"9\": {\"In\": 1}, \"10\": {\"In\": 1}, \"11\": {\"In\": 1}, \"12\": {\"In\": 1}, \"13\": {\"In\": 1}, \"14\": {\"In\": 1}, \"15\": {\"In\": 1}, \"16\": {\"O\": 1}, \"17\": {\"O\": 1}, \"18\": {\"O\": 1}, \"19\": {\"O\": 1}, \"20\": {\"O\": 1}, \"21\": {\"O\": 1}, \"22\": {\"O\": 1}, \"23\": {\"O\": 1}, \"24\": {\"O\": 1}, \"25\": {\"O\": 1}, \"26\": {\"O\": 1}, \"27\": {\"O\": 1}, \"28\": {\"O\": 1}, \"29\": {\"O\": 1}, \"30\": {\"O\": 1}, \"31\": {\"O\": 1}, \"32\": {\"O\": 1}, \"33\": {\"O\": 1}, \"34\": {\"O\": 1}, \"35\": {\"O\": 1}, \"36\": {\"O\": 1}, \"37\": {\"O\": 1}, \"38\": {\"O\": 1}, \"39\": {\"O\": 1}}" n_minim_iter=4 energy=-45169.658849891115 stress="0.31357632281170844 2.00674128554762e-12 -2.739359747412448e-12 2.00674128554762e-12 0.3125803305641715 1.4652125575815165e-12 -2.739359747412448e-12 1.4652125575815165e-12 0.31355868226923206" free_energy=-45169.658849891115 pbc="T T T"
In       2.57017812       4.06160127       8.77835411        0      -0.04681663       0.31529401      -0.03740306
In       0.09653220       3.32251068       6.56296345        1      -0.04681663      -0.31529401       0.03740306
In       2.37711371       1.60023062      14.23362223        2       0.04681663       0.31529401       0.03740306
In       4.85075962       0.86114003       1.10769533        3       0.04681663      -0.31529401      -0.03740306
In       2.37711371       0.86114003       6.56296345        4       0.04681663      -0.31529401       0.03740306
In       4.85075962       1.60023062       8.77835411        5       0.04681663       0.31529401      -0.03740306
In       2.57017812       3.32251068       1.10769533        6      -0.04681663      -0.31529401      -0.03740306
In       0.09653220       4.06160127      14.23362223        7      -0.04681663       0.31529401       0.03740306
In       2.58835535       3.71279245      12.66602477        8       0.13666448      -0.09075006      -0.12041416
In       5.06200126       3.67131949       2.67529279        9       0.13666448       0.09075006       0.12041416
In       2.35893648       1.25142180      10.34595157       10      -0.13666448      -0.09075006       0.12041416
In      -0.11470943       1.20994885       4.99536599       11      -0.13666448       0.09075006      -0.12041416
In       2.35893648       1.20994885       2.67529279       12      -0.13666448       0.09075006       0.12041416
In      -0.11470943       1.25142180      12.66602477       13      -0.13666448      -0.09075006      -0.12041416
In       2.58835535       3.67131949       4.99536599       14       0.13666448       0.09075006      -0.12041416
In       5.06200126       3.71279245      10.34595157       15       0.13666448      -0.09075006       0.12041416
O        4.15143560       4.58594383      11.82201977       16       0.16566246       0.13909350       0.16520039
O        1.67778968       2.79816812       3.51929779       17       0.16566246      -0.13909350      -0.16520039
O        0.79585623       2.12457318      11.18995657       18      -0.16566246       0.13909350      -0.16520039
O        3.26950214       0.33679747       4.15136099       19      -0.16566246      -0.13909350       0.16520039
O        0.79585623       0.33679747       3.51929779       20      -0.16566246      -0.13909350      -0.16520039
O        3.26950214       2.12457318      11.82201977       21      -0.16566246       0.13909350       0.16520039
O        4.15143560       2.79816812       4.15136099       22       0.16566246      -0.13909350       0.16520039
O        1.67778968       4.58594383      11.18995657       23       0.16566246       0.13909350      -0.16520039
O        3.41848259       2.60456924       9.61000859       24      -0.17664083      -0.23826093       0.05599844
O        0.94483667       4.77954271       5.73130897       25      -0.17664083       0.23826093      -0.05599844
O        1.52880924       0.14319859      13.40196775       26       0.17664083      -0.23826093      -0.05599844
O        4.00245515       2.31817206       1.93934981       27       0.17664083       0.23826093       0.05599844
O        1.52880924       2.31817206       5.73130897       28       0.17664083       0.23826093      -0.05599844
O        4.00245515       0.14319859       9.61000859       29       0.17664083      -0.23826093       0.05599844
O        3.41848259       4.77954271       1.93934981       30      -0.17664083       0.23826093       0.05599844
O        0.94483667       2.60456924      13.40196775       31      -0.17664083      -0.23826093      -0.05599844
O        3.35492172       3.27745383      14.59541552       32      -0.06112239      -0.01559890       0.03603694
O        0.88127581       4.10665812       0.74590204       33      -0.06112239       0.01559890      -0.03603694
O        1.59237010       0.81608318       8.41656082       34       0.06112239      -0.01559890      -0.03603694
O        4.06601602       1.64528747       6.92475674       35       0.06112239       0.01559890       0.03603694
O        1.59237010       1.64528747       0.74590204       36       0.06112239       0.01559890      -0.03603694
O        4.06601602       0.81608318      14.59541552       37       0.06112239      -0.01559890       0.03603694
O        3.35492172       4.10665812       6.92475674       38      -0.06112239       0.01559890       0.03603694
O        0.88127581       3.27745383       8.41656082       39      -0.06112239      -0.01559890      -0.03603694
40
Lattice="4.9457132343500465 2.1179233397051867e-42 -4.590950354152066e-78 -2.0855657919898674e-42 4.924198499859433 -1.0865975021727225e-35 1.493310306007917e-80 -3.204370557367387e-35 15.34167291052414" Properties=species:S:1:pos:R:3:spacegroup_kinds:I:1:forces:R:3 spacegroup="P 1" unit_cell=conventional occupancy="_JSON {\"0\": {\"In\": 1}, \"1\": {\"In\": 1}, \"2\": {\"In\": 1}, \"3\": {\"In\": 1}, \"4\": {\"In\": 1}, \"5\": {\"In\": 1}, \"6\": {\"In\": 1}, \"7\": {\"In\": 1}, \"8\": {\"In\": 1}, \"9\": {\"In\": 1}, \"10\": {\"In\": 1}, \"11\": {\"In\": 1}, \"12\": {\"In\": 1}, \"13\": {\"In\": 1}, \"14\": {\"In\": 1}, \"15\": {\"In\": 1}, \"16\": {\"O\": 1}, \"17\": {\"O\": 1}, \"18\": {\"O\": 1}, \"19\": {\"O\": 1}, \"20\": {\"O\": 1}, \"21\": {\"O\": 1}, \"22\": {\"O\": 1}, \"23\": {\"O\": 1}, \"24\": {\"O\": 1}, \"25\": {\"O\": 1}, \"26\": {\"O\": 1}, \"27\": {\"O\": 1}, \"28\": {\"O\": 1}, \"29\": {\"O\": 1}, \"30\": {\"O\": 1}, \"31\": {\"O\": 1}, \"32\": {\"O\": 1}, \"33\": {\"O\": 1}, \"34\": {\"O\": 1}, \"35\": {\"O\": 1}, \"36\": {\"O\": 1}, \"37\": {\"O\": 1}, \"38\": {\"O\": 1}, \"39\": {\"O\": 1}}" n_minim_iter=5 energy=-45169.68266100404 stress="0.3090726061211064 1.505596179493869e-13 -8.247024443338739e-13 1.505596179493869e-13 0.3089748330178093 -1.2973791234897907e-12 -8.247024443338739e-13 -1.2973791234897907e-12 0.30899734202541396" free_energy=-45169.68266100404 pbc="T T T"
In       2.56959163       4.06601587       8.77802194        0      -0.01127060       0.02079415       0.08292793
In       0.09673502       3.32028188       6.56365097        1      -0.01127060      -0.02079415      -0.08292793
In       2.37612160       1.60391662      14.23448743        2       0.01127060       0.02079415      -0.08292793
In       4.84897822       0.85818263       1.10718548        3       0.01127060      -0.02079415       0.08292793
In       2.37612160       0.85818263       6.56365097        4       0.01127060      -0.02079415      -0.08292793
In       4.84897822       1.60391662       8.77802194        5       0.01127060       0.02079415       0.08292793
In       2.56959163       3.32028188       1.10718548        6      -0.01127060      -0.02079415       0.08292793
In       0.09673502       4.06601587      14.23448743        7      -0.01127060       0.02079415      -0.08292793
In       2.58985539       3.71434582      12.66241827        8       0.06537232      -0.09741427       0.05070662
In       5.06271200       3.67195193       2.67925464        9       0.06537232       0.09741427      -0.05070662
In       2.35585785       1.25224657      10.35009110       10      -0.06537232      -0.09741427      -0.05070662
In      -0.11699877       1.20985268       4.99158181       11      -0.06537232       0.09741427       0.05070662
In       2.35585785       1.20985268       2.67925464       12      -0.06537232       0.09741427      -0.05070662
In      -0.11699877       1.25224657      12.66241827       13      -0.06537232      -0.09741427       0.05070662
In       2.58985539       3.67195193       4.99158181       14       0.06537232       0.09741427       0.05070662
In       5.06271200       3.71434582      10.35009110       15       0.06537232      -0.09741427      -0.05070662
O        4.15308238       4.58875468      11.82505963       16       0.12032439       0.08737565      -0.03244347
O        1.68022576       2.79754307       3.51661328       17       0.12032439      -0.08737565       0.03244347
O        0.79263086       2.12665543      11.18744974       18      -0.12032439       0.08737565       0.03244347
O        3.26548747       0.33544382       4.15422317       19      -0.12032439      -0.08737565      -0.03244347
O        0.79263086       0.33544382       3.51661328       20      -0.12032439      -0.08737565       0.03244347
O        3.26548747       2.12665543      11.82505963       21      -0.12032439       0.08737565      -0.03244347
O        4.15308238       2.79754307       4.15422317       22       0.12032439      -0.08737565      -0.03244347
O        1.68022576       4.58875468      11.18744974       23       0.12032439       0.08737565       0.03244347
O        3.41339728       2.60164733       9.61129844       24      -0.19271187      -0.06116033      -0.03006759
O        0.94054066       4.78465042       5.73037447       25      -0.19271187       0.06116033       0.03006759
O        1.53231595       0.13954808      13.40121093       26       0.19271187      -0.06116033       0.03006759
O        4.00517257       2.32255117       1.94046198       27       0.19271187       0.06116033      -0.03006759
O        1.53231595       2.32255117       5.73037447       28       0.19271187       0.06116033       0.03006759
O        4.00517257       0.13954808       9.61129844       29       0.19271187      -0.06116033      -0.03006759
O        3.41339728       4.78465042       1.94046198       30      -0.19271187       0.06116033      -0.03006759
O        0.94054066       2.60164733      13.40121093       31      -0.19271187      -0.06116033       0.03006759
O        3.35285424       3.27847488      14.59671640       32       0.02748107       0.07603520       0.01400421
O        0.87999763       4.10782287       0.74495651       33       0.02748107      -0.07603520      -0.01400421
O        1.59285899       0.81637563       8.41579296       34      -0.02748107       0.07603520      -0.01400421
O        4.06571561       1.64572362       6.92587995       35      -0.02748107      -0.07603520       0.01400421
O        1.59285899       1.64572362       0.74495651       36      -0.02748107      -0.07603520      -0.01400421
O        4.06571561       0.81637563      14.59671640       37      -0.02748107       0.07603520       0.01400421
O        3.35285424       4.10782287       6.92587995       38       0.02748107      -0.07603520       0.01400421
O        0.87999763       3.27847488       8.41579296       39       0.02748107       0.07603520      -0.01400421
40