40
Lattice="5.255200528758439 4.5764743378445494e-42 -5.913238078240445e-57 -4.166782067402507e-42 5.558598773058127 -8.44770331998108e-15 -1.6669698727966275e-57 2.079434687287966e-14 13.682704829458125" Properties=species:S:1:pos:R:3:spacegroup_kinds:I:1:forces:R:3 spacegroup="P 1" unit_cell=conventional occupancy="_JSON {\"0\": {\"In\": 1}, \"1\": {\"In\": 1}, \"2\": {\"In\": 1}, \"3\": {\"In\": 1}, \"4\": {\"In\": 1}, \"5\": {\"In\": 1}, \"6\": {\"In\": 1}, \"7\": {\"In\": 1}, \"8\": {\"In\": 1}, \"9\": {\"In\": 1}, \"10\": {\"In\": 1}, \"11\": {\"In\": 1}, \"12\": {\"In\": 1}, \"13\": {\"In\": 1}, \"14\": {\"In\": 1}, \"15\": {\"In\": 1}, \"16\": {\"O\": 1}, \"17\": {\"O\": 1}, \"18\": {\"O\": 1}, \"19\": {\"O\": 1}, \"20\": {\"O\": 1}, \"21\": {\"O\": 1}, \"22\": {\"O\": 1}, \"23\": {\"O\": 1}, \"24\": {\"O\": 1}, \"25\": {\"O\": 1}, \"26\": {\"O\": 1}, \"27\": {\"O\": 1}, \"28\": {\"O\": 1}, \"29\": {\"O\": 1}, \"30\": {\"O\": 1}, \"31\": {\"O\": 1}, \"32\": {\"O\": 1}, \"33\": {\"O\": 1}, \"34\": {\"O\": 1}, \"35\": {\"O\": 1}, \"36\": {\"O\": 1}, \"37\": {\"O\": 1}, \"38\": {\"O\": 1}, \"39\": {\"O\": 1}}" n_minim_iter=13 energy=-45168.110368145426 stress="0.3746489429434907 -3.4493187149725674e-12 -1.5975846159138392e-12 -3.4493187149725674e-12 0.3746384388025614 6.852581502623962e-13 -1.5975846159138392e-12 6.852581502623962e-13 0.37464750685293363" free_energy=-45168.110368145426 pbc="T T T"
In       2.89198892       4.38668449       7.89575003        0       0.00215217      -0.00310306       0.00273167
In       0.26438866       3.95121367       5.78695480        1       0.00215217       0.00310306      -0.00273167
In       2.36321161       1.60738510      12.62830721        2      -0.00215217      -0.00310306      -0.00273167
In       4.99081187       1.17191428       1.05439762        3      -0.00215217       0.00310306       0.00273167
In       2.36321161       1.17191428       5.78695480        4      -0.00215217       0.00310306      -0.00273167
In       4.99081187       1.60738510       7.89575003        5      -0.00215217      -0.00310306       0.00273167
In       2.89198892       3.95121367       1.05439762        6       0.00215217       0.00310306       0.00273167
In       0.26438866       4.38668449      12.62830721        7       0.00215217      -0.00310306      -0.00273167
In       3.00068623       4.07827206      11.20971458        8       0.00063493       0.00410180       0.00112628
In       5.62828649       4.25962610       2.47299025        9       0.00063493      -0.00410180      -0.00112628
In       2.25451430       1.29897267       9.31434266       10      -0.00063493       0.00410180      -0.00112628
In      -0.37308596       1.48032671       4.36836216       11      -0.00063493      -0.00410180       0.00112628
In       2.25451430       1.48032671       2.47299025       12      -0.00063493      -0.00410180      -0.00112628
In      -0.37308596       1.29897267      11.20971458       13      -0.00063493       0.00410180       0.00112628
In       3.00068623       4.25962610       4.36836216       14       0.00063493      -0.00410180       0.00112628
In       5.62828649       4.07827206       9.31434266       15       0.00063493       0.00410180      -0.00112628
O        4.72875470       4.91861419      10.87436529       16       0.00115429       0.00720194      -0.00123173
O        2.10115443       3.41928397       2.80833954       17       0.00115428      -0.00720194       0.00123173
O        0.52644583       2.13931480       9.64969196       18      -0.00115429       0.00720194       0.00123173
O        3.15404610       0.63998459       4.03301287       19      -0.00115428      -0.00720194      -0.00123173
O        0.52644583       0.63998459       2.80833954       20      -0.00115429      -0.00720194       0.00123173
O        3.15404610       2.13931480      10.87436529       21      -0.00115429       0.00720194      -0.00123173
O        4.72875470       3.41928397       4.03301287       22       0.00115429      -0.00720194      -0.00123173
O        2.10115443       4.91861419       9.64969196       23       0.00115429       0.00720194       0.00123173
O        3.25225591       2.39433011       8.15518873       24      -0.00085077       0.00110852      -0.00074270
O        0.62465565       5.94356805       5.52751610       25      -0.00085077      -0.00110852       0.00074270
O        2.00294462      -0.38496927      12.36886852       26       0.00085077       0.00110852       0.00074270
O        4.63054488       3.16426866       1.31383631       27       0.00085077      -0.00110852      -0.00074270
O        2.00294462       3.16426866       5.52751610       28       0.00085077      -0.00110852       0.00074270
O        4.63054488      -0.38496927       8.15518873       29       0.00085077       0.00110852      -0.00074270
O        3.25225591       5.94356805       1.31383631       30      -0.00085077      -0.00110852      -0.00074270
O        0.62465565       2.39433011      12.36886852       31      -0.00085077       0.00110852       0.00074270
O        3.72840271       3.97195051      13.01173739       32      -0.00101958       0.00019896       0.00058888
O        1.10080244       4.36594765       0.67096744       33      -0.00101958      -0.00019896      -0.00058888
O        1.52679782       1.19265112       7.51231986       34       0.00101958       0.00019896      -0.00058888
O        4.15439809       1.58664827       6.17038497       35       0.00101958      -0.00019896       0.00058888
O        1.52679782       1.58664827       0.67096744       36       0.00101958      -0.00019896      -0.00058888
O        4.15439809       1.19265112      13.01173739       37       0.00101958       0.00019896       0.00058888
O        3.72840271       4.36594765       6.17038497       38      -0.00101958      -0.00019896       0.00058888
O        1.10080244       3.97195051       7.51231986       39      -0.00101958       0.00019896      -0.00058888
