40
Lattice="5.2691646854566025 5.421526833366085e-42 -6.348863463795915e-57 -7.802113523715584e-42 5.703696515105397 -8.668216209516342e-15 -2.9453430375312745e-57 2.1529798763937617e-14 14.166633043367877" Properties=species:S:1:pos:R:3:spacegroup_kinds:I:1:forces:R:3 spacegroup="P 1" unit_cell=conventional occupancy="_JSON {\"0\": {\"In\": 1}, \"1\": {\"In\": 1}, \"2\": {\"In\": 1}, \"3\": {\"In\": 1}, \"4\": {\"In\": 1}, \"5\": {\"In\": 1}, \"6\": {\"In\": 1}, \"7\": {\"In\": 1}, \"8\": {\"In\": 1}, \"9\": {\"In\": 1}, \"10\": {\"In\": 1}, \"11\": {\"In\": 1}, \"12\": {\"In\": 1}, \"13\": {\"In\": 1}, \"14\": {\"In\": 1}, \"15\": {\"In\": 1}, \"16\": {\"O\": 1}, \"17\": {\"O\": 1}, \"18\": {\"O\": 1}, \"19\": {\"O\": 1}, \"20\": {\"O\": 1}, \"21\": {\"O\": 1}, \"22\": {\"O\": 1}, \"23\": {\"O\": 1}, \"24\": {\"O\": 1}, \"25\": {\"O\": 1}, \"26\": {\"O\": 1}, \"27\": {\"O\": 1}, \"28\": {\"O\": 1}, \"29\": {\"O\": 1}, \"30\": {\"O\": 1}, \"31\": {\"O\": 1}, \"32\": {\"O\": 1}, \"33\": {\"O\": 1}, \"34\": {\"O\": 1}, \"35\": {\"O\": 1}, \"36\": {\"O\": 1}, \"37\": {\"O\": 1}, \"38\": {\"O\": 1}, \"39\": {\"O\": 1}}" n_minim_iter=14 energy=-45161.6006266939 stress="0.38896038135462696 -2.0376839165002056e-12 1.0957457561409178e-12 -2.0376839165002056e-12 0.3889687814670709 8.499192657158379e-13 1.0957457561409178e-12 8.499192657158379e-13 0.38892295437666957" free_energy=-45161.6006266939 pbc="T T T"
In       2.84863164       4.50384406       8.10585758        0      -0.00101087      -0.00148078       0.00197792
In       0.21404930       4.05170071       6.06077546        1      -0.00101087       0.00148078      -0.00197792
In       2.42053305       1.65199580      13.14409199        2       0.00101087      -0.00148078      -0.00197792
In       5.05511539       1.19985246       1.02254106        3       0.00101087       0.00148078       0.00197792
In       2.42053305       1.19985246       6.06077546        4       0.00101087       0.00148078      -0.00197792
In       5.05511539       1.65199580       8.10585758        5       0.00101087      -0.00148078       0.00197792
In       2.84863164       4.05170071       1.02254106        6      -0.00101087       0.00148078       0.00197792
In       0.21404930       4.50384406      13.14409199        7      -0.00101087      -0.00148078      -0.00197792
In       2.81593537       4.07931675      11.69038818        8       0.00424187      -0.00272053       0.00831734
In       5.45051771       4.47622803       2.47624486        9       0.00424187       0.00272053      -0.00831734
In       2.45322931       1.22746849       9.55956138       10      -0.00424187      -0.00272053      -0.00831734
In      -0.18135303       1.62437977       4.60707166       11      -0.00424187       0.00272053       0.00831734
In       2.45322931       1.62437977       2.47624486       12      -0.00424187       0.00272053      -0.00831734
In      -0.18135303       1.22746849      11.69038818       13      -0.00424187      -0.00272053       0.00831734
In       2.81593537       4.47622803       4.60707166       14       0.00424187       0.00272053       0.00831734
In       5.45051771       4.07931675       9.55956138       15       0.00424187      -0.00272053      -0.00831734
O        4.61619147       4.85082478      11.32656992       16      -0.00058222      -0.00582961      -0.00159662
O        1.98160913       3.70471999       2.84006312       17      -0.00058222       0.00582961       0.00159662
O        0.65297322       1.99897652       9.92337964       18       0.00058222      -0.00582961       0.00159662
O        3.28755556       0.85287174       4.24325340       19       0.00058222       0.00582961      -0.00159662
O        0.65297322       0.85287174       2.84006312       20       0.00058222       0.00582961       0.00159662
O        3.28755556       1.99897652      11.32656992       21       0.00058222      -0.00582961      -0.00159662
O        4.61619147       3.70471999       4.24325340       22      -0.00058222       0.00582961      -0.00159662
O        1.98160913       4.85082478       9.92337964       23      -0.00058222      -0.00582961       0.00159662
O        3.33036790       2.54481251       8.41675852       24       0.00095381      -0.00730216       0.00137547
O        0.69578555       6.01073226       5.74987452       25       0.00095381       0.00730216      -0.00137547
O        1.93879679      -0.30703574      12.83319105       26      -0.00095381      -0.00730216      -0.00137547
O        4.57337913       3.15888400       1.33344200       27      -0.00095381       0.00730216       0.00137547
O        1.93879679       3.15888400       5.74987452       28      -0.00095381       0.00730216      -0.00137547
O        4.57337913      -0.30703574       8.41675852       29      -0.00095381      -0.00730216       0.00137547
O        3.33036790       6.01073226       1.33344200       30       0.00095381       0.00730216       0.00137547
O        0.69578555       2.54481251      12.83319105       31       0.00095381      -0.00730216      -0.00137547
O        3.67163755       4.02090672      13.44863259       32       0.00190155      -0.00200740       0.00227752
O        1.03705521       4.53463805       0.71800045       33       0.00190155       0.00200740      -0.00227752
O        1.59752714       1.16905846       7.80131697       34      -0.00190155      -0.00200740      -0.00227752
O        4.23210948       1.68278979       6.36531607       35      -0.00190155       0.00200740       0.00227752
O        1.59752714       1.68278979       0.71800045       36      -0.00190155       0.00200740      -0.00227752
O        4.23210948       1.16905846      13.44863259       37      -0.00190155      -0.00200740       0.00227752
O        3.67163755       4.53463805       6.36531607       38       0.00190155       0.00200740       0.00227752
O        1.03705521       4.02090672       7.80131697       39       0.00190155      -0.00200740      -0.00227752
