40
Lattice="4.067492817171656 9.093567433752249e-18 -6.38204533817048e-32 1.7343233558451724e-17 4.062390999862178 1.3255417346130322e-14 1.011386381588744e-32 -4.422659208217978e-14 16.301288143216727" Properties=species:S:1:pos:R:3:spacegroup_kinds:I:1:forces:R:3 spacegroup="P 1" unit_cell=conventional occupancy="_JSON {\"0\": {\"In\": 1}, \"1\": {\"In\": 1}, \"2\": {\"In\": 1}, \"3\": {\"In\": 1}, \"4\": {\"In\": 1}, \"5\": {\"In\": 1}, \"6\": {\"In\": 1}, \"7\": {\"In\": 1}, \"8\": {\"In\": 1}, \"9\": {\"In\": 1}, \"10\": {\"In\": 1}, \"11\": {\"In\": 1}, \"12\": {\"In\": 1}, \"13\": {\"In\": 1}, \"14\": {\"In\": 1}, \"15\": {\"In\": 1}, \"16\": {\"O\": 1}, \"17\": {\"O\": 1}, \"18\": {\"O\": 1}, \"19\": {\"O\": 1}, \"20\": {\"O\": 1}, \"21\": {\"O\": 1}, \"22\": {\"O\": 1}, \"23\": {\"O\": 1}, \"24\": {\"O\": 1}, \"25\": {\"O\": 1}, \"26\": {\"O\": 1}, \"27\": {\"O\": 1}, \"28\": {\"O\": 1}, \"29\": {\"O\": 1}, \"30\": {\"O\": 1}, \"31\": {\"O\": 1}, \"32\": {\"O\": 1}, \"33\": {\"O\": 1}, \"34\": {\"O\": 1}, \"35\": {\"O\": 1}, \"36\": {\"O\": 1}, \"37\": {\"O\": 1}, \"38\": {\"O\": 1}, \"39\": {\"O\": 1}}" n_minim_iter=5 energy=-45215.396357562466 stress="-3.8065012964049965 -1.5084798584893055e-12 1.289201654129874e-12 -1.5084798584893055e-12 -3.8064994321251127 2.0239588702831825e-13 1.289201654129874e-12 2.0239588702831825e-13 -3.8064667836703054" free_energy=-45215.396357562466 pbc="T T T"
In       1.96353752       3.04679091       9.23134332        0      -0.00636867       0.00000000      -0.00634574
In      -0.07020888       3.04679091       7.06996792        1      -0.00636867       0.00000000       0.00634574
In       2.10391896       1.01559541      15.22061199        2       0.00636867      -0.00000000       0.00634574
In       4.13766537       1.01559541       1.08069925        3       0.00636867       0.00000000      -0.00634574
In       2.10391896       1.01559541       7.06996792        4       0.00636867       0.00000000       0.00634574
In       4.13766537       1.01559541       9.23134332        5       0.00636867       0.00000000      -0.00634574
In       1.96353752       3.04679091       1.08069925        6      -0.00636866      -0.00000000      -0.00634574
In      -0.07020888       3.04679091      15.22061199        7      -0.00636866      -0.00000000       0.00634574
In       2.10391896       3.04679091      13.30666536        8       0.00636867      -0.00000000      -0.00634574
In       4.13766537       3.04679091       2.99464588        9       0.00636866      -0.00000000       0.00634574
In       1.96353752       1.01559541      11.14528996       10      -0.00636867       0.00000000       0.00634574
In      -0.07020888       1.01559541       5.15602129       11      -0.00636866      -0.00000000      -0.00634574
In       1.96353752       1.01559541       2.99464588       12      -0.00636867      -0.00000000       0.00634574
In      -0.07020888       1.01559541      13.30666536       13      -0.00636866       0.00000000      -0.00634574
In       2.10391896       3.04679091       5.15602129       14       0.00636866       0.00000000      -0.00634574
In       4.13766537       3.04679091      11.14528996       15       0.00636867       0.00000000       0.00634574
O        3.05060145       4.06238866      12.21664727       16      -0.00000000       0.00000000       0.00311638
O        1.01685504       2.03119316       4.08466398       17       0.00000000       0.00000000      -0.00311638
O        1.01685504       2.03119316      12.23530805       18       0.00000000       0.00000000      -0.00311638
O        3.05060145      -0.00000234       4.06600320       19      -0.00000000       0.00000000       0.00311638
O        1.01685504      -0.00000234       4.08466398       20       0.00000000      -0.00000000      -0.00311638
O        3.05060145       2.03119316      12.21664727       21      -0.00000000       0.00000000       0.00311638
O        3.05060145       2.03119316       4.06600320       22      -0.00000000       0.00000000       0.00311638
O        1.01685504       4.06238866      12.23530805       23      -0.00000000      -0.00000000      -0.00311638
O        3.05060145       2.03119316      10.18831664       24      -0.00000000      -0.00000000       0.00000000
O        1.01685504       4.06238866       6.11299460       25       0.00000000      -0.00000000       0.00000000
O        1.01685504      -0.00000234      14.26363868       26      -0.00000000       0.00000000       0.00000000
O        3.05060145       2.03119316       2.03767257       27       0.00000000      -0.00000000      -0.00000000
O        1.01685504       2.03119316       6.11299460       28      -0.00000000      -0.00000000      -0.00000000
O        3.05060145      -0.00000234      10.18831664       29      -0.00000000      -0.00000000       0.00000000
O        3.05060145       4.06238866       2.03767257       30       0.00000000       0.00000000       0.00000000
O        1.01685504       2.03119316      14.26363868       31      -0.00000000       0.00000000       0.00000000
O        3.05060145       2.03119316      16.31063009       32      -0.00000000       0.00000000      -0.00311638
O        1.01685504       4.06238866      -0.00931884       33       0.00000000      -0.00000000       0.00311638
O        1.01685504      -0.00000234       8.14132523       34       0.00000000      -0.00000000       0.00311638
O        3.05060145       2.03119316       8.15998601       35      -0.00000000      -0.00000000      -0.00311638
O        1.01685504       2.03119316      -0.00931884       36       0.00000000      -0.00000000       0.00311638
O        3.05060145      -0.00000234      16.31063009       37      -0.00000000       0.00000000      -0.00311638
O        3.05060145       4.06238866       8.15998601       38       0.00000000       0.00000000      -0.00311638
O        1.01685504       2.03119316       8.14132523       39       0.00000000      -0.00000000       0.00311638
