40
Lattice="5.202998501981532 3.765310648548404e-42 -5.0327523180357485e-57 -4.0047312171523324e-42 5.533835709336533 -8.410069552163919e-15 -1.7998697420996202e-57 2.063833339028028e-14 13.580047773438377" Properties=species:S:1:pos:R:3:spacegroup_kinds:I:1:forces:R:3 spacegroup="P 1" unit_cell=conventional occupancy="_JSON {\"0\": {\"In\": 1}, \"1\": {\"In\": 1}, \"2\": {\"In\": 1}, \"3\": {\"In\": 1}, \"4\": {\"In\": 1}, \"5\": {\"In\": 1}, \"6\": {\"In\": 1}, \"7\": {\"In\": 1}, \"8\": {\"In\": 1}, \"9\": {\"In\": 1}, \"10\": {\"In\": 1}, \"11\": {\"In\": 1}, \"12\": {\"In\": 1}, \"13\": {\"In\": 1}, \"14\": {\"In\": 1}, \"15\": {\"In\": 1}, \"16\": {\"O\": 1}, \"17\": {\"O\": 1}, \"18\": {\"O\": 1}, \"19\": {\"O\": 1}, \"20\": {\"O\": 1}, \"21\": {\"O\": 1}, \"22\": {\"O\": 1}, \"23\": {\"O\": 1}, \"24\": {\"O\": 1}, \"25\": {\"O\": 1}, \"26\": {\"O\": 1}, \"27\": {\"O\": 1}, \"28\": {\"O\": 1}, \"29\": {\"O\": 1}, \"30\": {\"O\": 1}, \"31\": {\"O\": 1}, \"32\": {\"O\": 1}, \"33\": {\"O\": 1}, \"34\": {\"O\": 1}, \"35\": {\"O\": 1}, \"36\": {\"O\": 1}, \"37\": {\"O\": 1}, \"38\": {\"O\": 1}, \"39\": {\"O\": 1}}" n_minim_iter=1 energy=-45170.718477616945 stress="0.3739977585090531 -7.132560970425278e-13 2.5606951906881373e-12 -7.132560970425278e-13 0.3717495261438118 -4.829845998376341e-13 2.5606951906881373e-12 -4.829845998376341e-13 0.3488346072246365" free_energy=-45170.718477616945 pbc="T T T"
In       2.79998278       4.36440948       7.85169836        0       0.38447440      -0.16586583      -0.50925250
In       0.19848353       3.93634408       5.72834941        1       0.38447440       0.16586583       0.50925250
In       2.40301572       1.59749162      12.51837330        2      -0.38447440      -0.16586583       0.50925250
In       5.00451497       1.16942623       1.06167448        3      -0.38447440       0.16586583      -0.50925250
In       2.40301572       1.16942623       5.72834941        4      -0.38447440       0.16586583       0.50925250
In       5.00451497       1.59749162       7.85169836        5      -0.38447440      -0.16586583      -0.50925250
In       2.79998278       3.93634408       1.06167448        6       0.38447440       0.16586583      -0.50925250
In       0.19848353       4.36440948      12.51837330        7       0.38447440      -0.16586583       0.50925250
In       2.90791839       4.02212147      11.15122110        8       0.17815491       0.32637758       0.18306153
In       5.50941764       4.27863210       2.42882667        9       0.17815491      -0.32637758      -0.18306153
In       2.29508011       1.25520361       9.21885056       10      -0.17815491       0.32637758      -0.18306153
In      -0.30641914       1.51171424       4.36119722       11      -0.17815491      -0.32637758       0.18306153
In       2.29508011       1.51171424       2.42882667       12      -0.17815491      -0.32637758      -0.18306153
In      -0.30641914       1.25520361      11.15122110       13      -0.17815491       0.32637758       0.18306153
In       2.90791839       4.27863210       4.36119722       14       0.17815491      -0.32637758       0.18306153
In       5.50941764       4.02212147       9.21885056       15       0.17815491       0.32637758      -0.18306153
O        4.65165326       4.85621719      10.77255082       16      -0.28589848      -0.12111494       0.22326357
O        2.05015400       3.44453637       2.80749695       17      -0.28589848       0.12111494      -0.22326357
O        0.55134525       2.08929934       9.59752084       18       0.28589848      -0.12111494      -0.22326357
O        3.15284450       0.67761852       3.98252694       19       0.28589848       0.12111494       0.22326357
O        0.55134525       0.67761852       2.80749695       20       0.28589848       0.12111494      -0.22326357
O        3.15284450       2.08929934      10.77255082       21       0.28589848      -0.12111494       0.22326357
O        4.65165326       3.44453637       3.98252694       22      -0.28589848       0.12111494       0.22326357
O        2.05015400       4.85621719       9.59752084       23      -0.28589848      -0.12111494      -0.22326357
O        3.28961949       2.42584392       8.11347463       24      -0.47419007      -0.09147628      -0.19393998
O        0.68812024       5.87490964       5.46657314       25      -0.47419007       0.09147628       0.19393998
O        1.91337901      -0.34107393      12.25659703       26       0.47419007      -0.09147628       0.19393998
O        4.51487826       3.10799178       1.32345074       27       0.47419007       0.09147628      -0.19393998
O        1.91337901       3.10799178       5.46657314       28       0.47419007       0.09147628       0.19393998
O        4.51487826      -0.34107393       8.11347463       29       0.47419007      -0.09147628      -0.19393998
O        3.28961949       5.87490964       1.32345074       30      -0.47419007       0.09147628      -0.19393998
O        0.68812024       2.42584392      12.25659703       31      -0.47419007      -0.09147628       0.19393998
O        3.61181957       3.90377958      12.92257467       32       0.21942015       0.42714773       0.30823606
O        1.01032032       4.39697399       0.65747311       33       0.21942015      -0.42714773      -0.30823606
O        1.59117893       1.13686172       7.44749699       34      -0.21942015       0.42714773      -0.30823606
O        4.19267818       1.63005613       6.13255078       35      -0.21942015      -0.42714773       0.30823606
O        1.59117893       1.63005613       0.65747311       36      -0.21942015      -0.42714773      -0.30823606
O        4.19267818       1.13686172      12.92257467       37      -0.21942015       0.42714773       0.30823606
O        3.61181957       4.39697399       6.13255078       38       0.21942015      -0.42714773       0.30823606
O        1.01032032       3.90377958       7.44749699       39       0.21942015       0.42714773      -0.30823606
40
Lattice="5.195173293848123 3.7577992901399294e-42 -4.8958190261226397e-57 -3.969101874699714e-42 5.527559625251184 -8.400531447593165e-15 -1.4531994909695822e-57 2.0692888200550062e-14 13.615944903101154" Properties=species:S:1:pos:R:3:spacegroup_kinds:I:1:forces:R:3 spacegroup="P 1" unit_cell=conventional occupancy="_JSON {\"0\": {\"In\": 1}, \"1\": {\"In\": 1}, \"2\": {\"In\": 1}, \"3\": {\"In\": 1}, \"4\": {\"In\": 1}, \"5\": {\"In\": 1}, \"6\": {\"In\": 1}, \"7\": {\"In\": 1}, \"8\": {\"In\": 1}, \"9\": {\"In\": 1}, \"10\": {\"In\": 1}, \"11\": {\"In\": 1}, \"12\": {\"In\": 1}, \"13\": {\"In\": 1}, \"14\": {\"In\": 1}, \"15\": {\"In\": 1}, \"16\": {\"O\": 1}, \"17\": {\"O\": 1}, \"18\": {\"O\": 1}, \"19\": {\"O\": 1}, \"20\": {\"O\": 1}, \"21\": {\"O\": 1}, \"22\": {\"O\": 1}, \"23\": {\"O\": 1}, \"24\": {\"O\": 1}, \"25\": {\"O\": 1}, \"26\": {\"O\": 1}, \"27\": {\"O\": 1}, \"28\": {\"O\": 1}, \"29\": {\"O\": 1}, \"30\": {\"O\": 1}, \"31\": {\"O\": 1}, \"32\": {\"O\": 1}, \"33\": {\"O\": 1}, \"34\": {\"O\": 1}, \"35\": {\"O\": 1}, \"36\": {\"O\": 1}, \"37\": {\"O\": 1}, \"38\": {\"O\": 1}, \"39\": {\"O\": 1}}" n_minim_iter=2 energy=-45170.7332353772 stress="0.36040348331189087 -6.809742127834212e-13 6.436160212486549e-14 -6.809742127834212e-13 0.3588971960631213 -4.074019678455943e-12 6.436160212486549e-14 -4.074019678455943e-12 0.3638960475025525" free_energy=-45170.7332353772 pbc="T T T"
In       2.79593339       4.35938988       7.87223822        0       0.43853131      -0.12280316      -0.53717123
In       0.19834674       3.93194956       5.74370668        1       0.43853131       0.12280316       0.53717123
In       2.39923990       1.59561007      12.55167913        2      -0.43853131      -0.12280316       0.53717123
In       4.99682655       1.16816975       1.06426577        3      -0.43853131       0.12280316      -0.53717123
In       2.39923990       1.16816975       5.74370668        4      -0.43853131       0.12280316       0.53717123
In       4.99682655       1.59561007       7.87223822        5      -0.43853131      -0.12280316      -0.53717123
In       2.79593339       3.93194956       1.06426577        6       0.43853131       0.12280316      -0.53717123
In       0.19834674       4.35938988      12.55167913        7       0.43853131      -0.12280316       0.53717123
In       2.90361988       4.01769720      11.18077526        8       0.12402815       0.35573194       0.16666876
In       5.50120653       4.27364223       2.43516964        9       0.12402815      -0.35573194      -0.16666876
In       2.29155342       1.25391739       9.24314209       10      -0.12402815       0.35573194      -0.16666876
In      -0.30603323       1.50986242       4.37280281       11      -0.12402815      -0.35573194       0.16666876
In       2.29155342       1.50986242       2.43516964       12      -0.12402815      -0.35573194      -0.16666876
In      -0.30603323       1.25391739      11.18077526       13      -0.12402815       0.35573194       0.16666876
In       2.90361988       4.27364223       4.37280281       14       0.12402815      -0.35573194       0.16666876
In       5.50120653       4.01769720       9.24314209       15       0.12402815       0.35573194      -0.16666876
O        4.64453700       4.85065865      10.80112100       16      -0.21774716      -0.13260116       0.22142452
O        2.04695035       3.44068079       2.81482390       17      -0.21774716       0.13260116      -0.22142452
O        0.55063630       2.08687884       9.62279635       18       0.21774716      -0.13260116      -0.22142452
O        3.14822295       0.67690098       3.99314855       19       0.21774716       0.13260116       0.22142452
O        0.55063630       0.67690098       2.81482390       20       0.21774716       0.13260116      -0.22142452
O        3.14822295       2.08687884      10.80112100       21       0.21774716      -0.13260116       0.22142452
O        4.64453700       3.44068079       3.99314855       22      -0.21774716       0.13260116       0.22142452
O        2.04695035       4.85065865       9.62279635       23      -0.21774716      -0.13260116      -0.22142452
O        3.28447250       2.42305421       8.13483965       24      -0.40674595      -0.05790520      -0.22459213
O        0.68688585       5.86828523       5.48110525       25      -0.40674595       0.05790520       0.22459213
O        1.91070079      -0.34072560      12.28907771       26       0.40674595      -0.05790520       0.22459213
O        4.50828744       3.10450541       1.32686720       27       0.40674595       0.05790520      -0.22459213
O        1.91070079       3.10450541       5.48110525       28       0.40674595       0.05790520       0.22459213
O        4.50828744      -0.34072560       8.13483965       29       0.40674595      -0.05790520      -0.22459213
O        3.28447250       5.86828523       1.32686720       30      -0.40674595       0.05790520      -0.22459213
O        0.68688585       2.42305421      12.28907771       31      -0.40674595      -0.05790520       0.22459213
O        3.60647976       3.89953193      12.95686405       32       0.20239705       0.31036140       0.36038548
O        1.00889312       4.39180750       0.65908085       33       0.20239705      -0.31036140      -0.36038548
O        1.58869353       1.13575212       7.46705330       34      -0.20239705       0.31036140      -0.36038548
O        4.18628018       1.62802769       6.14889160       35      -0.20239705      -0.31036140       0.36038548
O        1.58869353       1.62802769       0.65908085       36      -0.20239705      -0.31036140      -0.36038548
O        4.18628018       1.13575212      12.95686405       37      -0.20239705       0.31036140       0.36038548
O        3.60647976       4.39180750       6.14889160       38       0.20239705      -0.31036140       0.36038548
O        1.00889312       3.89953193       7.46705330       39       0.20239705       0.31036140      -0.36038548
40
Lattice="5.185625454385635 3.7997785717708064e-42 -4.958897355666101e-57 -4.0975385507360206e-42 5.538678367485121 -8.417429201778783e-15 -1.448332051511915e-57 2.068937132896611e-14 13.613630797440587" Properties=species:S:1:pos:R:3:spacegroup_kinds:I:1:forces:R:3 spacegroup="P 1" unit_cell=conventional occupancy="_JSON {\"0\": {\"In\": 1}, \"1\": {\"In\": 1}, \"2\": {\"In\": 1}, \"3\": {\"In\": 1}, \"4\": {\"In\": 1}, \"5\": {\"In\": 1}, \"6\": {\"In\": 1}, \"7\": {\"In\": 1}, \"8\": {\"In\": 1}, \"9\": {\"In\": 1}, \"10\": {\"In\": 1}, \"11\": {\"In\": 1}, \"12\": {\"In\": 1}, \"13\": {\"In\": 1}, \"14\": {\"In\": 1}, \"15\": {\"In\": 1}, \"16\": {\"O\": 1}, \"17\": {\"O\": 1}, \"18\": {\"O\": 1}, \"19\": {\"O\": 1}, \"20\": {\"O\": 1}, \"21\": {\"O\": 1}, \"22\": {\"O\": 1}, \"23\": {\"O\": 1}, \"24\": {\"O\": 1}, \"25\": {\"O\": 1}, \"26\": {\"O\": 1}, \"27\": {\"O\": 1}, \"28\": {\"O\": 1}, \"29\": {\"O\": 1}, \"30\": {\"O\": 1}, \"31\": {\"O\": 1}, \"32\": {\"O\": 1}, \"33\": {\"O\": 1}, \"34\": {\"O\": 1}, \"35\": {\"O\": 1}, \"36\": {\"O\": 1}, \"37\": {\"O\": 1}, \"38\": {\"O\": 1}, \"39\": {\"O\": 1}}" n_minim_iter=3 energy=-45170.76516338383 stress="0.33217625934946526 2.2678020852606735e-12 2.8600036718056252e-12 2.2678020852606735e-12 0.3782621687874148 -1.6601904221711086e-12 2.8600036718056252e-12 -1.6601904221711086e-12 0.3545596407230629" free_energy=-45170.76516338383 pbc="T T T"
In       2.79340777       4.36737187       7.86763523        0       0.23351011      -0.05147061      -0.19863043
In       0.20059504       3.94064568       5.74599557        1       0.23351011       0.05147061       0.19863043
In       2.39221769       1.59803269      12.55281097        2      -0.23351011      -0.05147061       0.19863043
In       4.98503041       1.17130650       1.06081983        3      -0.23351011       0.05147061      -0.19863043
In       2.39221769       1.17130650       5.74599557        4      -0.23351011       0.05147061       0.19863043
In       4.98503041       1.59803269       7.86763523        5      -0.23351011      -0.05147061      -0.19863043
In       2.79340777       3.94064568       1.06081983        6       0.23351011       0.05147061      -0.19863043
In       0.20059504       4.36737187      12.55281097        7       0.23351011      -0.05147061       0.19863043
In       2.89908421       4.02792093      11.17991049        8       0.10548048       0.10057137       0.10336702
In       5.49189693       4.28009663       2.43372031        9       0.10548048      -0.10057137      -0.10336702
In       2.28654125       1.25858174       9.24053571       10      -0.10548048       0.10057137      -0.10336702
In      -0.30627148       1.51075744       4.37309509       11      -0.10548048      -0.10057137       0.10336702
In       2.28654125       1.51075744       2.43372031       12      -0.10548048      -0.10057137      -0.10336702
In      -0.30627148       1.25858174      11.17991049       13      -0.10548048       0.10057137       0.10336702
In       2.89908421       4.28009663       4.37309509       14       0.10548048      -0.10057137       0.10336702
In       5.49189693       4.02792093       9.24053571       15       0.10548048       0.10057137      -0.10336702
O        4.63461932       4.85961781      10.80064310       16      -0.10910723      -0.01212225       0.30671399
O        2.04180659       3.44839974       2.81298770       17      -0.10910723       0.01212225      -0.30671399
O        0.55100613       2.09027863       9.61980310       18       0.10910723      -0.01212225      -0.30671399
O        3.14381886       0.67906056       3.99382770       19       0.10910723       0.01212225       0.30671399
O        0.55100613       0.67906056       2.81298770       20       0.10910723       0.01212225      -0.30671399
O        3.14381886       2.09027863      10.80064310       21       0.10910723      -0.01212225       0.30671399
O        4.63461932       3.44839974       3.99382770       22      -0.10910723       0.01212225       0.30671399
O        2.04180659       4.85961781       9.61980310       23      -0.10910723      -0.01212225      -0.30671399
O        3.27590823       2.42754529       8.13210893       24      -0.31507616       0.03524139      -0.23618939
O        0.68309550       5.88047226       5.48152187       25      -0.31507616      -0.03524139       0.23618939
O        1.90971722      -0.34179389      12.28833726       26       0.31507616       0.03524139       0.23618939
O        4.50252995       3.11113308       1.32529353       27       0.31507616      -0.03524139      -0.23618939
O        1.90971722       3.11113308       5.48152187       28       0.31507616      -0.03524139       0.23618939
O        4.50252995      -0.34179389       8.13210893       29       0.31507616       0.03524139      -0.23618939
O        3.27590823       5.88047226       1.32529353       30      -0.31507616      -0.03524139      -0.23618939
O        0.68309550       2.42754529      12.28833726       31      -0.31507616       0.03524139       0.23618939
O        3.60109489       3.90937188      12.95682259       32       0.33749108       0.21568866       0.06367756
O        1.00828216       4.39864567       0.65680821       33       0.33749108      -0.21568866      -0.06367756
O        1.58453057       1.14003270       7.46362361       34      -0.33749108       0.21568866      -0.06367756
O        4.17734329       1.62930648       6.15000719       35      -0.33749108      -0.21568866       0.06367756
O        1.58453057       1.62930648       0.65680821       36      -0.33749108      -0.21568866      -0.06367756
O        4.17734329       1.14003270      12.95682259       37      -0.33749108       0.21568866       0.06367756
O        3.60109489       4.39864567       6.15000719       38       0.33749108      -0.21568866       0.06367756
O        1.00828216       3.90937188       7.46362361       39       0.33749108       0.21568866      -0.06367756
40
Lattice="5.1991644255189495 3.816132682556562e-42 -4.9814009504549396e-57 -4.0808687159521066e-42 5.5251120744455795 -8.396811772201849e-15 -1.4455634479478882e-57 2.0686162968514054e-14 13.611519692469594" Properties=species:S:1:pos:R:3:spacegroup_kinds:I:1:forces:R:3 spacegroup="P 1" unit_cell=conventional occupancy="_JSON {\"0\": {\"In\": 1}, \"1\": {\"In\": 1}, \"2\": {\"In\": 1}, \"3\": {\"In\": 1}, \"4\": {\"In\": 1}, \"5\": {\"In\": 1}, \"6\": {\"In\": 1}, \"7\": {\"In\": 1}, \"8\": {\"In\": 1}, \"9\": {\"In\": 1}, \"10\": {\"In\": 1}, \"11\": {\"In\": 1}, \"12\": {\"In\": 1}, \"13\": {\"In\": 1}, \"14\": {\"In\": 1}, \"15\": {\"In\": 1}, \"16\": {\"O\": 1}, \"17\": {\"O\": 1}, \"18\": {\"O\": 1}, \"19\": {\"O\": 1}, \"20\": {\"O\": 1}, \"21\": {\"O\": 1}, \"22\": {\"O\": 1}, \"23\": {\"O\": 1}, \"24\": {\"O\": 1}, \"25\": {\"O\": 1}, \"26\": {\"O\": 1}, \"27\": {\"O\": 1}, \"28\": {\"O\": 1}, \"29\": {\"O\": 1}, \"30\": {\"O\": 1}, \"31\": {\"O\": 1}, \"32\": {\"O\": 1}, \"33\": {\"O\": 1}, \"34\": {\"O\": 1}, \"35\": {\"O\": 1}, \"36\": {\"O\": 1}, \"37\": {\"O\": 1}, \"38\": {\"O\": 1}, \"39\": {\"O\": 1}}" n_minim_iter=4 energy=-45170.819796506636 stress="0.3421197690131746 -2.7778979934826045e-12 1.2259018005064024e-12 -2.7778979934826045e-12 0.34226454991438743 -3.861821061779946e-13 1.2259018005064024e-12 -3.861821061779946e-13 0.3420741076715595" free_energy=-45170.819796506636 pbc="T T T"
In       2.80531742       4.35530271       7.86072033        0      -0.14532198       0.09905493       0.36652151
In       0.20573520       3.93236540       5.75079936        1      -0.14532198      -0.09905493      -0.36652151
In       2.39384701       1.59274667      12.55655921        2       0.14532198       0.09905493      -0.36652151
In       4.99342922       1.16980937       1.05496048        3       0.14532198      -0.09905493       0.36652151
In       2.39384701       1.16980937       5.75079936        4       0.14532198      -0.09905493      -0.36652151
In       4.99342922       1.59274667       7.86072033        5       0.14532198       0.09905493       0.36652151
In       2.80531742       3.93236540       1.05496048        6      -0.14532198      -0.09905493       0.36652151
In       0.20573520       4.35530271      12.55655921        7      -0.14532198       0.09905493      -0.36652151
In       2.90809003       4.02176317      11.18000906        8       0.12165644      -0.00343294      -0.00899615
In       5.50767224       4.26590494       2.43151064        9       0.12165644       0.00343294       0.00899615
In       2.29107440       1.25920713       9.23727048       10      -0.12165644      -0.00343294       0.00899615
In      -0.30850781       1.50334891       4.37424921       11      -0.12165644       0.00343294      -0.00899615
In       2.29107440       1.50334891       2.43151064       12      -0.12165644       0.00343294       0.00899615
In      -0.30850781       1.25920713      11.18000906       13      -0.12165644      -0.00343294      -0.00899615
In       2.90809003       4.26590494       4.37424921       14       0.12165644       0.00343294      -0.00899615
In       5.50767224       4.02176317       9.23727048       15       0.12165644      -0.00343294       0.00899615
O        4.64428718       4.84634974      10.80148177       16       0.03964439       0.03470655       0.37635953
O        2.04470497       3.44131837       2.81003793       17       0.03964439      -0.03470655      -0.37635953
O        0.55487725       2.08379371       9.61579777       18      -0.03964439       0.03470655      -0.37635953
O        3.15445946       0.67876233       3.99572192       19      -0.03964439      -0.03470655       0.37635953
O        0.55487725       0.67876233       2.81003793       20      -0.03964439      -0.03470655      -0.37635953
O        3.15445946       2.08379371      10.80148177       21      -0.03964439       0.03470655       0.37635953
O        4.64428718       3.44131837       3.99572192       22       0.03964439      -0.03470655       0.37635953
O        2.04470497       4.84634974       9.61579777       23       0.03964439       0.03470655      -0.37635953
O        3.27993701       2.42097064       8.12839658       24      -0.23596030      -0.06161962      -0.17287541
O        0.68035480       5.86669747       5.48312312       25      -0.23596030       0.06161962       0.17287541
O        1.91922742      -0.34158540      12.28888296       26       0.23596030      -0.06161962       0.17287541
O        4.51880963       3.10414144       1.32263673       27       0.23596030       0.06161962      -0.17287541
O        1.91922742       3.10414144       5.48312312       28       0.23596030       0.06161962       0.17287541
O        4.51880963      -0.34158540       8.12839658       29       0.23596030      -0.06161962      -0.17287541
O        3.27993701       5.86669747       1.32263673       30      -0.23596030       0.06161962      -0.17287541
O        0.68035480       2.42097064      12.28888296       31      -0.23596030      -0.06161962       0.17287541
O        3.61283900       3.90333071      12.95853783       32       0.45958990       0.14065049      -0.28927466
O        1.01325679       4.38433740       0.65298186       33       0.45958990      -0.14065049       0.28927466
O        1.58632542       1.14077467       7.45874171       34      -0.45958990       0.14065049       0.28927466
O        4.18590764       1.62178136       6.15277798       35      -0.45958990      -0.14065049      -0.28927466
O        1.58632542       1.62178136       0.65298186       36      -0.45958990      -0.14065049       0.28927466
O        4.18590764       1.14077467      12.95853783       37      -0.45958990       0.14065049      -0.28927466
O        3.61283900       4.38433740       6.15277798       38       0.45958990      -0.14065049      -0.28927466
O        1.01325679       3.90333071       7.45874171       39       0.45958990       0.14065049       0.28927466
40
Lattice="5.202358799791962 3.9480451622748e-42 -5.178705721127304e-57 -3.8062523767138185e-42 5.526568106191141 -8.399024582428524e-15 -1.436269137535372e-57 2.0668014525576823e-14 13.599577995558294" Properties=species:S:1:pos:R:3:spacegroup_kinds:I:1:forces:R:3 spacegroup="P 1" unit_cell=conventional occupancy="_JSON {\"0\": {\"In\": 1}, \"1\": {\"In\": 1}, \"2\": {\"In\": 1}, \"3\": {\"In\": 1}, \"4\": {\"In\": 1}, \"5\": {\"In\": 1}, \"6\": {\"In\": 1}, \"7\": {\"In\": 1}, \"8\": {\"In\": 1}, \"9\": {\"In\": 1}, \"10\": {\"In\": 1}, \"11\": {\"In\": 1}, \"12\": {\"In\": 1}, \"13\": {\"In\": 1}, \"14\": {\"In\": 1}, \"15\": {\"In\": 1}, \"16\": {\"O\": 1}, \"17\": {\"O\": 1}, \"18\": {\"O\": 1}, \"19\": {\"O\": 1}, \"20\": {\"O\": 1}, \"21\": {\"O\": 1}, \"22\": {\"O\": 1}, \"23\": {\"O\": 1}, \"24\": {\"O\": 1}, \"25\": {\"O\": 1}, \"26\": {\"O\": 1}, \"27\": {\"O\": 1}, \"28\": {\"O\": 1}, \"29\": {\"O\": 1}, \"30\": {\"O\": 1}, \"31\": {\"O\": 1}, \"32\": {\"O\": 1}, \"33\": {\"O\": 1}, \"34\": {\"O\": 1}, \"35\": {\"O\": 1}, \"36\": {\"O\": 1}, \"37\": {\"O\": 1}, \"38\": {\"O\": 1}, \"39\": {\"O\": 1}}" n_minim_iter=5 energy=-45170.87491340121 stress="0.33426633090187563 1.5838856699942882e-12 -7.016945644521745e-13 1.5838856699942882e-12 0.33357542023286696 2.092816282038837e-12 -7.016945644521745e-13 2.092816282038837e-12 0.33363492156998814" free_energy=-45170.87491340121 pbc="T T T"
In       2.80855664       4.35680559       7.85466113        0       0.34731237       0.14999486       0.13300988
In       0.20737724       3.93304657       5.74491686        1       0.34731237      -0.14999486      -0.13300988
In       2.39380216       1.59352154      12.54470586        2      -0.34731237       0.14999486      -0.13300988
In       4.99498156       1.16976251       1.05487214        3      -0.34731237      -0.14999486       0.13300988
In       2.39380216       1.16976251       5.74491686        4      -0.34731237      -0.14999486      -0.13300988
In       4.99498156       1.59352154       7.85466113        5      -0.34731237       0.14999486       0.13300988
In       2.80855664       3.93304657       1.05487214        6       0.34731237      -0.14999486       0.13300988
In       0.20737724       4.35680559      12.54470586        7       0.34731237       0.14999486      -0.13300988
In       2.91272835       4.02568777      11.17149058        8      -0.05460829      -0.09351458      -0.36671792
In       5.51390775       4.26416439       2.42808741        9      -0.05460829       0.09351458       0.36671792
In       2.28963045       1.26240372       9.22787641       10       0.05460829      -0.09351458       0.36671792
In      -0.31154895       1.50088034       4.37170159       11       0.05460829       0.09351458      -0.36671792
In       2.28963045       1.50088034       2.42808741       12       0.05460829       0.09351458       0.36671792
In      -0.31154895       1.26240372      11.17149058       13       0.05460829      -0.09351458      -0.36671792
In       2.91272835       4.26416439       4.37170159       14      -0.05460829       0.09351458      -0.36671792
In       5.51390775       4.02568777       9.22787641       15      -0.05460829      -0.09351458       0.36671792
O        4.64582275       4.84704580      10.79935083       16       0.11341942       0.08812772       0.14788478
O        2.04464335       3.44280636       2.80022717       17       0.11341942      -0.08812772      -0.14788478
O        0.55653605       2.08376175       9.60001616       18      -0.11341942       0.08812772      -0.14788478
O        3.15771545       0.67952231       3.99956183       19      -0.11341942      -0.08812772       0.14788478
O        0.55653605       0.67952231       2.80022717       20      -0.11341942      -0.08812772      -0.14788478
O        3.15771545       2.08376175      10.79935083       21      -0.11341942       0.08812772       0.14788478
O        4.64582275       3.44280636       3.99956183       22       0.11341942      -0.08812772       0.14788478
O        2.04464335       4.84704580       9.60001616       23       0.11341942       0.08812772      -0.14788478
O        3.27506746       2.42022345       8.11688522       24       0.04174108      -0.13454345      -0.09733514
O        0.67388806       5.86962871       5.48269277       25       0.04174108       0.13454345       0.09733514
O        1.92729134      -0.34306061      12.28248177       26      -0.04174108      -0.13454345       0.09733514
O        4.52847074       3.10634466       1.31709622       27      -0.04174108       0.13454345      -0.09733514
O        1.92729134       3.10634466       5.48269277       28      -0.04174108       0.13454345       0.09733514
O        4.52847074      -0.34306061       8.11688522       29      -0.04174108      -0.13454345      -0.09733514
O        3.27506746       5.86962871       1.31709622       30       0.04174108       0.13454345      -0.09733514
O        0.67388806       2.42022345      12.28248177       31       0.04174108      -0.13454345       0.09733514
O        3.62343336       3.90910212      12.94592757       32       0.18704927       0.09334598      -0.15425444
O        1.02225396       4.38075004       0.65365043       33       0.18704927      -0.09334598       0.15425444
O        1.57892544       1.14581807       7.45343943       34      -0.18704927       0.09334598       0.15425444
O        4.18010483       1.61746598       6.14613857       35      -0.18704927      -0.09334598      -0.15425444
O        1.57892544       1.61746598       0.65365043       36      -0.18704927      -0.09334598       0.15425444
O        4.18010483       1.14581807      12.94592757       37      -0.18704927       0.09334598      -0.15425444
O        3.62343336       4.38075004       6.14613857       38       0.18704927      -0.09334598      -0.15425444
O        1.02225396       3.90910212       7.45343943       39       0.18704927       0.09334598       0.15425444
40