40
Lattice="4.106418054632673 9.54092080775372e-18 -3.811620347140949e-32 9.060608109777835e-16 4.099856622721747 1.1895739400085906e-14 8.769930710929791e-32 -4.100961451512019e-14 16.515316266221266" Properties=species:S:1:pos:R:3:spacegroup_kinds:I:1:forces:R:3 spacegroup="P 1" unit_cell=conventional occupancy="_JSON {\"0\": {\"In\": 1}, \"1\": {\"In\": 1}, \"2\": {\"In\": 1}, \"3\": {\"In\": 1}, \"4\": {\"In\": 1}, \"5\": {\"In\": 1}, \"6\": {\"In\": 1}, \"7\": {\"In\": 1}, \"8\": {\"In\": 1}, \"9\": {\"In\": 1}, \"10\": {\"In\": 1}, \"11\": {\"In\": 1}, \"12\": {\"In\": 1}, \"13\": {\"In\": 1}, \"14\": {\"In\": 1}, \"15\": {\"In\": 1}, \"16\": {\"O\": 1}, \"17\": {\"O\": 1}, \"18\": {\"O\": 1}, \"19\": {\"O\": 1}, \"20\": {\"O\": 1}, \"21\": {\"O\": 1}, \"22\": {\"O\": 1}, \"23\": {\"O\": 1}, \"24\": {\"O\": 1}, \"25\": {\"O\": 1}, \"26\": {\"O\": 1}, \"27\": {\"O\": 1}, \"28\": {\"O\": 1}, \"29\": {\"O\": 1}, \"30\": {\"O\": 1}, \"31\": {\"O\": 1}, \"32\": {\"O\": 1}, \"33\": {\"O\": 1}, \"34\": {\"O\": 1}, \"35\": {\"O\": 1}, \"36\": {\"O\": 1}, \"37\": {\"O\": 1}, \"38\": {\"O\": 1}, \"39\": {\"O\": 1}}" n_minim_iter=5 energy=-45263.3551954096 stress="-1.774236336069535 -2.4771309819910544e-12 1.6945496284477064e-12 -2.4771309819910544e-12 -1.7742303284571719 -3.2552454716029398e-12 1.6945496284477064e-12 -3.2552454716029398e-12 -1.7742453379033971" free_energy=-45263.3551954096 pbc="T T T"
In       1.98660221       3.07489011       9.34339261        0       0.00560941      -0.00000000       0.00407447
In      -0.06660682       3.07489011       7.17194707        1       0.00560941      -0.00000000      -0.00407447
In       2.11977917       1.02496180      15.42960520        2      -0.00560941      -0.00000000      -0.00407447
In       4.17298820       1.02496180       1.08573447        3      -0.00560941       0.00000000       0.00407447
In       2.11977917       1.02496180       7.17194707        4      -0.00560941      -0.00000000      -0.00407447
In       4.17298820       1.02496180       9.34339261        5      -0.00560941       0.00000000       0.00407447
In       1.98660221       3.07489011       1.08573447        6       0.00560941      -0.00000000       0.00407447
In      -0.06660682       3.07489011      15.42960520        7       0.00560941      -0.00000000      -0.00407447
In       2.11977917       3.07489011      13.47222167        8      -0.00560941      -0.00000000       0.00407447
In       4.17298820       3.07489011       3.04311800        9      -0.00560941      -0.00000000      -0.00407447
In       1.98660221       1.02496180      11.30077613       10       0.00560941       0.00000000      -0.00407447
In      -0.06660682       1.02496180       5.21456354       11       0.00560941       0.00000000       0.00407447
In       1.98660221       1.02496180       3.04311800       12       0.00560941      -0.00000000      -0.00407447
In      -0.06660682       1.02496180      13.47222167       13       0.00560941       0.00000000       0.00407447
In       2.11977917       3.07489011       5.21456354       14      -0.00560941       0.00000000       0.00407447
In       4.17298820       3.07489011      11.30077613       15      -0.00560941      -0.00000000      -0.00407447
O        3.07979520       4.09985427      12.36903935       16      -0.00000000       0.00000000      -0.00115113
O        1.02658617       2.04992595       4.14630032       17       0.00000000       0.00000000       0.00115113
O        1.02658617       2.04992595      12.40395845       18       0.00000000       0.00000000       0.00115113
O        3.07979520      -0.00000236       4.11138122       19      -0.00000000       0.00000000      -0.00115113
O        1.02658617      -0.00000236       4.14630032       20       0.00000000      -0.00000000       0.00115113
O        3.07979520       2.04992595      12.36903935       21       0.00000000       0.00000000      -0.00115113
O        3.07979520       2.04992595       4.11138122       22       0.00000000       0.00000000      -0.00115113
O        1.02658617       4.09985427      12.40395845       23      -0.00000000      -0.00000000       0.00115113
O        3.07979520       2.04992595      10.32208437       24      -0.00000000       0.00000000       0.00000000
O        1.02658617       4.09985427       6.19325530       25      -0.00000000       0.00000000       0.00000000
O        1.02658617      -0.00000236      14.45091344       26       0.00000000      -0.00000000      -0.00000000
O        3.07979520       2.04992595       2.06442624       27      -0.00000000      -0.00000000       0.00000000
O        1.02658617       2.04992595       6.19325530       28       0.00000000      -0.00000000      -0.00000000
O        3.07979520      -0.00000236      10.32208437       29       0.00000000      -0.00000000       0.00000000
O        3.07979520       4.09985427       2.06442624       30       0.00000000       0.00000000       0.00000000
O        1.02658617       2.04992595      14.45091344       31       0.00000000       0.00000000      -0.00000000
O        3.07979520       2.04992595      16.53278752       32      -0.00000000      -0.00000000       0.00115113
O        1.02658617       4.09985427      -0.01744785       33       0.00000000       0.00000000      -0.00115113
O        1.02658617      -0.00000236       8.24021028       34      -0.00000000      -0.00000000      -0.00115113
O        3.07979520       2.04992595       8.27512939       35       0.00000000      -0.00000000       0.00115113
O        1.02658617       2.04992595      -0.01744785       36       0.00000000      -0.00000000      -0.00115113
O        3.07979520      -0.00000236      16.53278752       37      -0.00000000       0.00000000       0.00115113
O        3.07979520       4.09985427       8.27512939       38      -0.00000000      -0.00000000       0.00115113
O        1.02658617       2.04992595       8.24021028       39      -0.00000000      -0.00000000      -0.00115113
