40
Lattice="4.898830709267098 2.1052966340774246e-42 8.14789301072368e-84 -2.0889095274337192e-42 4.860699426500192 -1.944835245020237e-41 -5.184368308469156e-83 6.132123445076444e-41 15.325930044218888" Properties=species:S:1:pos:R:3:spacegroup_kinds:I:1:forces:R:3 spacegroup="P 1" unit_cell=conventional occupancy="_JSON {\"0\": {\"In\": 1}, \"1\": {\"In\": 1}, \"2\": {\"In\": 1}, \"3\": {\"In\": 1}, \"4\": {\"In\": 1}, \"5\": {\"In\": 1}, \"6\": {\"In\": 1}, \"7\": {\"In\": 1}, \"8\": {\"In\": 1}, \"9\": {\"In\": 1}, \"10\": {\"In\": 1}, \"11\": {\"In\": 1}, \"12\": {\"In\": 1}, \"13\": {\"In\": 1}, \"14\": {\"In\": 1}, \"15\": {\"In\": 1}, \"16\": {\"O\": 1}, \"17\": {\"O\": 1}, \"18\": {\"O\": 1}, \"19\": {\"O\": 1}, \"20\": {\"O\": 1}, \"21\": {\"O\": 1}, \"22\": {\"O\": 1}, \"23\": {\"O\": 1}, \"24\": {\"O\": 1}, \"25\": {\"O\": 1}, \"26\": {\"O\": 1}, \"27\": {\"O\": 1}, \"28\": {\"O\": 1}, \"29\": {\"O\": 1}, \"30\": {\"O\": 1}, \"31\": {\"O\": 1}, \"32\": {\"O\": 1}, \"33\": {\"O\": 1}, \"34\": {\"O\": 1}, \"35\": {\"O\": 1}, \"36\": {\"O\": 1}, \"37\": {\"O\": 1}, \"38\": {\"O\": 1}, \"39\": {\"O\": 1}}" n_minim_iter=1 energy=-45172.00180667993 stress="0.26387296481604783 -9.138131907333678e-13 -3.8198830956382685e-13 -9.138131907333678e-13 0.2675821446508264 2.0932514833298213e-12 -3.8198830956382685e-13 2.0932514833298213e-12 0.29363079408273063" free_energy=-45172.00180667993 pbc="T T T"
In       2.53593447       4.01454582       8.77021553        0       0.38402386      -0.34018321      -0.02225409
In       0.08651911       3.27650332       6.55571452        1       0.38402386       0.34018321       0.02225409
In       2.36289624       1.58419611      14.21867954        2      -0.38402386      -0.34018321       0.02225409
In       4.81231159       0.84615360       1.10725051        3      -0.38402386       0.34018321      -0.02225409
In       2.36289624       0.84615360       6.55571452        4      -0.38402386       0.34018321       0.02225409
In       4.81231159       1.58419611       8.77021553        5      -0.38402386      -0.34018321      -0.02225409
In       2.53593447       3.27650332       1.10725051        6       0.38402386       0.34018321      -0.02225409
In       0.08651911       4.01454582      14.21867954        7       0.38402386      -0.34018321       0.02225409
In       2.55817410       3.65517374      12.67487397        8      -0.00695274       0.60183833      -0.89907604
In       5.00758946       3.63587540       2.65105607        9      -0.00695274      -0.60183833       0.89907604
In       2.34065661       1.22482403      10.31402110       10       0.00695274       0.60183833       0.89907604
In      -0.10875875       1.20552569       5.01190895       11       0.00695274      -0.60183833      -0.89907604
In       2.34065661       1.20552569       2.65105607       12       0.00695274      -0.60183833       0.89907604
In      -0.10875875       1.22482403      12.67487397       13       0.00695274       0.60183833      -0.89907604
In       2.55817410       3.63587540       5.01190895       14      -0.00695274      -0.60183833      -0.89907604
In       5.00758946       3.65517374      10.31402110       15      -0.00695274       0.60183833       0.89907604
O        4.10020475       4.53009824      11.80692973       16       0.09448364      -0.22839933       0.06200295
O        1.65078940       2.76095090       3.51900031       17       0.09448364       0.22839933      -0.06200295
O        0.79862596       2.09974852      11.18196534       18      -0.09448364      -0.22839933      -0.06200295
O        3.24804131       0.33060119       4.14396471       19      -0.09448364       0.22839933       0.06200295
O        0.79862596       0.33060119       3.51900031       20      -0.09448364       0.22839933      -0.06200295
O        3.24804131       2.09974852      11.80692973       21      -0.09448364      -0.22839933       0.06200295
O        4.10020475       2.76095090       4.14396471       22       0.09448364       0.22839933       0.06200295
O        1.65078940       4.53009824      11.18196534       23       0.09448364      -0.22839933      -0.06200295
O        3.40608176       2.57872400       9.59786185       24      -0.49131518      -0.03583334       0.18063912
O        0.95666640       4.71232514       5.72806820       25      -0.49131518       0.03583334      -0.18063912
O        1.49274895       0.14837428      13.39103322       26       0.49131518      -0.03583334      -0.18063912
O        3.94216431       2.28197543       1.93489682       27       0.49131518       0.03583334       0.18063912
O        1.49274895       2.28197543       5.72806820       28       0.49131518       0.03583334      -0.18063912
O        3.94216431       0.14837428       9.59786185       29       0.49131518      -0.03583334       0.18063912
O        3.40608176       4.71232514       1.93489682       30      -0.49131518       0.03583334       0.18063912
O        0.95666640       2.57872400      13.39103322       31      -0.49131518      -0.03583334      -0.18063912
O        3.32297218       3.22863308      14.58019829       32      -0.03155965       0.09855740       0.14956472
O        0.87355682       4.06241606       0.74573176       33      -0.03155965      -0.09855740      -0.14956472
O        1.57585853       0.79828337       8.40869678       34       0.03155965       0.09855740      -0.14956472
O        4.02527389       1.63206635       6.91723326       35       0.03155965      -0.09855740       0.14956472
O        1.57585853       1.63206635       0.74573176       36       0.03155965      -0.09855740      -0.14956472
O        4.02527389       0.79828337      14.58019829       37       0.03155965       0.09855740       0.14956472
O        3.32297218       4.06241606       6.91723326       38      -0.03155965      -0.09855740       0.14956472
O        0.87355682       3.22863308       8.40869678       39      -0.03155965       0.09855740      -0.14956472
40
Lattice="4.906527492897973 2.1075496153177446e-42 4.090610458990514e-81 -2.092138248987946e-42 4.8657957641751395 9.314249576424749e-39 -3.499847772188127e-83 2.794328112608487e-38 15.285861632933129" Properties=species:S:1:pos:R:3:spacegroup_kinds:I:1:forces:R:3 spacegroup="P 1" unit_cell=conventional occupancy="_JSON {\"0\": {\"In\": 1}, \"1\": {\"In\": 1}, \"2\": {\"In\": 1}, \"3\": {\"In\": 1}, \"4\": {\"In\": 1}, \"5\": {\"In\": 1}, \"6\": {\"In\": 1}, \"7\": {\"In\": 1}, \"8\": {\"In\": 1}, \"9\": {\"In\": 1}, \"10\": {\"In\": 1}, \"11\": {\"In\": 1}, \"12\": {\"In\": 1}, \"13\": {\"In\": 1}, \"14\": {\"In\": 1}, \"15\": {\"In\": 1}, \"16\": {\"O\": 1}, \"17\": {\"O\": 1}, \"18\": {\"O\": 1}, \"19\": {\"O\": 1}, \"20\": {\"O\": 1}, \"21\": {\"O\": 1}, \"22\": {\"O\": 1}, \"23\": {\"O\": 1}, \"24\": {\"O\": 1}, \"25\": {\"O\": 1}, \"26\": {\"O\": 1}, \"27\": {\"O\": 1}, \"28\": {\"O\": 1}, \"29\": {\"O\": 1}, \"30\": {\"O\": 1}, \"31\": {\"O\": 1}, \"32\": {\"O\": 1}, \"33\": {\"O\": 1}, \"34\": {\"O\": 1}, \"35\": {\"O\": 1}, \"36\": {\"O\": 1}, \"37\": {\"O\": 1}, \"38\": {\"O\": 1}, \"39\": {\"O\": 1}}" n_minim_iter=2 energy=-45172.01834178516 stress="0.2737984445686052 7.32744466829511e-13 2.357790660823343e-13 7.32744466829511e-13 0.2713449075153008 -1.4926700511049111e-12 2.357790660823343e-13 -1.4926700511049111e-12 0.26770713720528294" free_energy=-45172.01834178516 pbc="T T T"
In       2.54006712       4.01862367       8.74727795        0       0.35540218      -0.43268153      -0.02337920
In       0.08680337       3.28006998       6.53858369        1       0.35540218       0.43268153       0.02337920
In       2.36646038       1.58572579      14.18151450        2      -0.35540218      -0.43268153       0.02337920
In       4.81972412       0.84717210       1.10434713        3      -0.35540218       0.43268153      -0.02337920
In       2.36646038       0.84717210       6.53858369        4      -0.35540218       0.43268153       0.02337920
In       4.81972412       1.58572579       8.74727795        5      -0.35540218      -0.43268153      -0.02337920
In       2.54006712       3.28006998       1.10434713        6       0.35540218       0.43268153      -0.02337920
In       0.08680337       4.01862367      14.18151450        7       0.35540218      -0.43268153       0.02337920
In       2.56219069       3.65923844      12.64139073        8      -0.01281760       0.65533898      -0.75159704
In       5.01545443       3.63945521       2.64447090        9      -0.01281760      -0.65533898       0.75159704
In       2.34433681       1.22634056      10.28740172       10       0.01281760       0.65533898       0.75159704
In      -0.10892694       1.20655733       4.99845992       11       0.01281760      -0.65533898      -0.75159704
In       2.34433681       1.20655733       2.64447090       12       0.01281760      -0.65533898       0.75159704
In      -0.10892694       1.22634056      12.64139073       13       0.01281760       0.65533898      -0.75159704
In       2.56219069       3.63945521       4.99845992       14      -0.01281760      -0.65533898      -0.75159704
In       5.01545443       3.65923844      10.28740172       15      -0.01281760       0.65533898       0.75159704
O        4.10668327       4.53475978      11.77608531       16       0.17015127      -0.22868630       0.13653311
O        1.65341952       2.76393387       3.50977632       17       0.17015127       0.22868630      -0.13653311
O        0.79984422       2.10186190      11.15270714       18      -0.17015127      -0.22868630      -0.13653311
O        3.25310797       0.33103599       4.13315449       19      -0.17015127       0.22868630       0.13653311
O        0.79984422       0.33103599       3.50977632       20      -0.17015127       0.22868630      -0.13653311
O        3.25310797       2.10186190      11.77608531       21      -0.17015127      -0.22868630       0.13653311
O        4.10668327       2.76393387       4.13315449       22       0.17015127       0.22868630       0.13653311
O        1.65341952       4.53475978      11.15270714       23       0.17015127      -0.22868630      -0.13653311
O        3.41124345       2.58141390       9.57283848       24      -0.55196790      -0.09354732       0.11774018
O        0.95797970       4.71727975       5.71302315       25      -0.55196789       0.09354732      -0.11774018
O        1.49528404       0.14851602      13.35595396       26       0.55196790      -0.09354732      -0.11774018
O        3.94854779       2.28438186       1.92990767       27       0.55196789       0.09354732       0.11774018
O        1.49528404       2.28438186       5.71302315       28       0.55196789       0.09354732      -0.11774018
O        3.94854779       0.14851602       9.57283848       29       0.55196790      -0.09354732       0.11774018
O        3.41124345       4.71727975       1.92990767       30      -0.55196789       0.09354732       0.11774018
O        0.95797970       2.58141390      13.35595396       31      -0.55196789      -0.09354732      -0.11774018
O        3.32818086       3.23205628      14.54213706       32       0.00910199       0.14200282       0.09512938
O        0.87491712       4.06663737       0.74372458       33       0.00910199      -0.14200282      -0.09512938
O        1.57834663       0.79915840       8.38665539       34      -0.00910199       0.14200282      -0.09512938
O        4.03161038       1.63373949       6.89920624       35      -0.00910199      -0.14200282       0.09512938
O        1.57834663       1.63373949       0.74372458       36      -0.00910199      -0.14200282      -0.09512938
O        4.03161038       0.79915840      14.54213706       37      -0.00910199       0.14200281       0.09512938
O        3.32818086       4.06663737       6.89920624       38       0.00910199      -0.14200281       0.09512938
O        0.87491712       3.23205628       8.38665539       39       0.00910199       0.14200282      -0.09512938
40
Lattice="4.896686624691958 2.1039644299698436e-42 3.846708446175262e-81 -2.0966239259077584e-42 4.877736753606548 8.709685666545706e-39 -3.460672370159932e-83 2.6127175915529757e-38 15.279085718001943" Properties=species:S:1:pos:R:3:spacegroup_kinds:I:1:forces:R:3 spacegroup="P 1" unit_cell=conventional occupancy="_JSON {\"0\": {\"In\": 1}, \"1\": {\"In\": 1}, \"2\": {\"In\": 1}, \"3\": {\"In\": 1}, \"4\": {\"In\": 1}, \"5\": {\"In\": 1}, \"6\": {\"In\": 1}, \"7\": {\"In\": 1}, \"8\": {\"In\": 1}, \"9\": {\"In\": 1}, \"10\": {\"In\": 1}, \"11\": {\"In\": 1}, \"12\": {\"In\": 1}, \"13\": {\"In\": 1}, \"14\": {\"In\": 1}, \"15\": {\"In\": 1}, \"16\": {\"O\": 1}, \"17\": {\"O\": 1}, \"18\": {\"O\": 1}, \"19\": {\"O\": 1}, \"20\": {\"O\": 1}, \"21\": {\"O\": 1}, \"22\": {\"O\": 1}, \"23\": {\"O\": 1}, \"24\": {\"O\": 1}, \"25\": {\"O\": 1}, \"26\": {\"O\": 1}, \"27\": {\"O\": 1}, \"28\": {\"O\": 1}, \"29\": {\"O\": 1}, \"30\": {\"O\": 1}, \"31\": {\"O\": 1}, \"32\": {\"O\": 1}, \"33\": {\"O\": 1}, \"34\": {\"O\": 1}, \"35\": {\"O\": 1}, \"36\": {\"O\": 1}, \"37\": {\"O\": 1}, \"38\": {\"O\": 1}, \"39\": {\"O\": 1}}" n_minim_iter=3 energy=-45172.07694946051 stress="0.24577276992020988 3.4852601937983803e-12 -1.4215079319108013e-12 3.4852601937983803e-12 0.2693762933536726 1.696626696011657e-12 -1.4215079319108013e-12 1.696626696011657e-12 0.2548293408903565" free_energy=-45172.07694946051 pbc="T T T"
In       2.53791271       4.02505563       8.74321203        0       0.06834373       0.27677652      -0.03151411
In       0.08956939       3.29154950       6.53587369        1       0.06834373      -0.27677652       0.03151411
In       2.35877392       1.58618726      14.17541655        2      -0.06834373       0.27677652       0.03151411
In       4.80711723       0.85268112       1.10366917        3      -0.06834373      -0.27677652      -0.03151411
In       2.35877392       0.85268112       6.53587369        4      -0.06834373      -0.27677652       0.03151411
In       4.80711723       1.58618726       8.74321203        5      -0.06834373       0.27677652      -0.03151411
In       2.53791271       3.29154950       1.10366917        6       0.06834373      -0.27677652      -0.03151411
In       0.08956939       4.02505563      14.17541655        7       0.06834373       0.27677652       0.03151411
In       2.55695448       3.67352369      12.62949739        8       0.06119164      -0.02684606      -0.29797054
In       5.00529780       3.64308144       2.64958832        9       0.06119164       0.02684606       0.29797054
In       2.33973214       1.23465531      10.28913118       10      -0.06119164      -0.02684606       0.29797054
In      -0.10861117       1.20421307       4.98995453       11      -0.06119164       0.02684606      -0.29797054
In       2.33973214       1.20421307       2.64958832       12      -0.06119164       0.02684606       0.29797054
In      -0.10861117       1.23465531      12.62949739       13      -0.06119164      -0.02684606      -0.29797054
In       2.55695448       3.64308144       4.98995453       14       0.06119164       0.02684606      -0.29797054
In       5.00529780       3.67352369      10.28913118       15       0.06119164      -0.02684606       0.29797054
O        4.09974100       4.54401369      11.77187974       16       0.23918373       0.05874560       0.12762755
O        1.65139769       2.77259144       3.50720598       17       0.23918373      -0.05874560      -0.12762755
O        0.79694563       2.10514532      11.14674884       18      -0.23918373       0.05874560      -0.12762755
O        3.24528894       0.33372306       4.13233688       19      -0.23918373      -0.05874560       0.12762755
O        0.79694563       0.33372306       3.50720598       20      -0.23918373      -0.05874560      -0.12762755
O        3.24528894       2.10514532      11.77187974       21      -0.23918373       0.05874560       0.12762755
O        4.09974100       2.77259144       4.13233688       22       0.23918373      -0.05874560       0.12762755
O        1.65139769       4.54401369      11.14674884       23       0.23918373       0.05874560      -0.12762755
O        3.39996854       2.58705526       9.56963062       24      -0.23035971      -0.15732915       0.02496672
O        0.95162523       4.72954987       5.70945510       25      -0.23035971       0.15732915      -0.02496672
O        1.49671808       0.14818688      13.34899795       26       0.23035971      -0.15732915      -0.02496672
O        3.94506139       2.29068150       1.93008776       27       0.23035971       0.15732915       0.02496672
O        1.49671808       2.29068150       5.70945510       28       0.23035971       0.15732915      -0.02496672
O        3.94506139       0.14818688       9.56963062       29       0.23035971      -0.15732915       0.02496672
O        3.39996854       4.72954987       1.93008776       30      -0.23035971       0.15732915       0.02496672
O        0.95162523       2.58705526      13.34899795       31      -0.23035971      -0.15732915      -0.02496672
O        3.32152849       3.24109702      14.53653210       32      -0.07115521       0.01787737      -0.00178912
O        0.87318518       4.07550811       0.74255362       33      -0.07115521      -0.01787737       0.00178912
O        1.57515814       0.80222864       8.38209648       34       0.07115521       0.01787737       0.00178912
O        4.02350145       1.63663974       6.89698924       35       0.07115521      -0.01787737      -0.00178912
O        1.57515814       1.63663974       0.74255362       36       0.07115521      -0.01787737       0.00178912
O        4.02350145       0.80222864      14.53653210       37       0.07115521       0.01787737      -0.00178912
O        3.32152849       4.07550811       6.89698924       38      -0.07115521      -0.01787737      -0.00178912
O        0.87318518       3.24109702       8.38209648       39      -0.07115521       0.01787737       0.00178912
40
Lattice="4.905944922171129 2.1283861022717297e-42 3.8128748619332894e-81 -2.0729111184078795e-42 4.86660723319277 8.760614079633135e-39 -3.477924801231104e-83 2.62064231931584e-38 15.285127695562881" Properties=species:S:1:pos:R:3:spacegroup_kinds:I:1:forces:R:3 spacegroup="P 1" unit_cell=conventional occupancy="_JSON {\"0\": {\"In\": 1}, \"1\": {\"In\": 1}, \"2\": {\"In\": 1}, \"3\": {\"In\": 1}, \"4\": {\"In\": 1}, \"5\": {\"In\": 1}, \"6\": {\"In\": 1}, \"7\": {\"In\": 1}, \"8\": {\"In\": 1}, \"9\": {\"In\": 1}, \"10\": {\"In\": 1}, \"11\": {\"In\": 1}, \"12\": {\"In\": 1}, \"13\": {\"In\": 1}, \"14\": {\"In\": 1}, \"15\": {\"In\": 1}, \"16\": {\"O\": 1}, \"17\": {\"O\": 1}, \"18\": {\"O\": 1}, \"19\": {\"O\": 1}, \"20\": {\"O\": 1}, \"21\": {\"O\": 1}, \"22\": {\"O\": 1}, \"23\": {\"O\": 1}, \"24\": {\"O\": 1}, \"25\": {\"O\": 1}, \"26\": {\"O\": 1}, \"27\": {\"O\": 1}, \"28\": {\"O\": 1}, \"29\": {\"O\": 1}, \"30\": {\"O\": 1}, \"31\": {\"O\": 1}, \"32\": {\"O\": 1}, \"33\": {\"O\": 1}, \"34\": {\"O\": 1}, \"35\": {\"O\": 1}, \"36\": {\"O\": 1}, \"37\": {\"O\": 1}, \"38\": {\"O\": 1}, \"39\": {\"O\": 1}}" n_minim_iter=4 energy=-45172.09010456752 stress="0.2545442474751037 -4.620406644690148e-13 -2.5960148440479347e-13 -4.620406644690148e-13 0.2551664281478152 1.6056469514355395e-13 -2.5960148440479347e-13 1.6056469514355395e-13 0.2547792400475173" free_energy=-45172.09010456752 pbc="T T T"
In       2.54336112       4.01532780       8.74661180        0      -0.01451669       0.33755153      -0.03849249
In       0.09038865       3.28458305       6.53851589        1      -0.01451669      -0.33755153       0.03849249
In       2.36258381       1.58202418      14.18107974        2       0.01451669       0.33755153       0.03849249
In       4.81555627       0.85127943       1.10404795        3       0.01451669      -0.33755153      -0.03849249
In       2.36258381       0.85127943       6.53851589        4       0.01451669      -0.33755153       0.03849249
In       4.81555627       1.58202418       8.74661180        5       0.01451669       0.33755153      -0.03849249
In       2.54336112       3.28458305       1.10404795        6      -0.01451669      -0.33755153      -0.03849249
In       0.09038865       4.01532780      14.18107974        7      -0.01451669       0.33755153       0.03849249
In       2.56180517       3.66622170      12.63301511        8       0.06826274      -0.14120940      -0.16102442
In       5.01477763       3.63368915       2.65211258        9       0.06826274       0.14120940       0.16102442
In       2.34413976       1.23291809      10.29467643       10      -0.06826274      -0.14120940       0.16102442
In      -0.10883271       1.20038553       4.99045127       11      -0.06826274       0.14120940      -0.16102442
In       2.34413976       1.20038553       2.65211258       12      -0.06826274       0.14120940       0.16102442
In      -0.10883271       1.23291809      12.63301511       13      -0.06826274      -0.14120940      -0.16102442
In       2.56180517       3.63368915       4.99045127       14       0.06826274       0.14120940      -0.16102442
In       5.01477763       3.66622170      10.29467643       15       0.06826274      -0.14120940       0.16102442
O        4.10790405       4.53329367      11.77682113       16       0.15243038       0.14725589       0.17260523
O        1.65493159       2.76661718       3.50830657       17       0.15243038      -0.14725589      -0.17260523
O        0.79804087       2.09999005      11.15087042       18      -0.15243038       0.14725589      -0.17260523
O        3.25101333       0.33331357       4.13425728       19      -0.15243038      -0.14725589       0.17260523
O        0.79804087       0.33331357       3.50830657       20      -0.15243038      -0.14725589      -0.17260523
O        3.25101333       2.09999005      11.77682113       21      -0.15243038       0.14725589       0.17260523
O        4.10790405       2.76661718       4.13425728       22       0.15243038      -0.14725589       0.17260523
O        1.65493159       4.53329367      11.15087042       23       0.15243038       0.14725589      -0.17260523
O        3.40534009       2.58091454       9.57364327       24      -0.17336230      -0.17448828       0.06396456
O        0.95236763       4.71899631       5.71148442       25      -0.17336230       0.17448828      -0.06396456
O        1.50060483       0.14761092      13.35404827       26       0.17336230      -0.17448828      -0.06396456
O        3.95357729       2.28569269       1.93107943       27       0.17336231       0.17448828       0.06396456
O        1.50060483       2.28569269       5.71148442       28       0.17336230       0.17448828      -0.06396456
O        3.95357729       0.14761092       9.57364327       29       0.17336230      -0.17448828       0.06396456
O        3.40534009       4.71899631       1.93107943       30      -0.17336230       0.17448828       0.06396456
O        0.95236763       2.58091454      13.35404827       31      -0.17336230      -0.17448828      -0.06396456
O        3.32777144       3.23394196      14.54245292       32      -0.03833585       0.01812244      -0.01944953
O        0.87479898       4.06596889       0.74267477       33      -0.03833585      -0.01812244       0.01944953
O        1.57817348       0.80063834       8.38523862       34       0.03833585       0.01812244       0.01944953
O        4.03114594       1.63266527       6.89988907       35       0.03833585      -0.01812244      -0.01944953
O        1.57817348       1.63266527       0.74267477       36       0.03833585      -0.01812244       0.01944953
O        4.03114594       0.80063834      14.54245292       37       0.03833585       0.01812244      -0.01944953
O        3.32777144       4.06596889       6.89988907       38      -0.03833585      -0.01812244      -0.01944953
O        0.87479898       3.23394196       8.38523862       39      -0.03833585       0.01812244       0.01944953
40
Lattice="4.904338108301446 2.1277152917045687e-42 3.8116566325678657e-81 -2.0732544352846096e-42 4.867429739336149 8.753721546221152e-39 -3.472536177756193e-83 2.618456239191093e-38 15.287551827506057" Properties=species:S:1:pos:R:3:spacegroup_kinds:I:1:forces:R:3 spacegroup="P 1" unit_cell=conventional occupancy="_JSON {\"0\": {\"In\": 1}, \"1\": {\"In\": 1}, \"2\": {\"In\": 1}, \"3\": {\"In\": 1}, \"4\": {\"In\": 1}, \"5\": {\"In\": 1}, \"6\": {\"In\": 1}, \"7\": {\"In\": 1}, \"8\": {\"In\": 1}, \"9\": {\"In\": 1}, \"10\": {\"In\": 1}, \"11\": {\"In\": 1}, \"12\": {\"In\": 1}, \"13\": {\"In\": 1}, \"14\": {\"In\": 1}, \"15\": {\"In\": 1}, \"16\": {\"O\": 1}, \"17\": {\"O\": 1}, \"18\": {\"O\": 1}, \"19\": {\"O\": 1}, \"20\": {\"O\": 1}, \"21\": {\"O\": 1}, \"22\": {\"O\": 1}, \"23\": {\"O\": 1}, \"24\": {\"O\": 1}, \"25\": {\"O\": 1}, \"26\": {\"O\": 1}, \"27\": {\"O\": 1}, \"28\": {\"O\": 1}, \"29\": {\"O\": 1}, \"30\": {\"O\": 1}, \"31\": {\"O\": 1}, \"32\": {\"O\": 1}, \"33\": {\"O\": 1}, \"34\": {\"O\": 1}, \"35\": {\"O\": 1}, \"36\": {\"O\": 1}, \"37\": {\"O\": 1}, \"38\": {\"O\": 1}, \"39\": {\"O\": 1}}" n_minim_iter=5 energy=-45172.111255627446 stress="0.24996178848696243 -1.2594544449522727e-12 1.5165006073954034e-12 -1.2594544449522727e-12 0.24974289629127464 -2.0902317647999759e-13 1.5165006073954034e-12 -2.0902317647999759e-13 0.25021976967755355" free_energy=-45172.111255627446 pbc="T T T"
In       2.54328779       4.02004203       8.74734499        0       0.01403314      -0.02284324       0.08372652
In       0.09111873       3.28110258       6.54020683        1       0.01403314       0.02284324      -0.08372652
In       2.36105032       1.58632716      14.18398275        2      -0.01403314      -0.02284324      -0.08372652
In       4.81321937       0.84738771       1.10356908        3      -0.01403314       0.02284324       0.08372652
In       2.36105032       0.84738771       6.54020683        4      -0.01403314       0.02284324      -0.08372652
In       4.81321937       1.58632716       8.74734499        5      -0.01403314      -0.02284324       0.08372652
In       2.54328779       3.28110258       1.10356908        6       0.01403314       0.02284324       0.08372652
In       0.09111873       4.02004203      14.18398275        7       0.01403314      -0.02284324      -0.08372652
In       2.56198458       3.66644924      12.63045109        8      -0.00479201      -0.11972699       0.02924702
In       5.01415363       3.63469537       2.65710074        9      -0.00479201       0.11972699      -0.02924702
In       2.34235353       1.23273437      10.30087665       10       0.00479201      -0.11972699      -0.02924702
In      -0.10981553       1.20098050       4.98667517       11       0.00479201       0.11972699       0.02924702
In       2.34235353       1.20098050       2.65710074       12       0.00479201       0.11972699      -0.02924702
In      -0.10981553       1.23273437      12.63045109       13       0.00479201      -0.11972699       0.02924702
In       2.56198458       3.63469537       4.98667517       14      -0.00479201       0.11972699       0.02924702
In       5.01415363       3.66644924      10.30087665       15      -0.00479201      -0.11972699      -0.02924702
O        4.10932385       4.53571005      11.78168511       16       0.07443889       0.06687603      -0.05633033
O        1.65715480       2.76543456       3.50586671       17       0.07443889      -0.06687603       0.05633033
O        0.79501426       2.10199518      11.14964263       18      -0.07443889       0.06687603       0.05633033
O        3.24718331       0.33171969       4.13790920       19      -0.07443889      -0.06687603      -0.05633033
O        0.79501426       0.33171969       3.50586671       20      -0.07443889      -0.06687603       0.05633033
O        3.24718331       2.10199518      11.78168511       21      -0.07443889       0.06687603      -0.05633033
O        4.10932385       2.76543456       4.13790920       22       0.07443889      -0.06687603      -0.05633033
O        1.65715480       4.53571005      11.14964263       23       0.07443889       0.06687603       0.05633033
O        3.40005402       2.57842387       9.57650168       24      -0.15919151       0.03401135      -0.00681464
O        0.94788497       4.72272074       5.71105015       25      -0.15919151      -0.03401135       0.00681464
O        1.50428408       0.14470900      13.35482607       26       0.15919151       0.03401135       0.00681464
O        3.95645314       2.28900587       1.93272576       27       0.15919151      -0.03401135      -0.00681464
O        1.50428408       2.28900587       5.71105015       28       0.15919151      -0.03401135       0.00681464
O        3.95645314       0.14470900       9.57650168       29       0.15919151       0.03401135      -0.00681464
O        3.40005402       4.72272074       1.93272576       30      -0.15919151      -0.03401135      -0.00681464
O        0.94788497       2.57842387      13.35482607       31      -0.15919151       0.03401135       0.00681464
O        3.32611017       3.23514709      14.54474393       32       0.05847631       0.11679218      -0.02254987
O        0.87394111       4.06599752       0.74280789       33       0.05847631      -0.11679218       0.02254987
O        1.57822794       0.80143222       8.38658381       34      -0.05847631       0.11679218       0.02254987
O        4.03039699       1.63228265       6.90096802       35      -0.05847631      -0.11679218      -0.02254987
O        1.57822794       1.63228265       0.74280789       36      -0.05847631      -0.11679218       0.02254987
O        4.03039699       0.80143222      14.54474393       37      -0.05847631       0.11679218      -0.02254987
O        3.32611017       4.06599752       6.90096802       38       0.05847631      -0.11679218      -0.02254987
O        0.87394111       3.23514709       8.38658381       39       0.05847631       0.11679218       0.02254987
40