40
Lattice="5.179482670681612 9.064911251850858e-42 -5.79232420187322e-57 -8.515423277483983e-42 5.597080229859072 -5.276093157336791e-15 -4.6373637569648013e-57 1.4126733649916005e-14 14.986176185020417" Properties=species:S:1:pos:R:3:spacegroup_kinds:I:1:forces:R:3 spacegroup="P 1" unit_cell=conventional occupancy="_JSON {\"0\": {\"In\": 1}, \"1\": {\"In\": 1}, \"2\": {\"In\": 1}, \"3\": {\"In\": 1}, \"4\": {\"In\": 1}, \"5\": {\"In\": 1}, \"6\": {\"In\": 1}, \"7\": {\"In\": 1}, \"8\": {\"In\": 1}, \"9\": {\"In\": 1}, \"10\": {\"In\": 1}, \"11\": {\"In\": 1}, \"12\": {\"In\": 1}, \"13\": {\"In\": 1}, \"14\": {\"In\": 1}, \"15\": {\"In\": 1}, \"16\": {\"O\": 1}, \"17\": {\"O\": 1}, \"18\": {\"O\": 1}, \"19\": {\"O\": 1}, \"20\": {\"O\": 1}, \"21\": {\"O\": 1}, \"22\": {\"O\": 1}, \"23\": {\"O\": 1}, \"24\": {\"O\": 1}, \"25\": {\"O\": 1}, \"26\": {\"O\": 1}, \"27\": {\"O\": 1}, \"28\": {\"O\": 1}, \"29\": {\"O\": 1}, \"30\": {\"O\": 1}, \"31\": {\"O\": 1}, \"32\": {\"O\": 1}, \"33\": {\"O\": 1}, \"34\": {\"O\": 1}, \"35\": {\"O\": 1}, \"36\": {\"O\": 1}, \"37\": {\"O\": 1}, \"38\": {\"O\": 1}, \"39\": {\"O\": 1}}" n_minim_iter=17 energy=-45157.240309407985 stress="0.2222113720309778 1.5404977805954193e-12 8.159996704041801e-13 1.5404977805954193e-12 0.22223145089504567 -1.0729352751290949e-13 8.159996704041801e-13 -1.0729352751290949e-13 0.2218320880303353" free_energy=-45157.240309407985 pbc="T T T"
In       2.68987151       4.42402183       8.60277101        0      -0.00512231      -0.00071958      -0.00490971
In       0.10013018       3.97159851       6.38340518        1      -0.00512231       0.00071958       0.00490971
In       2.48961116       1.62548172      13.87649327        2       0.00512231      -0.00071958       0.00490971
In       5.07935249       1.17305840       1.10968291        3       0.00512231       0.00071958      -0.00490971
In       2.48961116       1.17305840       6.38340518        4       0.00512231       0.00071958       0.00490971
In       5.07935249       1.62548172       8.60277101        5       0.00512231      -0.00071958      -0.00490971
In       2.68987151       3.97159851       1.10968291        6      -0.00512231       0.00071958      -0.00490971
In       0.10013018       4.42402183      13.87649327        7      -0.00512231      -0.00071958       0.00490971
In       2.72024844       4.12349005      12.45375367        8       0.00396557      -0.00533550      -0.00349433
In       5.30998977       4.27213029       2.53242251        9       0.00396557       0.00533550       0.00349433
In       2.45923423       1.32494994      10.02551061       10      -0.00396557      -0.00533550       0.00349433
In      -0.13050710       1.47359018       4.96066558       11      -0.00396557       0.00533550      -0.00349433
In       2.45923423       1.47359018       2.53242251       12      -0.00396557       0.00533550       0.00349433
In      -0.13050710       1.32494994      12.45375367       13      -0.00396557      -0.00533550      -0.00349433
In       2.72024844       4.27213029       4.96066558       14       0.00396557       0.00533550      -0.00349433
In       5.30998977       4.12349005      10.02551061       15       0.00396557      -0.00533550       0.00349433
O        4.56112188       4.89005560      11.90921709       16       0.00379660      -0.00107610       0.00223696
O        1.97138055       3.50556475       3.07695910       17       0.00379660       0.00107610      -0.00223696
O        0.61836079       2.09151548      10.57004719       18      -0.00379660      -0.00107610      -0.00223696
O        3.20810213       0.70702463       4.41612899       19      -0.00379660       0.00107610       0.00223696
O        0.61836079       0.70702463       3.07695910       20      -0.00379660       0.00107610      -0.00223696
O        3.20810213       2.09151548      11.90921709       21      -0.00379660      -0.00107610       0.00223696
O        4.56112188       3.50556475       4.41612899       22       0.00379660       0.00107610       0.00223696
O        1.97138055       4.89005560      10.57004719       23       0.00379660      -0.00107610      -0.00223696
O        3.33607884       2.50521972       8.79569894       24      -0.00261639       0.00102668       0.00482701
O        0.74633751       5.89040062       6.19047724       25      -0.00261639      -0.00102668      -0.00482701
O        1.84340383      -0.29332040      13.68356534       26       0.00261639       0.00102668      -0.00482701
O        4.43314516       3.09186051       1.30261085       27       0.00261639      -0.00102668       0.00482701
O        1.84340383       3.09186051       6.19047724       28       0.00261639      -0.00102668      -0.00482701
O        4.43314516      -0.29332040       8.79569894       29       0.00261639       0.00102668       0.00482701
O        3.33607884       5.89040062       1.30261085       30      -0.00261639      -0.00102668       0.00482701
O        0.74633751       2.50521972      13.68356534       31      -0.00261639       0.00102668      -0.00482701
O        3.46159211       3.82584530      14.31677359       32       0.00111922      -0.00137486      -0.00037708
O        0.87185077       4.56977504       0.66940260       33       0.00111922       0.00137486       0.00037708
O        1.71789056       1.02730519       8.16249069       34      -0.00111922      -0.00137486       0.00037708
O        4.30763190       1.77123493       6.82368550       35      -0.00111922       0.00137486      -0.00037708
O        1.71789056       1.77123493       0.66940260       36      -0.00111922       0.00137486       0.00037708
O        4.30763190       1.02730519      14.31677359       37      -0.00111922      -0.00137486      -0.00037708
O        3.46159211       4.56977504       6.82368550       38       0.00111922       0.00137486      -0.00037708
O        0.87185077       3.82584530       8.16249069       39       0.00111922      -0.00137486       0.00037708
