40
Lattice="4.732743983208047 2.0470899084421935e-42 -2.1728648322592933e-83 -2.0291061714917844e-42 4.691166706852648 5.208076384604763e-41 1.3969084513560483e-82 -1.6510299184588139e-40 14.871626323275235" Properties=species:S:1:pos:R:3:spacegroup_kinds:I:1:forces:R:3 spacegroup="P 1" unit_cell=conventional occupancy="_JSON {\"0\": {\"In\": 1}, \"1\": {\"In\": 1}, \"2\": {\"In\": 1}, \"3\": {\"In\": 1}, \"4\": {\"In\": 1}, \"5\": {\"In\": 1}, \"6\": {\"In\": 1}, \"7\": {\"In\": 1}, \"8\": {\"In\": 1}, \"9\": {\"In\": 1}, \"10\": {\"In\": 1}, \"11\": {\"In\": 1}, \"12\": {\"In\": 1}, \"13\": {\"In\": 1}, \"14\": {\"In\": 1}, \"15\": {\"In\": 1}, \"16\": {\"O\": 1}, \"17\": {\"O\": 1}, \"18\": {\"O\": 1}, \"19\": {\"O\": 1}, \"20\": {\"O\": 1}, \"21\": {\"O\": 1}, \"22\": {\"O\": 1}, \"23\": {\"O\": 1}, \"24\": {\"O\": 1}, \"25\": {\"O\": 1}, \"26\": {\"O\": 1}, \"27\": {\"O\": 1}, \"28\": {\"O\": 1}, \"29\": {\"O\": 1}, \"30\": {\"O\": 1}, \"31\": {\"O\": 1}, \"32\": {\"O\": 1}, \"33\": {\"O\": 1}, \"34\": {\"O\": 1}, \"35\": {\"O\": 1}, \"36\": {\"O\": 1}, \"37\": {\"O\": 1}, \"38\": {\"O\": 1}, \"39\": {\"O\": 1}}" n_minim_iter=1 energy=-45171.22186132248 stress="-0.4255158873926674 -7.571183735895325e-13 -1.0852741126943717e-12 -7.571183735895325e-13 -0.4412339884698859 2.919004172332431e-12 -1.0852741126943717e-12 2.919004172332431e-12 -0.4222925404517306" free_energy=-45171.22186132248 pbc="T T T"
In       2.44458146       3.85836268       8.51056973        0      -0.31480663      -0.01432078      -0.16108837
In       0.07820946       3.17838738       6.36105660        1      -0.31480663       0.01432078       0.16108837
In       2.28816253       1.51277932      13.79686976        2       0.31480663      -0.01432078       0.16108837
In       4.65453452       0.83280403       1.07475656        3       0.31480663       0.01432078      -0.16108837
In       2.28816253       0.83280403       6.36105660        4       0.31480663       0.01432078       0.16108837
In       4.65453452       1.51277932       8.51056973        5       0.31480663      -0.01432078      -0.16108837
In       2.44458146       3.17838738       1.07475656        6      -0.31480663       0.01432078      -0.16108837
In       0.07820946       3.85836268      13.79686976        7      -0.31480663      -0.01432078       0.16108837
In       2.48335697       3.52903278      12.33158536        8       0.41257610      -0.17101510       0.80695291
In       4.84972896       3.50771728       2.54004097        9       0.41257610       0.17101510      -0.80695291
In       2.24938701       1.18344942       9.97585413       10      -0.41257610      -0.17101510      -0.80695291
In      -0.11698498       1.16213393       4.89577219       11      -0.41257610       0.17101510       0.80695291
In       2.24938701       1.16213393       2.54004097       12      -0.41257610       0.17101510      -0.80695291
In      -0.11698498       1.18344942      12.33158536       13      -0.41257610      -0.17101510       0.80695291
In       2.48335697       3.50771728       4.89577219       14       0.41257610       0.17101510       0.80695291
In       4.84972896       3.52903278       9.97585413       15       0.41257610      -0.17101510      -0.80695291
O        3.94835842       4.37419584      11.45572847       16      -0.49832970       0.07121624      -0.24370198
O        1.58198642       2.66255422       3.41589785       17      -0.49832970      -0.07121624       0.24370198
O        0.78438557       2.02861249      10.85171101       18       0.49832970       0.07121624       0.24370198
O        3.15075756       0.31697086       4.01991531       19       0.49832970      -0.07121624      -0.24370198
O        0.78438557       0.31697086       3.41589785       20       0.49832970      -0.07121624       0.24370198
O        3.15075756       2.02861249      11.45572847       21       0.49832970       0.07121624      -0.24370198
O        3.94835842       2.66255422       4.01991531       22      -0.49832970      -0.07121624      -0.24370198
O        1.58198642       4.37419584      10.85171101       23      -0.49832970       0.07121624       0.24370198
O        3.32872136       2.49082254       9.32159010       24       0.97643057      -0.02571939       0.32099308
O        0.96234936       4.54592752       5.55003622       25       0.97643057       0.02571939      -0.32099308
O        1.40402263       0.14523918      12.98584939       26      -0.97643057      -0.02571939      -0.32099308
O        3.77039462       2.20034417       1.88577694       27      -0.97643057       0.02571939       0.32099308
O        1.40402263       2.20034417       5.55003622       28      -0.97643057       0.02571939      -0.32099308
O        3.77039462       0.14523918       9.32159010       29      -0.97643057      -0.02571939       0.32099308
O        3.32872136       4.54592752       1.88577694       30       0.97643057       0.02571939       0.32099308
O        0.96234936       2.49082254      12.98584939       31       0.97643057      -0.02571939      -0.32099308
O        3.22442416       3.07984699      14.16337036       32       0.00372999      -0.34126247      -0.06751981
O        0.85805217       3.95690307       0.70825596       33       0.00372998       0.34126247       0.06751981
O        1.50831982       0.73426363       8.14406912       34      -0.00372999      -0.34126247       0.06751981
O        3.87469182       1.61131972       6.72755720       35      -0.00372999       0.34126247      -0.06751981
O        1.50831982       1.61131972       0.70825596       36      -0.00372999       0.34126247       0.06751981
O        3.87469182       0.73426363      14.16337036       37      -0.00372998      -0.34126247      -0.06751981
O        3.22442416       3.95690307       6.72755720       38       0.00372999       0.34126247      -0.06751981
O        0.85805217       3.07984699       8.14406912       39       0.00372999      -0.34126247       0.06751981
40
Lattice="4.7291363327445 2.0634613397166518e-42 -1.4945798027496291e-80 -2.0146977002184154e-42 4.701100440073752 -3.601207229994309e-38 1.21332704618317e-82 -1.0758590737569467e-37 14.851522540749842" Properties=species:S:1:pos:R:3:spacegroup_kinds:I:1:forces:R:3 spacegroup="P 1" unit_cell=conventional occupancy="_JSON {\"0\": {\"In\": 1}, \"1\": {\"In\": 1}, \"2\": {\"In\": 1}, \"3\": {\"In\": 1}, \"4\": {\"In\": 1}, \"5\": {\"In\": 1}, \"6\": {\"In\": 1}, \"7\": {\"In\": 1}, \"8\": {\"In\": 1}, \"9\": {\"In\": 1}, \"10\": {\"In\": 1}, \"11\": {\"In\": 1}, \"12\": {\"In\": 1}, \"13\": {\"In\": 1}, \"14\": {\"In\": 1}, \"15\": {\"In\": 1}, \"16\": {\"O\": 1}, \"17\": {\"O\": 1}, \"18\": {\"O\": 1}, \"19\": {\"O\": 1}, \"20\": {\"O\": 1}, \"21\": {\"O\": 1}, \"22\": {\"O\": 1}, \"23\": {\"O\": 1}, \"24\": {\"O\": 1}, \"25\": {\"O\": 1}, \"26\": {\"O\": 1}, \"27\": {\"O\": 1}, \"28\": {\"O\": 1}, \"29\": {\"O\": 1}, \"30\": {\"O\": 1}, \"31\": {\"O\": 1}, \"32\": {\"O\": 1}, \"33\": {\"O\": 1}, \"34\": {\"O\": 1}, \"35\": {\"O\": 1}, \"36\": {\"O\": 1}, \"37\": {\"O\": 1}, \"38\": {\"O\": 1}, \"39\": {\"O\": 1}}" n_minim_iter=2 energy=-45171.234023895515 stress="-0.42766091517770455 -3.734973306502691e-13 -9.287298899899312e-14 -3.734973306502691e-13 -0.4190055752344157 -5.800892521539181e-13 -9.287298899899312e-14 -5.800892521539181e-13 -0.4347168508012131" free_energy=-45171.234023895515 pbc="T T T"
In       2.44254358       3.86652496       8.49897575        0      -0.27022741       0.05932671      -0.10187751
In       0.07797541       3.18512570       6.35254679        1      -0.27022741      -0.05932671       0.10187751
In       2.28659275       1.51597474      13.77830806        2       0.27022741       0.05932671       0.10187751
In       4.65116092       0.83457548       1.07321448        3       0.27022741      -0.05932671      -0.10187751
In       2.28659275       0.83457548       6.35254679        4       0.27022741      -0.05932671       0.10187751
In       4.65116092       1.51597474       8.49897575        5       0.27022741       0.05932671      -0.10187751
In       2.44254358       3.18512570       1.07321448        6      -0.27022741      -0.05932671      -0.10187751
In       0.07797541       3.86652496      13.77830806        7      -0.27022741       0.05932671       0.10187751
In       2.48169258       3.53641061      12.31536212        8       0.38024810      -0.21105758       0.79617714
In       4.84626075       3.51524005       2.53616042        9       0.38024810       0.21105758      -0.79617714
In       2.24744375       1.18586039       9.96192169       10      -0.38024810      -0.21105758      -0.79617714
In      -0.11712441       1.16468983       4.88960085       11      -0.38024810       0.21105758       0.79617714
In       2.24744375       1.16468983       2.53616042       12      -0.38024810       0.21105758      -0.79617714
In      -0.11712441       1.18586039      12.31536212       13      -0.38024810      -0.21105758       0.79617714
In       2.48169258       3.51524005       4.88960085       14       0.38024810       0.21105758       0.79617714
In       4.84626075       3.53641061       9.96192169       15       0.38024810      -0.21105758      -0.79617714
O        3.94507256       4.38349795      11.44010742       16      -0.35864360       0.05777722      -0.21653106
O        1.58050439       2.66815271       3.41141512       17      -0.35864360      -0.05777722       0.21653106
O        0.78406377       2.03294773      10.83717639       18       0.35864360       0.05777722       0.21653106
O        3.14863194       0.31760249       4.01434615       19       0.35864360      -0.05777722      -0.21653106
O        0.78406377       0.31760249       3.41141512       20       0.35864360      -0.05777722       0.21653106
O        3.14863194       2.03294773      11.44010742       21       0.35864360       0.05777722      -0.21653106
O        3.94507256       2.66815271       4.01434615       22      -0.35864360      -0.05777722      -0.21653106
O        1.58050439       4.38349795      10.83717639       23      -0.35864360       0.05777722       0.21653106
O        3.32672500       2.49608266       9.30916673       24       0.92546279       0.00174708       0.27572825
O        0.96215683       4.55556800       5.54235581       25       0.92546279      -0.00174708      -0.27572825
O        1.40241134       0.14553244      12.96811708       26      -0.92546279       0.00174708      -0.27572825
O        3.76697950       2.20501778       1.88340546       27      -0.92546279      -0.00174708       0.27572825
O        1.40241134       2.20501778       5.54235581       28      -0.92546279      -0.00174708      -0.27572825
O        3.76697950       0.14553244       9.30916673       29      -0.92546279       0.00174708       0.27572825
O        3.32672500       4.55556800       1.88340546       30       0.92546279      -0.00174708       0.27572825
O        0.96215683       2.49608266      12.96811708       31       0.92546279       0.00174708      -0.27572825
O        3.22196833       3.08617905      14.14418662       32      -0.00517703      -0.38207336      -0.12415311
O        0.85740016       3.96547161       0.70733592       33      -0.00517703       0.38207336       0.12415311
O        1.50716800       0.73562883       8.13309719       34       0.00517703      -0.38207336       0.12415311
O        3.87173617       1.61492139       6.71842535       35       0.00517703       0.38207336      -0.12415311
O        1.50716800       1.61492139       0.70733592       36       0.00517703       0.38207336       0.12415311
O        3.87173617       0.73562883      14.14418662       37       0.00517703      -0.38207336      -0.12415311
O        3.22196833       3.96547161       6.71842535       38      -0.00517703       0.38207336      -0.12415311
O        0.85740016       3.08617905       8.13309719       39      -0.00517703      -0.38207336       0.12415311
40
Lattice="4.709487385882249 2.055680378954768e-42 -4.607633580263e-80 -2.0148960284682435e-42 4.703017709615021 -1.072041326950087e-37 1.2239328581821766e-82 -3.3431699175455984e-37 14.907406387317694" Properties=species:S:1:pos:R:3:spacegroup_kinds:I:1:forces:R:3 spacegroup="P 1" unit_cell=conventional occupancy="_JSON {\"0\": {\"In\": 1}, \"1\": {\"In\": 1}, \"2\": {\"In\": 1}, \"3\": {\"In\": 1}, \"4\": {\"In\": 1}, \"5\": {\"In\": 1}, \"6\": {\"In\": 1}, \"7\": {\"In\": 1}, \"8\": {\"In\": 1}, \"9\": {\"In\": 1}, \"10\": {\"In\": 1}, \"11\": {\"In\": 1}, \"12\": {\"In\": 1}, \"13\": {\"In\": 1}, \"14\": {\"In\": 1}, \"15\": {\"In\": 1}, \"16\": {\"O\": 1}, \"17\": {\"O\": 1}, \"18\": {\"O\": 1}, \"19\": {\"O\": 1}, \"20\": {\"O\": 1}, \"21\": {\"O\": 1}, \"22\": {\"O\": 1}, \"23\": {\"O\": 1}, \"24\": {\"O\": 1}, \"25\": {\"O\": 1}, \"26\": {\"O\": 1}, \"27\": {\"O\": 1}, \"28\": {\"O\": 1}, \"29\": {\"O\": 1}, \"30\": {\"O\": 1}, \"31\": {\"O\": 1}, \"32\": {\"O\": 1}, \"33\": {\"O\": 1}, \"34\": {\"O\": 1}, \"35\": {\"O\": 1}, \"36\": {\"O\": 1}, \"37\": {\"O\": 1}, \"38\": {\"O\": 1}, \"39\": {\"O\": 1}}" n_minim_iter=3 energy=-45171.315950263124 stress="-0.4436643725533614 -2.1734132144467437e-12 3.11484296996408e-12 -2.1734132144467437e-12 -0.39949185189431785 -2.0014164855483022e-12 3.11484296996408e-12 -2.0014164855483022e-12 -0.3846353018462739" free_energy=-45171.315950263124 pbc="T T T"
In       2.42987822       3.86835180       8.52984411        0       0.32167915      -0.38473572      -0.13039301
In       0.07513453       3.18617477       6.37756228        1       0.32167915       0.38473572       0.13039301
In       2.27960916       1.51684294      13.83126547        2      -0.32167915      -0.38473572       0.13039301
In       4.63435286       0.83466591       1.07614092        3      -0.32167915       0.38473572      -0.13039301
In       2.27960916       0.83466591       6.37756228        4      -0.32167915       0.38473572       0.13039301
In       4.63435286       1.51684294       8.52984411        5      -0.32167915      -0.38473572      -0.13039301
In       2.42987822       3.18617477       1.07614092        6       0.32167915       0.38473572      -0.13039301
In       0.07513453       3.86835180      13.83126547        7       0.32167915      -0.38473572       0.13039301
In       2.47481185       3.53614531      12.36872609        8       0.44635405       0.18618945       0.04377825
In       4.82955554       3.51838125       2.53868030        9       0.44635405      -0.18618945      -0.04377825
In       2.23467553       1.18463646       9.99238349       10      -0.44635405       0.18618945      -0.04377825
In      -0.12006816       1.16687240       4.91502290       11      -0.44635405      -0.18618945       0.04377825
In       2.23467553       1.16687240       2.53868030       12      -0.44635405      -0.18618945      -0.04377825
In      -0.12006816       1.18463646      12.36872609       13      -0.44635405       0.18618945       0.04377825
In       2.47481185       3.51838125       4.91502290       14       0.44635405      -0.18618945       0.04377825
In       4.82955554       3.53614531       9.99238349       15       0.44635405       0.18618945      -0.04377825
O        3.92504619       4.38584311      11.48115523       16      -0.29092926       0.01560764      -0.31926579
O        1.57030250       2.66868346       3.42625116       17      -0.29092926      -0.01560764       0.31926579
O        0.78444119       2.03433425      10.87995435       18       0.29092926       0.01560764       0.31926579
O        3.13918489       0.31717460       4.02745204       19       0.29092926      -0.01560764      -0.31926579
O        0.78444119       0.31717460       3.42625116       20       0.29092926      -0.01560764       0.31926579
O        3.13918489       2.03433425      11.48115523       21       0.29092926       0.01560764      -0.31926579
O        3.92504619       2.66868346       4.02745204       22      -0.29092926      -0.01560764      -0.31926579
O        1.57030250       4.38584311      10.87995435       23      -0.29092926       0.01560764       0.31926579
O        3.32115046       2.49701473       9.34678099       24       0.74629447       0.14092531       0.12506312
O        0.96640676       4.55751183       5.56062540       25       0.74629447      -0.14092531      -0.12506312
O        1.38833693       0.14550588      13.01432859       26      -0.74629447       0.14092531      -0.12506312
O        3.74308062       2.20600298       1.89307779       27      -0.74629447      -0.14092531       0.12506312
O        1.38833693       2.20600298       5.56062540       28      -0.74629447      -0.14092531      -0.12506312
O        3.74308062       0.14550588       9.34678099       29      -0.74629447       0.14092531       0.12506312
O        3.32115046       4.55751183       1.89307779       30       0.74629447      -0.14092531       0.12506312
O        0.96640676       2.49701473      13.01432859       31       0.74629447       0.14092531      -0.12506312
O        3.20856897       3.08422972      14.19652868       32      -0.14151600      -0.30888088       0.12621276
O        0.85382528       3.97029685       0.71087771       33      -0.14151600       0.30888088      -0.12621276
O        1.50091841       0.73272086       8.16458090       34       0.14151600      -0.30888088      -0.12621276
O        3.85566210       1.61878799       6.74282548       35       0.14151600       0.30888088       0.12621276
O        1.50091841       1.61878799       0.71087771       36       0.14151600       0.30888088      -0.12621276
O        3.85566210       0.73272086      14.19652868       37       0.14151600      -0.30888088       0.12621276
O        3.20856897       3.97029685       6.74282548       38      -0.14151600       0.30888088       0.12621276
O        0.85382528       3.08422972       8.16458090       39      -0.14151600      -0.30888088      -0.12621276
40
Lattice="4.724516095099805 2.0633209377779517e-42 -4.495200684792388e-80 -2.0105028830202656e-42 4.695614724592276 -1.0519819660127517e-37 1.184940416550526e-82 -3.2797877736271014e-37 14.883413723681722" Properties=species:S:1:pos:R:3:spacegroup_kinds:I:1:forces:R:3 spacegroup="P 1" unit_cell=conventional occupancy="_JSON {\"0\": {\"In\": 1}, \"1\": {\"In\": 1}, \"2\": {\"In\": 1}, \"3\": {\"In\": 1}, \"4\": {\"In\": 1}, \"5\": {\"In\": 1}, \"6\": {\"In\": 1}, \"7\": {\"In\": 1}, \"8\": {\"In\": 1}, \"9\": {\"In\": 1}, \"10\": {\"In\": 1}, \"11\": {\"In\": 1}, \"12\": {\"In\": 1}, \"13\": {\"In\": 1}, \"14\": {\"In\": 1}, \"15\": {\"In\": 1}, \"16\": {\"O\": 1}, \"17\": {\"O\": 1}, \"18\": {\"O\": 1}, \"19\": {\"O\": 1}, \"20\": {\"O\": 1}, \"21\": {\"O\": 1}, \"22\": {\"O\": 1}, \"23\": {\"O\": 1}, \"24\": {\"O\": 1}, \"25\": {\"O\": 1}, \"26\": {\"O\": 1}, \"27\": {\"O\": 1}, \"28\": {\"O\": 1}, \"29\": {\"O\": 1}, \"30\": {\"O\": 1}, \"31\": {\"O\": 1}, \"32\": {\"O\": 1}, \"33\": {\"O\": 1}, \"34\": {\"O\": 1}, \"35\": {\"O\": 1}, \"36\": {\"O\": 1}, \"37\": {\"O\": 1}, \"38\": {\"O\": 1}, \"39\": {\"O\": 1}}" n_minim_iter=4 energy=-45171.374971695215 stress="-0.3939677126010272 1.2072920313134362e-12 -2.0671629071059963e-12 1.2072920313134362e-12 -0.39526128995022686 -1.1740459756063805e-12 -2.0671629071059963e-12 -1.1740459756063805e-12 -0.39490443363519867" free_energy=-45171.374971695215 pbc="T T T"
In       2.43601722       3.86223339       8.51526072        0       0.38868130      -0.89002304       0.01996607
In       0.07375917       3.18118870       6.36815301        1       0.38868130       0.89002304      -0.01996607
In       2.28849888       1.51442602      13.80985987        2      -0.38868130      -0.89002304      -0.01996607
In       4.65075692       0.83338134       1.07355386        3      -0.38868130       0.89002304       0.01996607
In       2.28849888       0.83338134       6.36815301        4      -0.38868130       0.89002304      -0.01996607
In       4.65075692       1.51442602       8.51526072        5      -0.38868130      -0.89002304       0.01996607
In       2.43601722       3.18118870       1.07355386        6       0.38868130       0.89002304       0.01996607
In       0.07375917       3.86223339      13.80985987        7       0.38868130      -0.89002304      -0.01996607
In       2.48538347       3.52947157      12.35380728        8       0.20858294       0.60428277      -0.18984935
In       4.84764152       3.51395052       2.52960644        9       0.20858294      -0.60428277       0.18984935
In       2.23913262       1.18166421       9.97131330       10      -0.20858294       0.60428277       0.18984935
In      -0.12312542       1.16614315       4.91210042       11      -0.20858294      -0.60428277      -0.18984935
In       2.23913262       1.16614315       2.52960644       12      -0.20858294      -0.60428277       0.18984935
In      -0.12312542       1.18166421      12.35380728       13      -0.20858294       0.60428277      -0.18984935
In       2.48538347       3.51395052       4.91210042       14       0.20858294      -0.60428277      -0.18984935
In       4.84764152       3.52947157       9.97131330       15       0.20858294       0.60428277       0.18984935
O        3.93483721       4.37934158      11.46109203       16      -0.13858334      -0.05736167      -0.15474272
O        1.57257917       2.66408051       3.42232170       17      -0.13858334       0.05736167       0.15474272
O        0.78967888       2.03153421      10.86402856       18       0.13858334      -0.05736167       0.15474272
O        3.15193693       0.31627315       4.01938516       19       0.13858334       0.05736167      -0.15474272
O        0.78967888       0.31627315       3.42232170       20       0.13858334       0.05736167       0.15474272
O        3.15193693       2.03153421      11.46109203       21       0.13858334      -0.05736167      -0.15474272
O        3.93483721       2.66408051       4.01938516       22      -0.13858334       0.05736167      -0.15474272
O        1.57257917       4.37934158      10.86402856       23      -0.13858334      -0.05736167       0.15474272
O        3.33800414       2.49310000       9.33363190       24       0.15943051       0.06629913      -0.01682307
O        0.97574609       4.55032209       5.54978182       25       0.15943051      -0.06629913       0.01682307
O        1.38651196       0.14529264      12.99148868       26      -0.15943051       0.06629913       0.01682307
O        3.74877001       2.20251472       1.89192504       27      -0.15943051      -0.06629913      -0.01682307
O        1.38651196       2.20251472       5.54978182       28      -0.15943051      -0.06629913       0.01682307
O        3.74877001       0.14529264       9.33363190       29      -0.15943051       0.06629913      -0.01682307
O        3.33800414       4.55032209       1.89192504       30       0.15943051      -0.06629913      -0.01682307
O        0.97574609       2.49310000      12.99148868       31       0.15943051       0.06629913       0.01682307
O        3.21872343       3.07693974      14.17312483       32       0.03045414      -0.22108083       0.26735492
O        0.85646539       3.96648235       0.71028889       33       0.03045414       0.22108083      -0.26735492
O        1.50579266       0.72913238       8.15199576       34      -0.03045414      -0.22108083      -0.26735492
O        3.86805071       1.61867498       6.73141797       35      -0.03045414       0.22108083       0.26735492
O        1.50579266       1.61867498       0.71028889       36      -0.03045414       0.22108083      -0.26735492
O        3.86805071       0.72913238      14.17312483       37      -0.03045414      -0.22108083       0.26735492
O        3.21872343       3.96648235       6.73141797       38       0.03045414       0.22108083       0.26735492
O        0.85646539       3.07693974       8.15199576       39       0.03045414      -0.22108083      -0.26735492
40
Lattice="4.721180144950761 2.0617526943910234e-42 -4.599495522750786e-80 -2.006885827783437e-42 4.687014482948696 -1.0768654003698878e-37 1.2110502845149001e-82 -3.3442716459853845e-37 14.921259226921853" Properties=species:S:1:pos:R:3:spacegroup_kinds:I:1:forces:R:3 spacegroup="P 1" unit_cell=conventional occupancy="_JSON {\"0\": {\"In\": 1}, \"1\": {\"In\": 1}, \"2\": {\"In\": 1}, \"3\": {\"In\": 1}, \"4\": {\"In\": 1}, \"5\": {\"In\": 1}, \"6\": {\"In\": 1}, \"7\": {\"In\": 1}, \"8\": {\"In\": 1}, \"9\": {\"In\": 1}, \"10\": {\"In\": 1}, \"11\": {\"In\": 1}, \"12\": {\"In\": 1}, \"13\": {\"In\": 1}, \"14\": {\"In\": 1}, \"15\": {\"In\": 1}, \"16\": {\"O\": 1}, \"17\": {\"O\": 1}, \"18\": {\"O\": 1}, \"19\": {\"O\": 1}, \"20\": {\"O\": 1}, \"21\": {\"O\": 1}, \"22\": {\"O\": 1}, \"23\": {\"O\": 1}, \"24\": {\"O\": 1}, \"25\": {\"O\": 1}, \"26\": {\"O\": 1}, \"27\": {\"O\": 1}, \"28\": {\"O\": 1}, \"29\": {\"O\": 1}, \"30\": {\"O\": 1}, \"31\": {\"O\": 1}, \"32\": {\"O\": 1}, \"33\": {\"O\": 1}, \"34\": {\"O\": 1}, \"35\": {\"O\": 1}, \"36\": {\"O\": 1}, \"37\": {\"O\": 1}, \"38\": {\"O\": 1}, \"39\": {\"O\": 1}}" n_minim_iter=5 energy=-45171.49408526612 stress="-0.3649362575696927 -4.097995883425465e-12 1.675076015682735e-12 -4.097995883425465e-12 -0.3664840572319958 2.0942303792093443e-12 1.675076015682735e-12 2.0942303792093443e-12 -0.3667326564335371" free_energy=-45171.49408526612 pbc="T T T"
In       2.43721775       3.84241225       8.53588314        0       0.14436120      -0.12233523      -0.34923489
In       0.07662768       3.18810947       6.38537609        1       0.14436120       0.12233523       0.34923489
In       2.28396240       1.49890501      13.84600570        2      -0.14436120      -0.12233523       0.34923489
In       4.64455247       0.84460223       1.07525353        3      -0.14436120       0.12233523      -0.34923489
In       2.28396240       0.84460223       6.38537609        4      -0.14436120       0.12233523       0.34923489
In       4.64455247       1.49890501       8.53588314        5      -0.14436120      -0.12233523      -0.34923489
In       2.43721775       3.18810947       1.07525353        6       0.14436120       0.12233523      -0.34923489
In       0.07662768       3.84241225      13.84600570        7       0.14436120      -0.12233523       0.34923489
In       2.49079124       3.52987594      12.39049721        8       0.06302521       0.29882613      -0.17402518
In       4.85138132       3.50064579       2.53076202        9       0.06302521      -0.29882613       0.17402518
In       2.23038890       1.18636870       9.99139163       10      -0.06302521       0.29882613       0.17402518
In      -0.13020117       1.15713855       4.92986759       11      -0.06302521      -0.29882613      -0.17402518
In       2.23038890       1.15713855       2.53076202       12      -0.06302521      -0.29882613       0.17402518
In      -0.13020117       1.18636870      12.39049721       13      -0.06302521       0.29882613      -0.17402518
In       2.49079124       3.50064579       4.92986759       14       0.06302521      -0.29882613      -0.17402518
In       4.85138132       3.52987594       9.99139163       15       0.06302521       0.29882613       0.17402518
O        3.92580955       4.37112947      11.48553518       16       0.09072634       0.25249469       0.10326552
O        1.56521948       2.65939226       3.43572405       17       0.09072634      -0.25249469      -0.10326552
O        0.79537059       2.02762223      10.89635366       18      -0.09072634       0.25249469      -0.10326552
O        3.15596066       0.31588502       4.02490557       19      -0.09072634      -0.25249469       0.10326552
O        0.79537059       0.31588502       3.43572405       20      -0.09072634      -0.25249469      -0.10326552
O        3.15596066       2.02762223      11.48553518       21      -0.09072634       0.25249469       0.10326552
O        3.92580955       2.65939226       4.02490557       22       0.09072634      -0.25249469       0.10326552
O        1.56521948       4.37112947      10.89635366       23       0.09072634       0.25249469      -0.10326552
O        3.34777371       2.48948997       9.36012333       24       0.06966263      -0.27615462       0.01389013
O        0.98718364       4.54103175       5.56113589       25       0.06966263       0.27615462      -0.01389013
O        1.37340644       0.14598273      13.02176551       26      -0.06966263      -0.27615462      -0.01389013
O        3.73399651       2.19752451       1.89949372       27      -0.06966263       0.27615462       0.01389013
O        1.37340644       2.19752451       5.56113589       28      -0.06966263       0.27615462      -0.01389013
O        3.73399651       0.14598273       9.36012333       29      -0.06966263      -0.27615462       0.01389013
O        3.34777371       4.54103175       1.89949372       30       0.06966263       0.27615462       0.01389013
O        0.98718364       2.48948997      13.02176551       31       0.06966263      -0.27615462      -0.01389013
O        3.21678470       3.06427085      14.21208217       32      -0.07513561      -0.41037365       0.20917628
O        0.85619463       3.96625087       0.70917705       33      -0.07513561       0.41037365      -0.20917628
O        1.50439544       0.72076361       8.16980667       34       0.07513561      -0.41037365      -0.20917628
O        3.86498552       1.62274363       6.75145256       35       0.07513561       0.41037365       0.20917628
O        1.50439544       1.62274363       0.70917705       36       0.07513561       0.41037365      -0.20917628
O        3.86498552       0.72076361      14.21208217       37       0.07513561      -0.41037365       0.20917628
O        3.21678470       3.96625087       6.75145256       38      -0.07513561       0.41037365       0.20917628
O        0.85619463       3.06427085       8.16980667       39      -0.07513561      -0.41037365      -0.20917628
40