40
Lattice="4.944565040490698 2.1204431252439568e-42 -2.8960423630257556e-78 -2.087493281819487e-42 4.935671429718551 -6.921328879078595e-36 1.325285642732206e-80 -1.981295699009214e-35 15.30956557082693" Properties=species:S:1:pos:R:3:spacegroup_kinds:I:1:forces:R:3 spacegroup="P 1" unit_cell=conventional occupancy="_JSON {\"0\": {\"In\": 1}, \"1\": {\"In\": 1}, \"2\": {\"In\": 1}, \"3\": {\"In\": 1}, \"4\": {\"In\": 1}, \"5\": {\"In\": 1}, \"6\": {\"In\": 1}, \"7\": {\"In\": 1}, \"8\": {\"In\": 1}, \"9\": {\"In\": 1}, \"10\": {\"In\": 1}, \"11\": {\"In\": 1}, \"12\": {\"In\": 1}, \"13\": {\"In\": 1}, \"14\": {\"In\": 1}, \"15\": {\"In\": 1}, \"16\": {\"O\": 1}, \"17\": {\"O\": 1}, \"18\": {\"O\": 1}, \"19\": {\"O\": 1}, \"20\": {\"O\": 1}, \"21\": {\"O\": 1}, \"22\": {\"O\": 1}, \"23\": {\"O\": 1}, \"24\": {\"O\": 1}, \"25\": {\"O\": 1}, \"26\": {\"O\": 1}, \"27\": {\"O\": 1}, \"28\": {\"O\": 1}, \"29\": {\"O\": 1}, \"30\": {\"O\": 1}, \"31\": {\"O\": 1}, \"32\": {\"O\": 1}, \"33\": {\"O\": 1}, \"34\": {\"O\": 1}, \"35\": {\"O\": 1}, \"36\": {\"O\": 1}, \"37\": {\"O\": 1}, \"38\": {\"O\": 1}, \"39\": {\"O\": 1}}" n_minim_iter=16 energy=-45169.71129405209 stress="0.29895005272127806 2.0419390779802392e-12 -1.3087801036341086e-13 2.0419390779802392e-12 0.2989391656064738 1.286817884011862e-13 -1.3087801036341086e-13 1.286817884011862e-13 0.2989184853851135" free_energy=-45169.71129405209 pbc="T T T"
In       2.57171080       4.07469243       8.75899092        0      -0.00512795      -0.00502517       0.00200329
In       0.09942828       3.32881472       6.55057465        1      -0.00512795       0.00502517      -0.00200329
In       2.37285424       1.60685671      14.20535744        2       0.00512795      -0.00502517      -0.00200329
In       4.84513676       0.86097900       1.10420813        3       0.00512795       0.00502517       0.00200329
In       2.37285424       0.86097900       6.55057465        4       0.00512795       0.00502517      -0.00200329
In       4.84513676       1.60685671       8.75899092        5       0.00512795      -0.00502517       0.00200329
In       2.57171080       3.32881472       1.10420813        6      -0.00512795       0.00502517       0.00200329
In       0.09942828       4.07469243      14.20535744        7      -0.00512795      -0.00502517      -0.00200329
In       2.60406002       3.72003918      12.63644571        8       0.00040597      -0.00178907       0.00005299
In       5.07634254       3.68346796       2.67311986        9       0.00040597       0.00178907      -0.00005299
In       2.34050502       1.25220347      10.32790265       10      -0.00040597      -0.00178907      -0.00005299
In      -0.13177750       1.21563224       4.98166292       11      -0.00040597       0.00178907       0.00005299
In       2.34050502       1.21563224       2.67311986       12      -0.00040597       0.00178907      -0.00005299
In      -0.13177750       1.25220347      12.63644571       13      -0.00040597      -0.00178907       0.00005299
In       2.60406002       3.68346796       4.98166292       14       0.00040597       0.00178907       0.00005299
In       5.07634254       3.72003918      10.32790265       15       0.00040597      -0.00178907      -0.00005299
O        4.16668233       4.59937147      11.79405054       16       0.00095059      -0.00102099       0.00456839
O        1.69439981       2.80413568       3.51551503       17       0.00095059       0.00102099      -0.00456839
O        0.77788271       2.13153575      11.17029781       18      -0.00095059      -0.00102099      -0.00456839
O        3.25016523       0.33629996       4.13926776       19      -0.00095059       0.00102099       0.00456839
O        0.77788271       0.33629996       3.51551503       20      -0.00095059       0.00102099      -0.00456839
O        3.25016523       2.13153575      11.79405054       21      -0.00095059      -0.00102099       0.00456839
O        4.16668233       2.80413568       4.13926776       22       0.00095059       0.00102099       0.00456839
O        1.69439981       4.59937147      11.17029781       23       0.00095059      -0.00102099      -0.00456839
O        3.39672810       2.59263533       9.58488840       24       0.00291207      -0.00598745       0.00184437
O        0.92444558       4.81087182       5.72467717       25       0.00291207       0.00598745      -0.00184437
O        1.54783695       0.12479961      13.37945996       26      -0.00291207      -0.00598745      -0.00184437
O        4.02011947       2.34303610       1.93010561       27      -0.00291207       0.00598745       0.00184437
O        1.54783695       2.34303610       5.72467717       28      -0.00291207       0.00598745      -0.00184437
O        4.02011947       0.12479961       9.58488840       29      -0.00291207      -0.00598745       0.00184437
O        3.39672810       4.81087182       1.93010561       30       0.00291207       0.00598745       0.00184437
O        0.92444558       2.59263533      13.37945996       31       0.00291207      -0.00598745      -0.00184437
O        3.35072384       3.29207434      14.56123353       32      -0.00866446      -0.00305440       0.00377280
O        0.87844132       4.11143280       0.74833204       33      -0.00866446       0.00305440      -0.00377280
O        1.59384120       0.82423863       8.40311483       34       0.00866446      -0.00305440      -0.00377280
O        4.06612372       1.64359709       6.90645074       35       0.00866446       0.00305440       0.00377280
O        1.59384120       1.64359709       0.74833204       36       0.00866446       0.00305440      -0.00377280
O        4.06612372       0.82423863      14.56123353       37       0.00866446      -0.00305440       0.00377280
O        3.35072384       4.11143280       6.90645074       38      -0.00866446       0.00305440       0.00377280
O        0.87844132       3.29207434       8.40311483       39      -0.00866446      -0.00305440      -0.00377280
