40
Lattice="4.274097533949341 2.429835060771193e-42 7.017670043239948e-40 -5.551874778679305e-45 4.257981363821928 1.2098092885479645e-14 9.63457884147315e-40 -4.227671125633398e-14 17.187909659829476" Properties=species:S:1:pos:R:3:spacegroup_kinds:I:1:forces:R:3 spacegroup="P 1" unit_cell=conventional occupancy="_JSON {\"0\": {\"In\": 1}, \"1\": {\"In\": 1}, \"2\": {\"In\": 1}, \"3\": {\"In\": 1}, \"4\": {\"In\": 1}, \"5\": {\"In\": 1}, \"6\": {\"In\": 1}, \"7\": {\"In\": 1}, \"8\": {\"In\": 1}, \"9\": {\"In\": 1}, \"10\": {\"In\": 1}, \"11\": {\"In\": 1}, \"12\": {\"In\": 1}, \"13\": {\"In\": 1}, \"14\": {\"In\": 1}, \"15\": {\"In\": 1}, \"16\": {\"O\": 1}, \"17\": {\"O\": 1}, \"18\": {\"O\": 1}, \"19\": {\"O\": 1}, \"20\": {\"O\": 1}, \"21\": {\"O\": 1}, \"22\": {\"O\": 1}, \"23\": {\"O\": 1}, \"24\": {\"O\": 1}, \"25\": {\"O\": 1}, \"26\": {\"O\": 1}, \"27\": {\"O\": 1}, \"28\": {\"O\": 1}, \"29\": {\"O\": 1}, \"30\": {\"O\": 1}, \"31\": {\"O\": 1}, \"32\": {\"O\": 1}, \"33\": {\"O\": 1}, \"34\": {\"O\": 1}, \"35\": {\"O\": 1}, \"36\": {\"O\": 1}, \"37\": {\"O\": 1}, \"38\": {\"O\": 1}, \"39\": {\"O\": 1}}" n_minim_iter=6 energy=-45276.73701859353 stress="0.6245054183607736 -1.7815970202076771e-12 1.7642219025021746e-13 -1.7815970202076771e-12 0.6247343207991222 -2.386077674452968e-12 1.7642219025021746e-13 -2.386077674452968e-12 0.6245160783003787" free_energy=-45276.73701859353 pbc="T T T"
In       2.08081505       3.19348358       9.70708625        0       0.00822681       0.00000000       0.00246219
In      -0.05623372       3.19348358       7.48084777        1       0.00822681      -0.00000000      -0.00246219
In       2.19324431       1.06449289      16.07480260        2      -0.00822681       0.00000000      -0.00246219
In       4.33029308       1.06449289       1.11313142        3      -0.00822681      -0.00000000       0.00246219
In       2.19324431       1.06449289       7.48084777        4      -0.00822681      -0.00000000      -0.00246219
In       4.33029308       1.06449289       9.70708625        5      -0.00822681      -0.00000000       0.00246219
In       2.08081505       3.19348358       1.11313142        6       0.00822681       0.00000000       0.00246219
In      -0.05623372       3.19348358      16.07480260        7       0.00822681       0.00000000      -0.00246219
In       2.19324431       3.19348358      14.00406367        8      -0.00822681      -0.00000000       0.00246219
In       4.33029308       3.19348358       3.18387035        9      -0.00822681       0.00000000      -0.00246219
In       2.08081505       1.06449289      11.77782518       10       0.00822681      -0.00000000      -0.00246219
In      -0.05623372       1.06449289       5.41010884       11       0.00822681      -0.00000000       0.00246219
In       2.08081505       1.06449289       3.18387035       12       0.00822681       0.00000000      -0.00246219
In      -0.05623372       1.06449289      14.00406367       13       0.00822681      -0.00000000       0.00246219
In       2.19324431       3.19348358       5.41010884       14      -0.00822681      -0.00000000       0.00246219
In       4.33029308       3.19348358      11.77782518       15      -0.00822681       0.00000000      -0.00246219
O        3.20555406       4.25797892      12.86735126       16       0.00000000      -0.00000000       0.00628697
O        1.06850530       2.12898823       4.32058275       17       0.00000000      -0.00000000      -0.00628697
O        1.06850530       2.12898823      12.91453758       18      -0.00000000       0.00000000      -0.00628697
O        3.20555406      -0.00000245       4.27339643       19      -0.00000000      -0.00000000       0.00628697
O        1.06850530      -0.00000245       4.32058275       20      -0.00000000       0.00000000      -0.00628697
O        3.20555406       2.12898823      12.86735126       21      -0.00000000      -0.00000000       0.00628697
O        3.20555406       2.12898823       4.27339643       22      -0.00000000      -0.00000000       0.00628697
O        1.06850530       4.25797892      12.91453758       23       0.00000000      -0.00000000      -0.00628697
O        3.20555406       2.12898823      10.74245572       24      -0.00000000       0.00000000      -0.00000000
O        1.06850530       4.25797892       6.44547830       25      -0.00000000       0.00000000       0.00000000
O        1.06850530      -0.00000245      15.03943313       26       0.00000000       0.00000000      -0.00000000
O        3.20555406       2.12898823       2.14850089       27       0.00000000       0.00000000      -0.00000000
O        1.06850530       2.12898823       6.44547830       28      -0.00000000       0.00000000       0.00000000
O        3.20555406      -0.00000245      10.74245572       29       0.00000000       0.00000000       0.00000000
O        3.20555406       4.25797892       2.14850089       30       0.00000000       0.00000000       0.00000000
O        1.06850530       2.12898823      15.03943313       31      -0.00000000      -0.00000000       0.00000000
O        3.20555406       2.12898823      17.21151500       32       0.00000000       0.00000000      -0.00628697
O        1.06850530       4.25797892      -0.02358098       33       0.00000000      -0.00000000       0.00628697
O        1.06850530      -0.00000245       8.57037385       34       0.00000000      -0.00000000       0.00628697
O        3.20555406       2.12898823       8.61756017       35      -0.00000000       0.00000000      -0.00628697
O        1.06850530       2.12898823      -0.02358098       36      -0.00000000      -0.00000000       0.00628697
O        3.20555406      -0.00000245      17.21151500       37       0.00000000       0.00000000      -0.00628697
O        3.20555406       4.25797892       8.61756017       38       0.00000000      -0.00000000      -0.00628697
O        1.06850530       2.12898823       8.57037385       39       0.00000000       0.00000000       0.00628697
