10
Lattice="5.015471624069984 -0.3551938978458422 -0.24525639528782617 2.4551549777969686 4.387861934008055 -0.24525639528782306 2.4551549777969726 1.325300477514444 4.190114759245437" Properties=species:S:1:pos:R:3:spacegroup_kinds:I:1:forces:R:3 spacegroup="P 1" unit_cell=conventional occupancy="_JSON {\"0\": {\"In\": 1}, \"1\": {\"In\": 1}, \"2\": {\"In\": 1}, \"3\": {\"In\": 1}, \"4\": {\"O\": 1}, \"5\": {\"O\": 1}, \"6\": {\"O\": 1}, \"7\": {\"O\": 1}, \"8\": {\"O\": 1}, \"9\": {\"O\": 1}}" n_minim_iter=1 energy=-11282.753135426598 stress="-0.6290802979662247 0.005769126874417715 0.0039835010401547384 0.005769126874417715 -0.6366535684682512 0.0021503065495027886 0.0039835010401547384 0.0021503065495027886 -0.6382830050736388" free_energy=-11282.753135426598 pbc="T T T"
In       8.66273811       4.67617363       3.22883218        0      -0.02071143      -0.01118009      -0.00771970
In       6.22593425       3.36077914       2.32057077        1       0.02071143       0.01118009       0.00771970
In       3.69984732       1.99718937       1.37903119        2      -0.02071142      -0.01118009      -0.00771970
In       1.26304346       0.68179488       0.47076979        3       0.02071143       0.01118009       0.00771970
O        4.98918120       1.81598990      -0.14502392        4      -0.00000000      -0.18507723       0.26803909
O        5.66993224       4.36883694       0.67964410        5       0.15472548      -0.28663315      -0.00000000
O        6.76358514       1.46562935       1.95003346        6      -0.15472548       0.10155592       0.26803909
O        3.16219643       3.89233916       1.74956851        7       0.15472548      -0.10155592      -0.26803909
O        4.93660037       3.54197861       3.84462589        8      -0.00000000       0.18507723      -0.26803909
O        4.25584933       0.98913158       3.01995787        9      -0.15472548       0.28663315      -0.00000000
10
Lattice="4.9970836001350465 -0.376676132654271 -0.26008957655528264 2.427105811961072 4.3842772258600196 -0.26008957655527964 2.4271058119610758 1.310159448450139 4.1920180821013115" Properties=species:S:1:pos:R:3:spacegroup_kinds:I:1:forces:R:3 spacegroup="P 1" unit_cell=conventional occupancy="_JSON {\"0\": {\"In\": 1}, \"1\": {\"In\": 1}, \"2\": {\"In\": 1}, \"3\": {\"In\": 1}, \"4\": {\"O\": 1}, \"5\": {\"O\": 1}, \"6\": {\"O\": 1}, \"7\": {\"O\": 1}, \"8\": {\"O\": 1}, \"9\": {\"O\": 1}}" n_minim_iter=2 energy=-11282.761635725192 stress="-0.6285325021544442 -0.0026245831295465863 -0.0018122377717034576 -0.0026245831295465863 -0.6250871492548895 -0.0009782517206604578 -0.0018122377717034576 -0.0009782517206604578 -0.6243458599879298" free_energy=-11282.761635725192 pbc="T T T"
In       8.59757743       4.64099969       3.20454507        0       0.12471924       0.06732385       0.04648617
In       6.17936539       3.33564112       2.30321332        1      -0.12471924      -0.06732385      -0.04648617
In       3.67192982       1.98211942       1.36862560        2       0.12471924       0.06732385       0.04648617
In       1.25371778       0.67676085       0.46729386        3      -0.12471924      -0.06732385      -0.04648617
O        4.96136560       1.79628567      -0.16095824        4      -0.00000000      -0.23234886       0.33650049
O        5.62718175       4.34793783       0.65787015        5       0.19424481      -0.35984376       0.00000000
O        6.72265526       1.43666824       1.93505080        6      -0.19424481       0.12749490       0.33650049
O        3.12863995       3.88109230       1.73678812        7       0.19424481      -0.12749490      -0.33650049
O        4.88992961       3.52147487       3.83279716        8       0.00000000       0.23234886      -0.33650049
O        4.22411346       0.96982271       3.01396877        9      -0.19424481       0.35984376      -0.00000000
10
Lattice="4.989753316953125 -0.38528951436525244 -0.266036995591716 2.415882695389985 4.382875423285469 -0.266036995591713 2.415882695389989 1.3041011743756412 4.192814423040366" Properties=species:S:1:pos:R:3:spacegroup_kinds:I:1:forces:R:3 spacegroup="P 1" unit_cell=conventional occupancy="_JSON {\"0\": {\"In\": 1}, \"1\": {\"In\": 1}, \"2\": {\"In\": 1}, \"3\": {\"In\": 1}, \"4\": {\"O\": 1}, \"5\": {\"O\": 1}, \"6\": {\"O\": 1}, \"7\": {\"O\": 1}, \"8\": {\"O\": 1}, \"9\": {\"O\": 1}}" n_minim_iter=3 energy=-11282.772856059662 stress="-0.6162241734657748 -0.0006585359932188901 -0.00045470984979855154 -0.0006585359932188901 -0.6153596975555784 -0.00024545382461575634 -0.00045470984979855154 -0.00024545382461575634 -0.6151737001453481" free_energy=-11282.772856059662 pbc="T T T"
In       8.57321141       4.62784683       3.19546320        0      -0.11480549      -0.06197237      -0.04279105
In       6.15906664       3.32468379       2.29564744        1       0.11480549       0.06197237       0.04279105
In       3.66245205       1.97700329       1.36509299        2      -0.11480549      -0.06197237      -0.04279105
In       1.24830729       0.67384025       0.46527722        3       0.11480549       0.06197237       0.04279105
O        4.95025633       1.78365431      -0.16046995        4      -0.00000000      -0.02204451       0.03192608
O        5.61406101       4.33224261       0.64914811        5       0.01842932      -0.03414081       0.00000000
O        6.70233434       1.42767701       1.93593726        6      -0.01842932       0.01209630       0.03192608
O        3.11918435       3.87401007       1.72480316        7       0.01842932      -0.01209630      -0.03192608
O        4.87126237       3.51803277       3.82121038        8       0.00000000       0.02204451      -0.03192608
O        4.20745768       0.96944447       3.01159232        9      -0.01842932       0.03414081       0.00000000
10
Lattice="4.9954445622883 -0.37859958671724214 -0.26141769455744096 2.424598418902253 4.383962423312381 -0.26141769455743813 2.4245984189022587 1.308805949690093 4.192194261493435" Properties=species:S:1:pos:R:3:spacegroup_kinds:I:1:forces:R:3 spacegroup="P 1" unit_cell=conventional occupancy="_JSON {\"0\": {\"In\": 1}, \"1\": {\"In\": 1}, \"2\": {\"In\": 1}, \"3\": {\"In\": 1}, \"4\": {\"O\": 1}, \"5\": {\"O\": 1}, \"6\": {\"O\": 1}, \"7\": {\"O\": 1}, \"8\": {\"O\": 1}, \"9\": {\"O\": 1}}" n_minim_iter=4 energy=-11282.775511856962 stress="-0.6141904195831751 0.0011028116358965479 0.0007614759385386804 0.0011028116358965479 -0.6156381067314249 0.0004110471366041722 0.0007614759385386804 0.0004110471366041722 -0.6159495856909883" free_energy=-11282.775511856962 pbc="T T T"
In       8.58737745       4.63549371       3.20074326        0      -0.04707013      -0.02540861      -0.01754429
In       6.17958463       3.33575947       2.30329504        1       0.04707013       0.02540861       0.01754429
In       3.66505675       1.97840931       1.36606383        2      -0.04707013      -0.02540861      -0.01754429
In       1.25726393       0.67867508       0.46861560        3       0.04707013       0.02540861       0.01754429
O        4.95888263       1.78701057      -0.15150288        4       0.00000000       0.02146054      -0.03108035
O        5.62964442       4.33443633       0.65592202        5      -0.01794112       0.03323641       0.00000000
O        6.71271925       1.43820083       1.94459425        6       0.01794112      -0.01177587      -0.03108035
O        3.13192213       3.87596795       1.72476461        7      -0.01794112       0.01177587       0.03108035
O        4.88575876       3.52715821       3.82086175        8       0.00000000      -0.02146054       0.03108035
O        4.21499697       0.97973246       3.01343685        9       0.01794112      -0.03323641      -0.00000000
10
Lattice="4.994434699281357 -0.3797853974995761 -0.26223648023966256 2.4230529412830677 4.383768853085105 -0.26223648023965973 2.4230529412830717 1.3079716959483871 4.192303349168027" Properties=species:S:1:pos:R:3:spacegroup_kinds:I:1:forces:R:3 spacegroup="P 1" unit_cell=conventional occupancy="_JSON {\"0\": {\"In\": 1}, \"1\": {\"In\": 1}, \"2\": {\"In\": 1}, \"3\": {\"In\": 1}, \"4\": {\"O\": 1}, \"5\": {\"O\": 1}, \"6\": {\"O\": 1}, \"7\": {\"O\": 1}, \"8\": {\"O\": 1}, \"9\": {\"O\": 1}}" n_minim_iter=5 energy=-11282.775689814238 stress="-0.6149317634364658 1.357172418577927e-05 9.371082965354736e-06 1.357172418577927e-05 -0.6149495793572551 5.058541237356632e-06 9.371082965354736e-06 5.058541237356632e-06 -0.6149534125666181" free_energy=-11282.775689814238 pbc="T T T"
In       8.58310325       4.63318648       3.19915016        0      -0.00161906      -0.00087398      -0.00060347
In       6.17770761       3.33474625       2.30259542        1       0.00161906       0.00087398       0.00060347
In       3.66283296       1.97720890       1.36523496        2      -0.00161906      -0.00087398      -0.00060347
In       1.25743732       0.67876867       0.46868023        3       0.00161906       0.00087398       0.00060347
O        4.95735249       1.78609082      -0.15262251        4       0.00000000       0.00136133      -0.00197155
O        5.62715213       4.33354411       0.65472112        5      -0.00113808       0.00210832       0.00000000
O        6.71060579       1.43651307       1.94352916        6       0.00113808      -0.00074699      -0.00197155
O        3.12993478       3.87544208       1.72430122        7      -0.00113808       0.00074699       0.00197155
O        4.88318808       3.52586433       3.82045290        8      -0.00000000      -0.00136133       0.00197155
O        4.21338844       0.97841104       3.01310927        9       0.00113808      -0.00210832      -0.00000000
