10
Lattice="4.994434699281357 -0.3797853974995761 -0.26223648023966256 2.4230529412830677 4.383768853085105 -0.26223648023965973 2.4230529412830717 1.3079716959483871 4.192303349168027" Properties=species:S:1:pos:R:3:spacegroup_kinds:I:1:forces:R:3 spacegroup="P 1" unit_cell=conventional occupancy="_JSON {\"0\": {\"In\": 1}, \"1\": {\"In\": 1}, \"2\": {\"In\": 1}, \"3\": {\"In\": 1}, \"4\": {\"O\": 1}, \"5\": {\"O\": 1}, \"6\": {\"O\": 1}, \"7\": {\"O\": 1}, \"8\": {\"O\": 1}, \"9\": {\"O\": 1}}" n_minim_iter=5 energy=-11282.775689814238 stress="-0.6149317634364658 1.357172418577927e-05 9.371082965354736e-06 1.357172418577927e-05 -0.6149495793572551 5.058541237356632e-06 9.371082965354736e-06 5.058541237356632e-06 -0.6149534125666181" free_energy=-11282.775689814238 pbc="T T T"
In       8.58310325       4.63318648       3.19915016        0      -0.00161906      -0.00087398      -0.00060347
In       6.17770761       3.33474625       2.30259542        1       0.00161906       0.00087398       0.00060347
In       3.66283296       1.97720890       1.36523496        2      -0.00161906      -0.00087398      -0.00060347
In       1.25743732       0.67876867       0.46868023        3       0.00161906       0.00087398       0.00060347
O        4.95735249       1.78609082      -0.15262251        4       0.00000000       0.00136133      -0.00197155
O        5.62715213       4.33354411       0.65472112        5      -0.00113808       0.00210832       0.00000000
O        6.71060579       1.43651307       1.94352916        6       0.00113808      -0.00074699      -0.00197155
O        3.12993478       3.87544208       1.72430122        7      -0.00113808       0.00074699       0.00197155
O        4.88318808       3.52586433       3.82045290        8      -0.00000000      -0.00136133       0.00197155
O        4.21338844       0.97841104       3.01310927        9       0.00113808      -0.00210832      -0.00000000
