10
Lattice="5.859171461005225 0.03129548561161115 0.021609093051525644 3.241218561086576 4.881124036136103 0.02160909305152501 3.241218561086576 1.7496201036527557 4.556826560441183" Properties=species:S:1:pos:R:3:spacegroup_kinds:I:1:forces:R:3 spacegroup="P 1" unit_cell=conventional occupancy="_JSON {\"0\": {\"In\": 1}, \"1\": {\"In\": 1}, \"2\": {\"In\": 1}, \"3\": {\"In\": 1}, \"4\": {\"O\": 1}, \"5\": {\"O\": 1}, \"6\": {\"O\": 1}, \"7\": {\"O\": 1}, \"8\": {\"O\": 1}, \"9\": {\"O\": 1}}" n_minim_iter=7 energy=-11287.66668196317 stress="-0.010241708088130972 -3.3995255136862986e-06 -2.347323231004946e-06 -3.3995255136862986e-06 -0.010237245449744244 -1.267092138358374e-06 -2.347323231004946e-06 -1.267092138358374e-06 -0.010236285285473433" free_energy=-11287.66668196317 pbc="T T T"
In      10.57131493       5.70642947       3.94020936        0       0.00005655       0.00003053       0.00002108
In       7.94109796       4.28662998       2.95985776        1      -0.00005655      -0.00003053      -0.00002108
In       4.40051064       2.37540966       1.64018699        2       0.00005655       0.00003053       0.00002108
In       1.77029367       0.95561016       0.65983539        3      -0.00005655      -0.00003053      -0.00002108
O        6.01498788       2.32069788       0.23459816        4       0.00000000      -0.00000518       0.00000750
O        7.10093835       5.11218959       1.17162028        5       0.00000433      -0.00000802      -0.00000000
O        8.17025598       2.20503801       2.51301144        6      -0.00000433       0.00000284       0.00000750
O        4.17135262       4.45700162       2.08703332        7       0.00000433      -0.00000284      -0.00000750
O        6.32662071       4.34134176       4.36544660        8       0.00000000       0.00000518      -0.00000750
O        5.24067025       1.54985005       3.42842447        9      -0.00000433       0.00000802      -0.00000000
