10
Lattice="5.6617952142074905 0.04060966312114008 0.028040401739294757 3.1407006014562118 4.711005617102811 0.02804040173929545 3.140700601456213 1.6953601888605576 4.395465165205002" Properties=species:S:1:pos:R:3:spacegroup_kinds:I:1:forces:R:3 spacegroup="P 1" unit_cell=conventional occupancy="_JSON {\"0\": {\"In\": 1}, \"1\": {\"In\": 1}, \"2\": {\"In\": 1}, \"3\": {\"In\": 1}, \"4\": {\"O\": 1}, \"5\": {\"O\": 1}, \"6\": {\"O\": 1}, \"7\": {\"O\": 1}, \"8\": {\"O\": 1}, \"9\": {\"O\": 1}}" n_minim_iter=4 energy=-11286.994298060177 stress="-0.11361089216569975 -2.2969983438353088e-05 -1.5860450892818166e-05 -2.2969983438353088e-05 -0.11358073892095881 -8.56152291505271e-06 -1.5860450892818166e-05 -8.56152291505271e-06 -0.11357425126144036" free_energy=-11286.994298060177 pbc="T T T"
In      10.24646971       5.53107699       3.81913094        0      -0.00186814      -0.00100843      -0.00069630
In       7.66832493       4.13938623       2.85818802        1       0.00186814       0.00100843       0.00069630
In       4.27487150       2.30758925       1.59335795        2      -0.00186814      -0.00100843      -0.00069630
In       1.69672672       0.91589849       0.63241504        3       0.00186814       0.00100843       0.00069630
O        5.81669672       2.26532045       0.20976747        4      -0.00000000       0.00208833      -0.00302443
O        6.85762868       4.96831330       1.14092690        5      -0.00174585       0.00323424       0.00000000
O        7.91646536       2.13223876       2.40750005        6       0.00174585      -0.00114591      -0.00302443
O        4.02673107       4.31473672       2.04404592        7      -0.00174585       0.00114591       0.00302443
O        6.12649971       4.18165503       4.24177850        8       0.00000000      -0.00208833       0.00302443
O        5.08556775       1.47866218       3.31061908        9       0.00174585      -0.00323424       0.00000000
