10
Lattice="5.832299554352422 0.0037052836682414103 0.0025584463063761387 3.2034078124893983 4.873798334739385 0.0025584463063756946 3.2034078124893997 1.7292097411199663 4.556725844789404" Properties=species:S:1:pos:R:3:spacegroup_kinds:I:1:forces:R:3 spacegroup="P 1" unit_cell=conventional occupancy="_JSON {\"0\": {\"In\": 1}, \"1\": {\"In\": 1}, \"2\": {\"In\": 1}, \"3\": {\"In\": 1}, \"4\": {\"O\": 1}, \"5\": {\"O\": 1}, \"6\": {\"O\": 1}, \"7\": {\"O\": 1}, \"8\": {\"O\": 1}, \"9\": {\"O\": 1}}" n_minim_iter=1 energy=-11287.66213697061 stress="-0.015069022714857312 -0.0021892572984216633 -0.0015116513999843197 -0.0021892572984216633 -0.012195132423642925 -0.0008159942409119699 -0.0015116513999843197 -0.0008159942409119699 -0.011576796918639356" free_energy=-11287.66213697061 pbc="T T T"
In      10.49071248       5.66292002       3.91016670        0      -0.02086408      -0.01126250      -0.00777659
In       7.86796029       4.24715003       2.93259741        1       0.02086408       0.01126250       0.00777659
In       4.37115489       2.35956334       1.62924533        2      -0.02086408      -0.01126250      -0.00777659
In       1.74840271       0.94379335       0.65167605        3       0.02086408       0.01126250       0.00777659
O        5.97592858       2.29376446       0.21451833        4      -0.00000000       0.04811833      -0.06968763
O        7.04239411       5.08197372       1.14301913        5      -0.04022716       0.07452190      -0.00000000
O        8.11287086       2.16682577       2.49288125        6       0.04022716      -0.02640358      -0.06968763
O        4.12624433       4.43988761       2.06896149        7      -0.04022716       0.02640358       0.06968763
O        6.26318661       4.31294891       4.34732441        8      -0.00000000      -0.04811833       0.06968763
O        5.19672108       1.52473965       3.41882361        9       0.04022716      -0.07452190      -0.00000000
10
Lattice="5.85531979378042 0.027353590979349952 0.018887270199342616 3.2358096235722784 4.880067026832038 0.018887270199342145 3.235809623572279 1.7467003419532405 4.556802478796869" Properties=species:S:1:pos:R:3:spacegroup_kinds:I:1:forces:R:3 spacegroup="P 1" unit_cell=conventional occupancy="_JSON {\"0\": {\"In\": 1}, \"1\": {\"In\": 1}, \"2\": {\"In\": 1}, \"3\": {\"In\": 1}, \"4\": {\"O\": 1}, \"5\": {\"O\": 1}, \"6\": {\"O\": 1}, \"7\": {\"O\": 1}, \"8\": {\"O\": 1}, \"9\": {\"O\": 1}}" n_minim_iter=2 energy=-11287.66471605824 stress="-0.010582164312341425 0.0006830417166222467 0.0004716307071267115 0.0006830417166222467 -0.011478809473392398 0.0002545877594208867 0.0004716307071267115 0.0002545877594208867 -0.011671728297000862" free_energy=-11287.66471605824 pbc="T T T"
In      10.56569019       5.70339322       3.93811287        0      -0.08189717      -0.04420835      -0.03052525
In       7.92471839       4.27778823       2.95375266        1       0.08189717       0.04420835       0.03052525
In       4.40222067       2.37633274       1.64082436        2      -0.08189717      -0.04420835      -0.03052525
In       1.76124886       0.95072775       0.65646415        3       0.08189717       0.04420835       0.03052525
O        6.00939466       2.31584070       0.23318325        4      -0.00000000       0.04034749      -0.05843347
O        7.09339855       5.10630646       1.16753153        5      -0.03373070       0.06248704      -0.00000000
O        8.16120040       2.20012497       2.51158449        6       0.03373070      -0.02213955      -0.05843347
O        4.16573865       4.45399600       2.08299254        7      -0.03373070       0.02213955       0.05843347
O        6.31754439       4.33828027       4.36139378        8      -0.00000000      -0.04034749       0.05843347
O        5.23354050       1.54781452       3.42704550        9       0.03373070      -0.06248704       0.00000000
10
Lattice="5.8489990725887235 0.020875632172541805 0.014414330671337848 3.2269256999141533 4.8783374699169695 0.014414330671337329 3.2269256999141533 1.74190477166428 4.5567699096814" Properties=species:S:1:pos:R:3:spacegroup_kinds:I:1:forces:R:3 spacegroup="P 1" unit_cell=conventional occupancy="_JSON {\"0\": {\"In\": 1}, \"1\": {\"In\": 1}, \"2\": {\"In\": 1}, \"3\": {\"In\": 1}, \"4\": {\"O\": 1}, \"5\": {\"O\": 1}, \"6\": {\"O\": 1}, \"7\": {\"O\": 1}, \"8\": {\"O\": 1}, \"9\": {\"O\": 1}}" n_minim_iter=3 energy=-11287.66618368322 stress="-0.011721896235856557 -0.0006534650540924258 -0.0004512084380252903 -0.0006534650540924258 -0.010864077066924646 -0.00024356375126043168 -0.0004512084380252903 -0.00024356375126043168 -0.010679511898460593" free_energy=-11287.66618368322 pbc="T T T"
In      10.54226843       5.69075008       3.92938296        0      -0.01434682      -0.00774446      -0.00534744
In       7.91200729       4.27092674       2.94901490        1       0.01434682       0.00774446       0.00534744
In       4.39084319       2.37019114       1.63658368        2      -0.01434682      -0.00774446      -0.00534744
In       1.76058205       0.95036780       0.65621561        3       0.01434682       0.00774446       0.00534744
O        6.00021216       2.31154708       0.22552162        4      -0.00000000       0.00700635      -0.01014698
O        7.07793811       5.10235311       1.16081398        5      -0.00585734       0.01085089       0.00000000
O        8.14941191       2.19003237       2.50390657        6       0.00585734      -0.00384454      -0.01014698
O        4.15343858       4.45108551       2.08169201        7      -0.00585734       0.00384454       0.01014698
O        6.30263832       4.32957081       4.36007696        8       0.00000000      -0.00700635       0.01014698
O        5.22491237       1.53876477       3.42478460        9       0.00585734      -0.01085089       0.00000000
10
Lattice="5.854010335469752 0.026012495744864476 0.01796126278496319 3.2339699328888516 4.879708201408404 0.01796126278496266 3.233969932888852 1.7457072710622887 4.556795020802839" Properties=species:S:1:pos:R:3:spacegroup_kinds:I:1:forces:R:3 spacegroup="P 1" unit_cell=conventional occupancy="_JSON {\"0\": {\"In\": 1}, \"1\": {\"In\": 1}, \"2\": {\"In\": 1}, \"3\": {\"In\": 1}, \"4\": {\"O\": 1}, \"5\": {\"O\": 1}, \"6\": {\"O\": 1}, \"7\": {\"O\": 1}, \"8\": {\"O\": 1}, \"9\": {\"O\": 1}}" n_minim_iter=4 energy=-11287.666493615428 stress="-0.010675794642426692 -0.00015960098290001366 -0.00011020223575007623 -0.00015960098290001366 -0.010466282623879719 -5.9487519931293774e-05 -0.00011020223575007623 -5.9487519931293774e-05 -0.010421204799892106" free_energy=-11287.666493615428 pbc="T T T"
In      10.55766081       5.69905894       3.93512011        0      -0.01314854      -0.00709763      -0.00490081
In       7.92526451       4.27808303       2.95395621        1       0.01314854       0.00709763       0.00490081
In       4.39668570       2.37334495       1.63876134        2      -0.01314854      -0.00709763      -0.00490081
In       1.76428941       0.95236904       0.65759744        3       0.01314854       0.00709763       0.00490081
O        6.00749272       2.31672611       0.22902692        4       0.00000000      -0.00355272       0.00514525
O        7.08871314       5.10823566       1.16614065        5       0.00297009      -0.00550218       0.00000000
O        8.16024224       2.19706143       2.50742443        6      -0.00297009       0.00194946       0.00514525
O        4.16170797       4.45436655       2.08529312        7       0.00297009      -0.00194946      -0.00514525
O        6.31445749       4.33470187       4.36369063        8      -0.00000000       0.00355272      -0.00514525
O        5.23323707       1.54319232       3.42657690        9      -0.00297009       0.00550218       0.00000000
10
Lattice="5.855934376444033 0.027982853599533813 0.01932176719619883 3.2366729251935804 4.880235530856409 0.01932176719619827 3.2366729251935813 1.7471663549183272 4.556806106865023" Properties=species:S:1:pos:R:3:spacegroup_kinds:I:1:forces:R:3 spacegroup="P 1" unit_cell=conventional occupancy="_JSON {\"0\": {\"In\": 1}, \"1\": {\"In\": 1}, \"2\": {\"In\": 1}, \"3\": {\"In\": 1}, \"4\": {\"O\": 1}, \"5\": {\"O\": 1}, \"6\": {\"O\": 1}, \"7\": {\"O\": 1}, \"8\": {\"O\": 1}, \"9\": {\"O\": 1}}" n_minim_iter=5 energy=-11287.666539493812 stress="-0.01032220420883418 3.0911706970148087e-06 2.1344096296005073e-06 3.0911706970148087e-06 -0.01032626206329869 1.152160586871726e-06 2.1344096296005073e-06 1.152160586871726e-06 -0.010327135136373445" free_energy=-11287.666539493812 pbc="T T T"
In      10.56339619       5.70215491       3.93725784        0      -0.01179040      -0.00636450      -0.00439460
In       7.93052416       4.28092221       2.95591663        1       0.01179040       0.00636450       0.00439460
In       4.39875608       2.37446254       1.63953302        2      -0.01179040      -0.00636450      -0.00439460
In       1.76588405       0.95322984       0.65819181        3       0.01179040       0.00636450       0.00439460
O        6.01028725       2.31860572       0.23052744        4      -0.00000000      -0.00648940       0.00939830
O        7.09293838       5.11032694       1.16818418        5       0.00542517      -0.01005027       0.00000000
O        8.16430904       2.19981734       2.50893049        6      -0.00542517       0.00356087       0.00939830
O        4.16497120       4.45556741       2.08651916        7       0.00542517      -0.00356087      -0.00939830
O        6.31899299       4.33677903       4.36492221        8       0.00000000       0.00648940      -0.00939830
O        5.23634185       1.54505781       3.42726547        9      -0.00542517       0.01005027       0.00000000
10
Lattice="5.859564542047495 0.03169753775399758 0.02188670440621802 3.241770370837147 4.881232039053487 0.021886704406217438 3.2417703708371475 1.7499179723138152 4.556829197708112" Properties=species:S:1:pos:R:3:spacegroup_kinds:I:1:forces:R:3 spacegroup="P 1" unit_cell=conventional occupancy="_JSON {\"0\": {\"In\": 1}, \"1\": {\"In\": 1}, \"2\": {\"In\": 1}, \"3\": {\"In\": 1}, \"4\": {\"O\": 1}, \"5\": {\"O\": 1}, \"6\": {\"O\": 1}, \"7\": {\"O\": 1}, \"8\": {\"O\": 1}, \"9\": {\"O\": 1}}" n_minim_iter=6 energy=-11287.666603161562 stress="-0.009825251006058557 0.00021632698486093855 0.0001493707429439066 0.00021632698486093855 -0.010109228598763826 8.063080282740543e-05 0.0001493707429439066 8.063080282740543e-05 -0.010170328158655807" free_energy=-11287.666603161562 pbc="T T T"
In      10.57363823       5.70768360       3.94107532        0      -0.00616465      -0.00332770      -0.00229773
In       7.94101970       4.28658773       2.95982859        1       0.00616465       0.00332770       0.00229773
In       4.40208559       2.37625983       1.64077402        2      -0.00616465      -0.00332770      -0.00229773
In       1.76946706       0.95516396       0.65952729        3       0.00616465       0.00332770       0.00229773
O        6.01555860       2.32179504       0.23387112        4       0.00000000      -0.00825229       0.01195142
O        7.10120465       5.11372164       1.17203736        5       0.00689895      -0.01278050       0.00000000
O        8.17168291       2.20520906       2.51228572        6      -0.00689895       0.00452821       0.01195142
O        4.17142238       4.45763850       2.08831689        7       0.00689895      -0.00452821      -0.01195142
O        6.32754670       4.34105253       4.36673149        8       0.00000000       0.00825229      -0.01195142
O        5.24190064       1.54912592       3.42856525        9      -0.00689895       0.01278050       0.00000000
10
Lattice="5.859171461005225 0.03129548561161115 0.021609093051525644 3.241218561086576 4.881124036136103 0.02160909305152501 3.241218561086576 1.7496201036527557 4.556826560441183" Properties=species:S:1:pos:R:3:spacegroup_kinds:I:1:forces:R:3 spacegroup="P 1" unit_cell=conventional occupancy="_JSON {\"0\": {\"In\": 1}, \"1\": {\"In\": 1}, \"2\": {\"In\": 1}, \"3\": {\"In\": 1}, \"4\": {\"O\": 1}, \"5\": {\"O\": 1}, \"6\": {\"O\": 1}, \"7\": {\"O\": 1}, \"8\": {\"O\": 1}, \"9\": {\"O\": 1}}" n_minim_iter=7 energy=-11287.66668196317 stress="-0.010241708088130972 -3.3995255136862986e-06 -2.347323231004946e-06 -3.3995255136862986e-06 -0.010237245449744244 -1.267092138358374e-06 -2.347323231004946e-06 -1.267092138358374e-06 -0.010236285285473433" free_energy=-11287.66668196317 pbc="T T T"
In      10.57131493       5.70642947       3.94020936        0       0.00005655       0.00003053       0.00002108
In       7.94109796       4.28662998       2.95985776        1      -0.00005655      -0.00003053      -0.00002108
In       4.40051064       2.37540966       1.64018699        2       0.00005655       0.00003053       0.00002108
In       1.77029367       0.95561016       0.65983539        3      -0.00005655      -0.00003053      -0.00002108
O        6.01498788       2.32069788       0.23459816        4       0.00000000      -0.00000518       0.00000750
O        7.10093835       5.11218959       1.17162028        5       0.00000433      -0.00000802      -0.00000000
O        8.17025598       2.20503801       2.51301144        6      -0.00000433       0.00000284       0.00000750
O        4.17135262       4.45700162       2.08703332        7       0.00000433      -0.00000284      -0.00000750
O        6.32662071       4.34134176       4.36544660        8       0.00000000       0.00000518      -0.00000750
O        5.24067025       1.54985005       3.42842447        9      -0.00000433       0.00000802      -0.00000000
