10
Lattice="5.997905224240582 -0.024452181232438076 -0.01688388753963349 3.2707394803112977 5.027696116520212 -0.016883887539633824 3.2707394803113012 1.7655555898843769 4.7075287322287185" Properties=species:S:1:pos:R:3:spacegroup_kinds:I:1:forces:R:3 spacegroup="P 1" unit_cell=conventional occupancy="_JSON {\"0\": {\"In\": 1}, \"1\": {\"In\": 1}, \"2\": {\"In\": 1}, \"3\": {\"In\": 1}, \"4\": {\"O\": 1}, \"5\": {\"O\": 1}, \"6\": {\"O\": 1}, \"7\": {\"O\": 1}, \"8\": {\"O\": 1}, \"9\": {\"O\": 1}}" n_minim_iter=6 energy=-11287.61438330289 stress="0.02109327950224676 -5.222122893353386e-07 -3.605803983286148e-07 -5.222122893353386e-07 0.021093965023128287 -1.9464213306034094e-07 -3.605803983286148e-07 -1.9464213306034094e-07 0.021094112516524457" free_energy=-11287.61438330289 pbc="T T T"
In      10.74286964       5.79903525       4.00415235        0      -0.00166077      -0.00089649      -0.00061901
In       8.06620665       4.35416405       3.00648909        1       0.00166077       0.00089649       0.00061901
In       4.47317754       2.41463549       1.66727187        2      -0.00166077      -0.00089649      -0.00061901
In       1.79651456       0.96976428       0.66960861        3       0.00166077       0.00089649       0.00061901
O        6.13379866       2.33854618       0.20621729        4      -0.00000000       0.00329478      -0.00477168
O        7.21859860       5.21376730       1.15155635        5      -0.00275445       0.00510269       0.00000000
O        8.31973820       2.20137854       2.55998165        6       0.00275445      -0.00180792      -0.00477168
O        4.21964599       4.56742100       2.11377931        7      -0.00275445       0.00180792       0.00477168
O        6.40558553       4.43025335       4.46754368        8      -0.00000000      -0.00329478       0.00477168
O        5.32078559       1.55503224       3.52220461        9       0.00275445      -0.00510269      -0.00000000
