10
Lattice="5.46104759442374 -0.0540348465086543 -0.03731030221807157 2.951422715075198 4.59511311614161 -0.037310302218071884 2.9514227150751986 1.5931873828779497 4.31024483896527" Properties=species:S:1:pos:R:3:spacegroup_kinds:I:1:forces:R:3 spacegroup="P 1" unit_cell=conventional occupancy="_JSON {\"0\": {\"In\": 1}, \"1\": {\"In\": 1}, \"2\": {\"In\": 1}, \"3\": {\"In\": 1}, \"4\": {\"O\": 1}, \"5\": {\"O\": 1}, \"6\": {\"O\": 1}, \"7\": {\"O\": 1}, \"8\": {\"O\": 1}, \"9\": {\"O\": 1}}" n_minim_iter=6 energy=-11286.548950453887 stress="-0.1490193541673087 0.00016404937603150925 0.00011327378946877829 0.00016404937603150925 -0.14923470570083325 6.11455525079911e-05 0.00011327378946877829 6.11455525079911e-05 -0.1492810399325353" free_energy=-11286.548950453887 pbc="T T T"
In       9.78593355       5.28247811       3.64747690        0      -0.00013508      -0.00007292      -0.00005035
In       7.25990599       3.91892038       2.70595945        1       0.00013508       0.00007292       0.00005035
In       4.10398704       2.21534528       1.52966478        2      -0.00013508      -0.00007292      -0.00005035
In       1.57795948       0.85178756       0.58814734        3       0.00013508       0.00007292       0.00005035
O        5.57149706       2.14337603       0.11796272        4       0.00000000      -0.00148858       0.00215585
O        6.51481784       4.79037350       1.02159576        5       0.00124446      -0.00230540      -0.00000000
O        7.57959899       1.95370178       2.27308514        6      -0.00124446       0.00081682       0.00215585
O        3.78429404       4.18056388       1.96253910        7       0.00124446      -0.00081682      -0.00215585
O        5.79239598       3.99088963       4.11766152        8      -0.00000000       0.00148858      -0.00215585
O        4.84907520       1.34389217       3.21402848        9      -0.00124446       0.00230540      -0.00000000
