10
Lattice="5.832299554352421 0.003705283668242238 0.002558446306379057 3.203407812489399 4.873798334739384 0.0025584463063764145 3.2034078124893997 1.7292097411199656 4.556725844789405" Properties=species:S:1:pos:R:3:spacegroup_kinds:I:1:forces:R:3 spacegroup="P 1" unit_cell=conventional occupancy="_JSON {\"0\": {\"In\": 1}, \"1\": {\"In\": 1}, \"2\": {\"In\": 1}, \"3\": {\"In\": 1}, \"4\": {\"O\": 1}, \"5\": {\"O\": 1}, \"6\": {\"O\": 1}, \"7\": {\"O\": 1}, \"8\": {\"O\": 1}, \"9\": {\"O\": 1}}" n_minim_iter=1 energy=-11287.683422055508 stress="4.51966668873902e-06 3.445767463400703e-05 2.3792538830128748e-05 3.445767463400703e-05 -4.071374413334558e-05 1.2843288695439815e-05 2.3792538830128748e-05 1.2843288695439815e-05 -5.0445996191646334e-05" free_energy=-11287.683422055508 pbc="T T T"
In      10.49071248       5.66292002       3.91016670        0      -0.00294533      -0.00158990      -0.00109780
In       7.86796029       4.24715003       2.93259741        1       0.00294533       0.00158990       0.00109780
In       4.37115489       2.35956334       1.62924533        2      -0.00294533      -0.00158990      -0.00109780
In       1.74840271       0.94379335       0.65167605        3       0.00294533       0.00158990       0.00109780
O        5.97592858       2.29376446       0.21451833        4       0.00000000       0.00093490      -0.00135397
O        7.04239411       5.08197372       1.14301913        5      -0.00078158       0.00144790      -0.00000000
O        8.11287086       2.16682577       2.49288125        6       0.00078158      -0.00051300      -0.00135397
O        4.12624433       4.43988761       2.06896149        7      -0.00078158       0.00051300       0.00135397
O        6.26318661       4.31294891       4.34732441        8       0.00000000      -0.00093490       0.00135397
O        5.19672108       1.52473965       3.41882361        9       0.00078158      -0.00144790       0.00000000
