10
Lattice="5.808658848653104 0.031025683516964903 0.02142279849642393 3.2132756313030226 4.8390432866784545 0.021422798496423298 3.2132756313030226 1.734536421147904 4.51754161799918" Properties=species:S:1:pos:R:3:spacegroup_kinds:I:1:forces:R:3 spacegroup="P 1" unit_cell=conventional occupancy="_JSON {\"0\": {\"In\": 1}, \"1\": {\"In\": 1}, \"2\": {\"In\": 1}, \"3\": {\"In\": 1}, \"4\": {\"O\": 1}, \"5\": {\"O\": 1}, \"6\": {\"O\": 1}, \"7\": {\"O\": 1}, \"8\": {\"O\": 1}, \"9\": {\"O\": 1}}" n_minim_iter=7 energy=-11287.66668196317 stress="-0.010241708088130972 -3.3995255136862986e-06 -2.347323231004946e-06 -3.3995255136862986e-06 -0.010237245449744244 -1.267092138358374e-06 -2.347323231004946e-06 -1.267092138358374e-06 -0.010236285285473433" free_energy=-11287.66668196317 pbc="T T T"
In      10.48017837       5.65723367       3.90624035        0       0.00005655       0.00003053       0.00002108
In       7.87263681       4.24967443       2.93434048        1      -0.00005655      -0.00003053      -0.00002108
In       4.36257331       2.35493097       1.62604674        2       0.00005655       0.00003053       0.00002108
In       1.75503175       0.94737173       0.65414687        3      -0.00005655      -0.00003053      -0.00002108
O        5.96313196       2.30069087       0.23257566        4       0.00000000      -0.00000518       0.00000750
O        7.03972031       5.06811680       1.16151960        5       0.00000433      -0.00000802      -0.00000000
O        8.09981923       2.18602812       2.49134647        6      -0.00000433       0.00000284       0.00000750
O        4.13539089       4.41857728       2.06904075        7       0.00000433      -0.00000284      -0.00000750
O        6.27207816       4.30391454       4.32781156        8       0.00000000       0.00000518      -0.00000750
O        5.19548981       1.53648861       3.39886762        9      -0.00000433       0.00000802      -0.00000000
