10
Lattice="6.445104080695968 0.11502722488196507 0.07942468242164942 3.632732741173784 5.325021192884761 0.07942468242164977 3.632732741173781 1.9609607051689972 4.951443435770303" Properties=species:S:1:pos:R:3:spacegroup_kinds:I:1:forces:R:3 spacegroup="P 1" unit_cell=conventional occupancy="_JSON {\"0\": {\"In\": 1}, \"1\": {\"In\": 1}, \"2\": {\"In\": 1}, \"3\": {\"In\": 1}, \"4\": {\"O\": 1}, \"5\": {\"O\": 1}, \"6\": {\"O\": 1}, \"7\": {\"O\": 1}, \"8\": {\"O\": 1}, \"9\": {\"O\": 1}}" n_minim_iter=4 energy=-11286.556292098081 stress="0.07284473438980672 -4.680801728860736e-06 -3.232028481690904e-06 -4.680801728860736e-06 0.07285087899154807 -1.74465939691393e-06 -3.232028481690904e-06 -1.74465939691393e-06 0.07285220103941926" free_energy=-11286.556292098081 pbc="T T T"
In      11.64779252       6.28751551       4.34144110        0      -0.00199083      -0.00107466      -0.00074203
In       8.91806184       4.81399819       3.32399810        1       0.00199083       0.00107466       0.00074203
In       4.79250774       2.58701094       1.78629470        2      -0.00199083      -0.00107466      -0.00074203
In       2.06277706       1.11349363       0.76885170        3       0.00199083       0.00107466       0.00074203
O        6.65019444       2.59881377       0.31647173        4       0.00000000      -0.00173929       0.00251894
O        7.88884134       5.64051744       1.35699789        5       0.00145406      -0.00269368       0.00000000
O        9.04428028       2.50905319       2.79219345        6      -0.00145406       0.00095439       0.00251894
O        4.66628930       4.89195595       2.31809936        7       0.00145406      -0.00095439      -0.00251894
O        7.06037514       4.80219536       4.79382107        8       0.00000000       0.00173929      -0.00251894
O        5.82172824       1.76049170       3.75329492        9      -0.00145406       0.00269368      -0.00000000
