40
Lattice="5.8286206862658085 -3.5473703426694115e-43 0.0 3.667272855305996e-43 6.025630357650425 0.0 0.0 0.0 17.396226483688704" Properties=species:S:1:pos:R:3:spacegroup_kinds:I:1:forces:R:3 spacegroup="P 1" unit_cell=conventional occupancy="_JSON {\"0\": {\"In\": 1}, \"1\": {\"In\": 1}, \"2\": {\"In\": 1}, \"3\": {\"In\": 1}, \"4\": {\"In\": 1}, \"5\": {\"In\": 1}, \"6\": {\"In\": 1}, \"7\": {\"In\": 1}, \"8\": {\"In\": 1}, \"9\": {\"In\": 1}, \"10\": {\"In\": 1}, \"11\": {\"In\": 1}, \"12\": {\"In\": 1}, \"13\": {\"In\": 1}, \"14\": {\"In\": 1}, \"15\": {\"In\": 1}, \"16\": {\"O\": 1}, \"17\": {\"O\": 1}, \"18\": {\"O\": 1}, \"19\": {\"O\": 1}, \"20\": {\"O\": 1}, \"21\": {\"O\": 1}, \"22\": {\"O\": 1}, \"23\": {\"O\": 1}, \"24\": {\"O\": 1}, \"25\": {\"O\": 1}, \"26\": {\"O\": 1}, \"27\": {\"O\": 1}, \"28\": {\"O\": 1}, \"29\": {\"O\": 1}, \"30\": {\"O\": 1}, \"31\": {\"O\": 1}, \"32\": {\"O\": 1}, \"33\": {\"O\": 1}, \"34\": {\"O\": 1}, \"35\": {\"O\": 1}, \"36\": {\"O\": 1}, \"37\": {\"O\": 1}, \"38\": {\"O\": 1}, \"39\": {\"O\": 1}}" n_minim_iter=1 energy=-45146.47924779023 stress="0.0707576089765032 -4.39301717171564e-13 1.1283037796265619e-13 -4.39301717171564e-13 0.06922118902743435 1.0822630615617422e-13 1.1283037796265619e-13 1.0822630615617422e-13 0.06987197147673331" free_energy=-45146.47924779023 pbc="T T T"
In       2.79433966       4.99890851      10.06392196        0      -0.06537359       0.04986385       0.00076224
In      -0.11997068       4.03953703       7.33230452        1      -0.06537359      -0.04986385      -0.00076224
In       3.03428102       1.98609333      16.03041776        2       0.06537359       0.04986385      -0.00076224
In       5.94859137       1.02672185       1.36580872        3       0.06537359      -0.04986385       0.00076224
In       3.03428102       1.02672185       7.33230452        4       0.06537359      -0.04986385      -0.00076224
In       5.94859137       1.98609333      10.06392196        5       0.06537359       0.04986385       0.00076224
In       2.79433966       4.03953703       1.36580872        6      -0.06537359      -0.04986385       0.00076224
In      -0.11997068       4.99890851      16.03041776        7      -0.06537359       0.04986385      -0.00076224
In       2.79588586       4.67829987      14.13769601        8      -0.07606841       0.01009149       0.01026167
In       5.71019620       4.36014566       3.25853048        9      -0.07606841      -0.01009149      -0.01026167
In       3.03273483       1.66548469      11.95664372       10       0.07606841       0.01009149      -0.01026167
In       0.11842449       1.34733049       5.43958277       11       0.07606841      -0.01009149       0.01026167
In       3.03273483       1.34733049       3.25853048       12       0.07606841      -0.01009149      -0.01026167
In       0.11842449       1.66548469      14.13769601       13       0.07606841       0.01009149       0.01026167
In       2.79588586       4.36014566       5.43958277       14      -0.07606841      -0.01009149       0.01026167
In       5.71019620       4.67829987      11.95664372       15      -0.07606841       0.01009149      -0.01026167
O        4.92931912       5.46357973      13.89849958       16       0.01497310      -0.03766694       0.03939884
O        2.01500878       3.57486581       3.49772690       17       0.01497310       0.03766694      -0.03939884
O        0.89930156       2.45076455      12.19584014       18      -0.01497310      -0.03766694      -0.03939884
O        3.81361191       0.56205063       5.20038634       19      -0.01497310       0.03766694       0.03939884
O        0.89930156       0.56205063       3.49772690       20      -0.01497310       0.03766694      -0.03939884
O        3.81361191       2.45076455      13.89849958       21      -0.01497310      -0.03766694       0.03939884
O        4.92931912       3.57486581       5.20038634       22       0.01497310       0.03766694       0.03939884
O        2.01500878       5.46357973      12.19584014       23       0.01497310      -0.03766694      -0.03939884
O        4.08822861       3.38065681      10.98752497       24       0.02906219       0.03247753       0.03545001
O        1.17391826       5.65778873       6.40870151       25       0.02906219      -0.03247753      -0.03545001
O        1.74039208       0.36784163      15.10681476       26      -0.02906219       0.03247753      -0.03545001
O        4.65470242       2.64497355       2.28941173       27      -0.02906219      -0.03247753       0.03545001
O        1.74039208       2.64497355       6.40870151       28      -0.02906219      -0.03247753      -0.03545001
O        4.65470242       0.36784163      10.98752497       29      -0.02906219       0.03247753       0.03545001
O        4.08822861       5.65778873       2.28941173       30       0.02906219      -0.03247753       0.03545001
O        1.17391826       3.38065681      15.10681476       31       0.02906219       0.03247753      -0.03545001
O        3.72390216       4.09150736      16.50437946       32      -0.00249089      -0.05021904      -0.00677680
O        0.80959182       4.94693818       0.89184702       33      -0.00249089       0.05021904       0.00677680
O        2.10471852       1.07869218       9.58996026       34       0.00249089      -0.05021904       0.00677680
O        5.01902887       1.93412300       7.80626622       35       0.00249089       0.05021904      -0.00677680
O        2.10471852       1.93412300       0.89184702       36       0.00249089       0.05021904       0.00677680
O        5.01902887       1.07869218      16.50437946       37       0.00249089      -0.05021904      -0.00677680
O        3.72390216       4.94693818       7.80626622       38      -0.00249089       0.05021904      -0.00677680
O        0.80959182       4.09150736       9.58996026       39      -0.00249089      -0.05021904       0.00677680
40
Lattice="5.82043171002878 -3.475665946567605e-43 0.0 4.205882506394804e-43 6.033285474473864 0.0 0.0 0.0 17.39859823527704" Properties=species:S:1:pos:R:3:spacegroup_kinds:I:1:forces:R:3 spacegroup="P 1" unit_cell=conventional occupancy="_JSON {\"0\": {\"In\": 1}, \"1\": {\"In\": 1}, \"2\": {\"In\": 1}, \"3\": {\"In\": 1}, \"4\": {\"In\": 1}, \"5\": {\"In\": 1}, \"6\": {\"In\": 1}, \"7\": {\"In\": 1}, \"8\": {\"In\": 1}, \"9\": {\"In\": 1}, \"10\": {\"In\": 1}, \"11\": {\"In\": 1}, \"12\": {\"In\": 1}, \"13\": {\"In\": 1}, \"14\": {\"In\": 1}, \"15\": {\"In\": 1}, \"16\": {\"O\": 1}, \"17\": {\"O\": 1}, \"18\": {\"O\": 1}, \"19\": {\"O\": 1}, \"20\": {\"O\": 1}, \"21\": {\"O\": 1}, \"22\": {\"O\": 1}, \"23\": {\"O\": 1}, \"24\": {\"O\": 1}, \"25\": {\"O\": 1}, \"26\": {\"O\": 1}, \"27\": {\"O\": 1}, \"28\": {\"O\": 1}, \"29\": {\"O\": 1}, \"30\": {\"O\": 1}, \"31\": {\"O\": 1}, \"32\": {\"O\": 1}, \"33\": {\"O\": 1}, \"34\": {\"O\": 1}, \"35\": {\"O\": 1}, \"36\": {\"O\": 1}, \"37\": {\"O\": 1}, \"38\": {\"O\": 1}, \"39\": {\"O\": 1}}" n_minim_iter=2 energy=-45146.48012774675 stress="0.06940737517472122 -7.126557834592866e-14 3.005661894765806e-14 -7.126557834592866e-14 0.06999643254427419 3.668875740045902e-13 3.005661894765806e-14 3.668875740045902e-13 0.06990780203281209" free_energy=-45146.48012774675 pbc="T T T"
In       2.79022766       5.00540155      10.06529622        0      -0.05849060       0.05733126      -0.00324895
In      -0.11998820       4.04452666       7.33330201        1      -0.05849060      -0.05733126       0.00324895
In       3.03020405       1.98875882      16.03260113        2       0.05849060       0.05733126       0.00324895
In       5.94041991       1.02788392       1.36599711        3       0.05849060      -0.05733126      -0.00324895
In       3.03020405       1.02788392       7.33330201        4       0.05849060      -0.05733126       0.00324895
In       5.94041991       1.98875882      10.06529622        5       0.05849060       0.05733126      -0.00324895
In       2.79022766       4.04452666       1.36599711        6      -0.05849060      -0.05733126      -0.00324895
In      -0.11998820       5.00540155      16.03260113        7      -0.05849060       0.05733126       0.00324895
In       2.79174124       4.68427211      14.13965275        8      -0.07884359       0.00683482       0.01215892
In       5.70195709       4.36565611       3.25894548        9      -0.07884359      -0.00683482      -0.01215892
In       3.02869047       1.66762937      11.95824460       10       0.07884359       0.00683482      -0.01215892
In       0.11847462       1.34901337       5.44035364       11       0.07884359      -0.00683482       0.01215892
In       3.02869047       1.34901337       3.25894548       12       0.07884359      -0.00683482      -0.01215892
In       0.11847462       1.66762937      14.13965275       13       0.07884359       0.00683482       0.01215892
In       2.79174124       4.36565611       5.44035364       14      -0.07884359      -0.00683482       0.01215892
In       5.70195709       4.68427211      11.95824460       15      -0.07884359       0.00683482      -0.01215892
O        4.92243625       5.47041330      13.90050678       16       0.01162958      -0.03741084       0.03543141
O        2.01222039       3.57951491       3.49809146       17       0.01162958       0.03741084      -0.03543141
O        0.89799546       2.45377057      12.19739058       18      -0.01162958      -0.03741084      -0.03543141
O        3.80821132       0.56287217       5.20120766       19      -0.01162958       0.03741084       0.03543141
O        0.89799546       0.56287217       3.49809146       20      -0.01162958       0.03741084      -0.03543141
O        3.80821132       2.45377057      13.90050678       21      -0.01162958      -0.03741084       0.03543141
O        4.92243625       3.57951491       5.20120766       22       0.01162958       0.03741084       0.03543141
O        2.01222039       5.47041330      12.19739058       23       0.01162958      -0.03741084      -0.03543141
O        4.08256753       3.38504437      10.98912403       24       0.02409325       0.03126938       0.03993929
O        1.17235167       5.66488384       6.40947420       25       0.02409325      -0.03126938      -0.03993929
O        1.73786418       0.36840163      15.10877332       26      -0.02409325       0.03126938      -0.03993929
O        4.64808004       2.64824110       2.28982492       27      -0.02409325      -0.03126938       0.03993929
O        1.73786418       2.64824110       6.40947420       28      -0.02409325      -0.03126938      -0.03993929
O        4.64808004       0.36840163      10.98912403       29      -0.02409325       0.03126938       0.03993929
O        4.08256753       5.66488384       2.28982492       30       0.02409325      -0.03126938       0.03993929
O        1.17235167       3.38504437      15.10877332       31       0.02409325       0.03126938      -0.03993929
O        3.71866314       4.09656200      16.50661030       32      -0.00334111      -0.05872477      -0.00143157
O        0.80844729       4.95336621       0.89198793       33      -0.00334111       0.05872477       0.00143157
O        2.10176857       1.07991926       9.59128705       34       0.00334111      -0.05872477       0.00143157
O        5.01198442       1.93672347       7.80731119       35       0.00334111       0.05872477      -0.00143157
O        2.10176857       1.93672347       0.89198793       36       0.00334111       0.05872476       0.00143157
O        5.01198442       1.07991926      16.50661030       37       0.00334111      -0.05872476      -0.00143157
O        3.71866314       4.95336621       7.80731119       38      -0.00334111       0.05872477      -0.00143157
O        0.80844729       4.09656200       9.59128705       39      -0.00334111      -0.05872477       0.00143157
40
Lattice="5.82627078893494 -3.477853310558704e-43 0.0 4.294143630151634e-43 6.048890102699898 0.0 0.0 0.0 17.33632232648794" Properties=species:S:1:pos:R:3:spacegroup_kinds:I:1:forces:R:3 spacegroup="P 1" unit_cell=conventional occupancy="_JSON {\"0\": {\"In\": 1}, \"1\": {\"In\": 1}, \"2\": {\"In\": 1}, \"3\": {\"In\": 1}, \"4\": {\"In\": 1}, \"5\": {\"In\": 1}, \"6\": {\"In\": 1}, \"7\": {\"In\": 1}, \"8\": {\"In\": 1}, \"9\": {\"In\": 1}, \"10\": {\"In\": 1}, \"11\": {\"In\": 1}, \"12\": {\"In\": 1}, \"13\": {\"In\": 1}, \"14\": {\"In\": 1}, \"15\": {\"In\": 1}, \"16\": {\"O\": 1}, \"17\": {\"O\": 1}, \"18\": {\"O\": 1}, \"19\": {\"O\": 1}, \"20\": {\"O\": 1}, \"21\": {\"O\": 1}, \"22\": {\"O\": 1}, \"23\": {\"O\": 1}, \"24\": {\"O\": 1}, \"25\": {\"O\": 1}, \"26\": {\"O\": 1}, \"27\": {\"O\": 1}, \"28\": {\"O\": 1}, \"29\": {\"O\": 1}, \"30\": {\"O\": 1}, \"31\": {\"O\": 1}, \"32\": {\"O\": 1}, \"33\": {\"O\": 1}, \"34\": {\"O\": 1}, \"35\": {\"O\": 1}, \"36\": {\"O\": 1}, \"37\": {\"O\": 1}, \"38\": {\"O\": 1}, \"39\": {\"O\": 1}}" n_minim_iter=3 energy=-45146.487268232886 stress="0.06925226496100681 -6.038989651020222e-14 6.406105184454942e-14 -6.038989651020222e-14 0.06995093621737442 9.596692239092144e-14 6.406105184454942e-14 9.596692239092144e-14 0.0661303286325959" free_energy=-45146.487268232886 pbc="T T T"
In       2.78824838       5.02272986      10.02910526        0      -0.05220592       0.00157146       0.01292149
In      -0.12488702       4.05060529       7.30721706        1      -0.05220592      -0.00157146      -0.01292149
In       3.03802241       1.99828481      15.97537823        2       0.05220592       0.00157146      -0.01292149
In       5.95115781       1.02616024       1.36094410        3       0.05220592      -0.00157146       0.01292149
In       3.03802241       1.02616024       7.30721706        4       0.05220592      -0.00157146      -0.01292149
In       5.95115781       1.99828481      10.02910526        5       0.05220592       0.00157146       0.01292149
In       2.78824838       4.05060529       1.36094410        6      -0.05220592      -0.00157146       0.01292149
In      -0.12488702       5.02272986      15.97537823        7      -0.05220592       0.00157146      -0.01292149
In       2.78837945       4.69700635      14.08995643        8      -0.05524572       0.01006236      -0.01286214
In       5.70151485       4.37632880       3.24636590        9      -0.05524572      -0.01006236       0.01286214
In       3.03789134       1.67256130      11.91452706       10       0.05524572       0.01006236       0.01286214
In       0.12475594       1.35188375       5.42179526       11       0.05524572      -0.01006236      -0.01286214
In       3.03789134       1.35188375       3.24636590       12       0.05524572      -0.01006236       0.01286214
In       0.12475594       1.67256130      14.08995643       13       0.05524572       0.01006236      -0.01286214
In       2.78837945       4.37632880       5.42179526       14      -0.05524572      -0.01006236      -0.01286214
In       5.70151485       4.69700635      11.91452706       15      -0.05524572       0.01006236       0.01286214
O        4.92837022       5.48158343      13.85363600       16      -0.03688305      -0.03280983       0.02565489
O        2.01523482       3.59175173       3.48268633       17      -0.03688305       0.03280983      -0.02565489
O        0.89790057       2.45713838      12.15084749       18       0.03688305      -0.03280983      -0.02565489
O        3.81103597       0.56730668       5.18547483       19       0.03688305       0.03280983       0.02565489
O        0.89790057       0.56730668       3.48268633       20       0.03688305       0.03280983      -0.02565489
O        3.81103597       2.45713838      13.85363600       21       0.03688305      -0.03280983       0.02565489
O        4.92837022       3.59175173       5.18547483       22      -0.03688305       0.03280983       0.02565489
O        2.01523482       5.48158343      12.15084749       23      -0.03688305      -0.03280983      -0.02565489
O        4.08868084       3.39631231      10.95283449       24      -0.00274188       0.04023385       0.00624654
O        1.17554545       5.67702285       6.38348783       25      -0.00274188      -0.04023385      -0.00624654
O        1.73758995       0.37186726      15.05164900       26       0.00274188       0.04023385      -0.00624654
O        4.65072534       2.65257780       2.28467333       27       0.00274188      -0.04023385       0.00624654
O        1.73758995       2.65257780       6.38348783       28       0.00274188      -0.04023385      -0.00624654
O        4.65072534       0.37186726      10.95283449       29       0.00274188       0.04023385       0.00624654
O        4.08868084       5.67702285       2.28467333       30      -0.00274188      -0.04023385       0.00624654
O        1.17554545       3.39631231      15.05164900       31      -0.00274188       0.04023385      -0.00624654
O        3.72214952       4.10268860      16.44729107       32       0.00254422      -0.03579105       0.02141185
O        0.80901412       4.97064655       0.88903125       33       0.00254422       0.03579105      -0.02141185
O        2.10412127       1.07824355       9.55719242       34      -0.00254422      -0.03579105      -0.02141185
O        5.01725667       1.94620150       7.77912991       35      -0.00254422       0.03579105       0.02141185
O        2.10412127       1.94620150       0.88903125       36      -0.00254422       0.03579105      -0.02141185
O        5.01725667       1.07824355      16.44729107       37      -0.00254422      -0.03579105       0.02141185
O        3.72214952       4.97064655       7.77912991       38       0.00254422       0.03579105       0.02141185
O        0.80901412       4.10268860       9.55719242       39       0.00254422      -0.03579105      -0.02141185
40
Lattice="5.819934496730916 -3.473333544566589e-43 0.0 4.287620420357609e-43 6.040456589093944 0.0 0.0 0.0 17.379427598284952" Properties=species:S:1:pos:R:3:spacegroup_kinds:I:1:forces:R:3 spacegroup="P 1" unit_cell=conventional occupancy="_JSON {\"0\": {\"In\": 1}, \"1\": {\"In\": 1}, \"2\": {\"In\": 1}, \"3\": {\"In\": 1}, \"4\": {\"In\": 1}, \"5\": {\"In\": 1}, \"6\": {\"In\": 1}, \"7\": {\"In\": 1}, \"8\": {\"In\": 1}, \"9\": {\"In\": 1}, \"10\": {\"In\": 1}, \"11\": {\"In\": 1}, \"12\": {\"In\": 1}, \"13\": {\"In\": 1}, \"14\": {\"In\": 1}, \"15\": {\"In\": 1}, \"16\": {\"O\": 1}, \"17\": {\"O\": 1}, \"18\": {\"O\": 1}, \"19\": {\"O\": 1}, \"20\": {\"O\": 1}, \"21\": {\"O\": 1}, \"22\": {\"O\": 1}, \"23\": {\"O\": 1}, \"24\": {\"O\": 1}, \"25\": {\"O\": 1}, \"26\": {\"O\": 1}, \"27\": {\"O\": 1}, \"28\": {\"O\": 1}, \"29\": {\"O\": 1}, \"30\": {\"O\": 1}, \"31\": {\"O\": 1}, \"32\": {\"O\": 1}, \"33\": {\"O\": 1}, \"34\": {\"O\": 1}, \"35\": {\"O\": 1}, \"36\": {\"O\": 1}, \"37\": {\"O\": 1}, \"38\": {\"O\": 1}, \"39\": {\"O\": 1}}" n_minim_iter=4 energy=-45146.49386819556 stress="0.06745450250415737 -1.838386955965816e-13 -5.59472770382531e-15 -1.838386955965816e-13 0.06748433832863181 -1.8703103618529671e-13 -5.59472770382531e-15 -1.8703103618529671e-13 0.06742256762691826" free_energy=-45146.49386819556 pbc="T T T"
In       2.78069955       5.01968102      10.05394583        0      -0.02826730      -0.04514505       0.01137910
In      -0.12926770       4.04100387       7.32548177        1      -0.02826730       0.04514505      -0.01137910
In       3.03923495       1.99945272      16.01519557        2       0.02826730      -0.04514505      -0.01137910
In       5.94920220       1.02077557       1.36423203        3       0.02826730       0.04514505       0.01137910
In       3.03923495       1.02077557       7.32548177        4       0.02826730       0.04514505      -0.01137910
In       5.94920220       1.99945272      10.05394583        5       0.02826730      -0.04514505       0.01137910
In       2.78069955       4.04100387       1.36423203        6      -0.02826730       0.04514505       0.01137910
In      -0.12926770       5.01968102      16.01519557        7      -0.02826730      -0.04514505      -0.01137910
In       2.77957104       4.69105598      14.12576521        8      -0.01515862       0.01725687      -0.04596570
In       5.68953829       4.36962891       3.25366239        9      -0.01515862      -0.01725687       0.04596570
In       3.04036345       1.67082768      11.94337618       10       0.01515862       0.01725687       0.04596570
In       0.13039621       1.34940061       5.43605141       11       0.01515862      -0.01725687      -0.04596570
In       3.04036345       1.34940061       3.25366239       12       0.01515862      -0.01725687       0.04596570
In       0.13039621       1.67082768      14.12576521       13       0.01515862       0.01725687      -0.04596570
In       2.77957104       4.36962891       5.43605141       14      -0.01515862      -0.01725687      -0.04596570
In       5.68953829       4.69105598      11.94337618       15      -0.01515862       0.01725687       0.04596570
O        4.92375878       5.47112411      13.89079335       16      -0.05751148      -0.02252136       0.00075132
O        2.01379154       3.58956078       3.48863425       17      -0.05751148       0.02252136      -0.00075132
O        0.89617571       2.45089581      12.17834805       18       0.05751148      -0.02252136      -0.00075132
O        3.80614296       0.56933248       5.20107955       19       0.05751148       0.02252136       0.00075132
O        0.89617571       0.56933248       3.48863425       20       0.05751148       0.02252136      -0.00075132
O        3.80614296       2.45089581      13.89079335       21       0.05751148      -0.02252136       0.00075132
O        4.92375878       3.58956078       5.20107955       22      -0.05751148       0.02252136       0.00075132
O        2.01379154       5.47112411      12.17834805       23      -0.05751148      -0.02252136      -0.00075132
O        4.08604124       3.39400437      10.98284614       24      -0.02878226       0.03581219      -0.01248027
O        1.17607399       5.66668052       6.39658145       25      -0.02878226      -0.03581219       0.01248027
O        1.73389326       0.37377607      15.08629525       26       0.02878226       0.03581219       0.01248027
O        4.64386050       2.64645222       2.29313234       27       0.02878226      -0.03581219      -0.01248027
O        1.73389326       2.64645222       6.39658145       28       0.02878226      -0.03581219       0.01248027
O        4.64386050       0.37377607      10.98284614       29       0.02878226       0.03581219      -0.01248027
O        4.08604124       5.66668052       2.29313234       30      -0.02878226      -0.03581219      -0.01248027
O        1.17607399       3.39400437      15.08629525       31      -0.02878226       0.03581219       0.01248027
O        3.71789176       4.09279725      16.48805861       32       0.00653955       0.00284947       0.03762229
O        0.80792451       4.96788763       0.89136899       33       0.00653955      -0.00284947      -0.03762229
O        2.10204274       1.07256896       9.58108279       34      -0.00653955       0.00284947      -0.03762229
O        5.01200999       1.94765934       7.79834481       35      -0.00653955      -0.00284947       0.03762229
O        2.10204274       1.94765934       0.89136899       36      -0.00653955      -0.00284947      -0.03762229
O        5.01200999       1.07256896      16.48805861       37      -0.00653955       0.00284947       0.03762229
O        3.71789176       4.96788763       7.79834481       38       0.00653955      -0.00284947       0.03762229
O        0.80792451       4.09279725       9.58108279       39       0.00653955       0.00284947      -0.03762229
40
Lattice="5.822560022486592 5.007898201063157e-43 0.0 9.05700172800016e-43 6.0408135070773366 0.0 0.0 0.0 17.370564425650606" Properties=species:S:1:pos:R:3:spacegroup_kinds:I:1:forces:R:3 spacegroup="P 1" unit_cell=conventional occupancy="_JSON {\"0\": {\"In\": 1}, \"1\": {\"In\": 1}, \"2\": {\"In\": 1}, \"3\": {\"In\": 1}, \"4\": {\"In\": 1}, \"5\": {\"In\": 1}, \"6\": {\"In\": 1}, \"7\": {\"In\": 1}, \"8\": {\"In\": 1}, \"9\": {\"In\": 1}, \"10\": {\"In\": 1}, \"11\": {\"In\": 1}, \"12\": {\"In\": 1}, \"13\": {\"In\": 1}, \"14\": {\"In\": 1}, \"15\": {\"In\": 1}, \"16\": {\"O\": 1}, \"17\": {\"O\": 1}, \"18\": {\"O\": 1}, \"19\": {\"O\": 1}, \"20\": {\"O\": 1}, \"21\": {\"O\": 1}, \"22\": {\"O\": 1}, \"23\": {\"O\": 1}, \"24\": {\"O\": 1}, \"25\": {\"O\": 1}, \"26\": {\"O\": 1}, \"27\": {\"O\": 1}, \"28\": {\"O\": 1}, \"29\": {\"O\": 1}, \"30\": {\"O\": 1}, \"31\": {\"O\": 1}, \"32\": {\"O\": 1}, \"33\": {\"O\": 1}, \"34\": {\"O\": 1}, \"35\": {\"O\": 1}, \"36\": {\"O\": 1}, \"37\": {\"O\": 1}, \"38\": {\"O\": 1}, \"39\": {\"O\": 1}}" n_minim_iter=5 energy=-45146.505585285704 stress="0.06525961492798778 -6.323987092728721e-13 -7.309634060863955e-14 -6.323987092728721e-13 0.06478685367555428 -1.26979944264556e-13 -7.309634060863955e-14 -1.26979944264556e-13 0.06692644589573678" free_energy=-45146.505585285704 pbc="T T T"
In       2.76780797       5.01667910      10.05115196        0      -0.01115611      -0.01245442      -0.03668069
In      -0.14347204       4.04454116       7.31941246        1      -0.01115611       0.01245442       0.03668069
In       3.05475205       1.99627235      16.00469468        2       0.01115611      -0.01245442       0.03668069
In       5.96603206       1.02413440       1.36586975        3       0.01115611       0.01245442      -0.03668069
In       3.05475205       1.02413440       7.31941246        4       0.01115611       0.01245442       0.03668069
In       5.96603206       1.99627235      10.05115196        5       0.01115611      -0.01245442      -0.03668069
In       2.76780797       4.04454116       1.36586975        6      -0.01115611       0.01245442      -0.03668069
In      -0.14347204       5.01667910      16.00469468        7      -0.01115611      -0.01245442       0.03668069
In       2.76744029       4.69628771      14.10958185        8      -0.00212110      -0.01245838       0.05064569
In       5.67872030       4.36493255       3.26098258        9      -0.00212110       0.01245838      -0.05064569
In       3.05511974       1.67588095      11.94626479       10       0.00212110      -0.01245838      -0.05064569
In       0.14383973       1.34452580       5.42429964       11       0.00212110       0.01245838       0.05064569
In       3.05511974       1.34452580       3.26098258       12       0.00212110       0.01245838      -0.05064569
In       0.14383973       1.67588095      14.10958185       13       0.00212110      -0.01245838       0.05064569
In       2.76744029       4.36493255       5.42429964       14      -0.00212110       0.01245838       0.05064569
In       5.67872030       4.69628771      11.94626479       15      -0.00212110      -0.01245838      -0.05064569
O        4.91449742       5.46148489      13.88855010       16      -0.05974098       0.04491296      -0.00008483
O        2.00321741       3.59973537       3.48201433       17      -0.05974098      -0.04491296       0.00008483
O        0.90806260       2.44107814      12.16729654       18       0.05974098       0.04491296       0.00008483
O        3.81934261       0.57932861       5.20326789       19       0.05974098      -0.04491296      -0.00008483
O        0.90806260       0.57932861       3.48201433       20       0.05974098      -0.04491296       0.00008483
O        3.81934261       2.44107814      13.88855010       21       0.05974098       0.04491296      -0.00008483
O        4.91449742       3.59973537       5.20326789       22      -0.05974098      -0.04491296      -0.00008483
O        2.00321741       5.46148489      12.16729654       23      -0.05974098       0.04491296       0.00008483
O        4.08459425       3.40646638      10.97931775       24       0.00051830      -0.01045548       0.02428632
O        1.17331424       5.65475388       6.39124668       25       0.00051830       0.01045548      -0.02428632
O        1.73796577       0.38605962      15.07652889       26      -0.00051830      -0.01045548      -0.02428632
O        4.64924578       2.63434713       2.29403553       27      -0.00051830       0.01045548       0.02428632
O        1.73796577       2.63434713       6.39124668       28      -0.00051830       0.01045548      -0.02428632
O        4.64924578       0.38605962      10.97931775       29      -0.00051830      -0.01045548       0.02428632
O        4.08459425       5.65475388       2.29403553       30       0.00051830       0.01045548       0.02428632
O        1.17331424       3.40646638      15.07652889       31       0.00051830      -0.01045548      -0.02428632
O        3.72066445       4.08649771      16.48782446       32      -0.04245203      -0.00379626       0.01262701
O        0.80938444       4.97472255       0.88273997       33      -0.04245203       0.00379626      -0.01262701
O        2.10189557       1.06609096       9.56802218       34       0.04245203      -0.00379626      -0.01262701
O        5.01317559       1.95431580       7.80254225       35       0.04245203       0.00379626       0.01262701
O        2.10189557       1.95431580       0.88273997       36       0.04245203       0.00379626      -0.01262701
O        5.01317559       1.06609096      16.48782446       37       0.04245203      -0.00379626       0.01262701
O        3.72066445       4.97472255       7.80254225       38      -0.04245203       0.00379626       0.01262701
O        0.80938444       4.08649771       9.56802218       39      -0.04245203      -0.00379626      -0.01262701
40