40
Lattice="5.723174841368036 -2.969223896481514e-43 0.0 3.0601805188203636e-43 5.898493601681926 0.0 0.0 0.0 16.55830218652773" Properties=species:S:1:pos:R:3:spacegroup_kinds:I:1:forces:R:3 spacegroup="P 1" unit_cell=conventional occupancy="_JSON {\"0\": {\"In\": 1}, \"1\": {\"In\": 1}, \"2\": {\"In\": 1}, \"3\": {\"In\": 1}, \"4\": {\"In\": 1}, \"5\": {\"In\": 1}, \"6\": {\"In\": 1}, \"7\": {\"In\": 1}, \"8\": {\"In\": 1}, \"9\": {\"In\": 1}, \"10\": {\"In\": 1}, \"11\": {\"In\": 1}, \"12\": {\"In\": 1}, \"13\": {\"In\": 1}, \"14\": {\"In\": 1}, \"15\": {\"In\": 1}, \"16\": {\"O\": 1}, \"17\": {\"O\": 1}, \"18\": {\"O\": 1}, \"19\": {\"O\": 1}, \"20\": {\"O\": 1}, \"21\": {\"O\": 1}, \"22\": {\"O\": 1}, \"23\": {\"O\": 1}, \"24\": {\"O\": 1}, \"25\": {\"O\": 1}, \"26\": {\"O\": 1}, \"27\": {\"O\": 1}, \"28\": {\"O\": 1}, \"29\": {\"O\": 1}, \"30\": {\"O\": 1}, \"31\": {\"O\": 1}, \"32\": {\"O\": 1}, \"33\": {\"O\": 1}, \"34\": {\"O\": 1}, \"35\": {\"O\": 1}, \"36\": {\"O\": 1}, \"37\": {\"O\": 1}, \"38\": {\"O\": 1}, \"39\": {\"O\": 1}}" n_minim_iter=1 energy=-45149.29490063784 stress="0.0478240308918223 -9.030655706887241e-14 2.2212296341829002e-13 -9.030655706887241e-14 0.049219126230539846 1.2700486118299684e-13 2.2212296341829002e-13 1.2700486118299684e-13 0.04865679469079871" free_energy=-45149.29490063784 pbc="T T T"
In       2.85392945       4.70313988       9.44931995        0      -0.00107314       0.00808443       0.02337835
In      -0.00765797       4.14460052       7.10898224        1      -0.00107314      -0.00808443      -0.02337835
In       2.86924540       1.75389308      15.38813333        2       0.00107314       0.00808443      -0.02337835
In       5.73083282       1.19535372       1.17016885        3       0.00107314      -0.00808443       0.02337835
In       2.86924540       1.19535372       7.10898224        4       0.00107314      -0.00808443      -0.02337835
In       5.73083282       1.75389308       9.44931995        5       0.00107314       0.00808443       0.02337835
In       2.85392945       4.14460052       1.17016885        6      -0.00107314      -0.00808443       0.02337835
In      -0.00765797       4.70313988      15.38813333        7      -0.00107314       0.00808443      -0.02337835
In       2.83846402       4.38700624      13.54528745        8      -0.01614389      -0.01098182      -0.01242713
In       5.70005144       4.46073416       3.01301474        9      -0.01614389       0.01098182       0.01242713
In       2.88471083       1.43775944      11.29216583       10       0.01614389      -0.01098182       0.01242713
In       0.02312341       1.51148736       5.26613636       11       0.01614389       0.01098182      -0.01242713
In       2.88471083       1.51148736       3.01301474       12       0.01614389       0.01098182       0.01242713
In       0.02312341       1.43775944      13.54528745       13       0.01614389      -0.01098182      -0.01242713
In       2.83846402       4.46073416       5.26613636       14      -0.01614389       0.01098182      -0.01242713
In       5.70005144       4.38700624      11.29216583       15      -0.01614389      -0.01098182       0.01242713
O        4.91585322       5.16389703      13.21852047       16      -0.00909856      -0.05227889      -0.00189823
O        2.05426580       3.68384338       3.33978172       17      -0.00909856       0.05227889       0.00189823
O        0.80732162       2.21465023      11.61893281       18       0.00909856      -0.05227889       0.00189823
O        3.66890904       0.73459658       4.93936937       19       0.00909856       0.05227889      -0.00189823
O        0.80732162       0.73459658       3.33978172       20       0.00909856       0.05227889       0.00189823
O        3.66890904       2.21465023      13.21852047       21       0.00909856      -0.05227889      -0.00189823
O        4.91585322       3.68384338       4.93936937       22      -0.00909856       0.05227889      -0.00189823
O        2.05426580       5.16389703      11.61893281       23      -0.00909856      -0.05227889       0.00189823
O        4.02776211       3.09867870      10.33841616       24      -0.07744076       0.01631338      -0.00947965
O        1.16617469       5.74906170       6.21988602       25      -0.07744076      -0.01631338       0.00947965
O        1.69541273       0.14943190      14.49903712       26       0.07744076       0.01631338       0.00947965
O        4.55700015       2.79981490       2.05926507       27       0.07744076      -0.01631338      -0.00947965
O        1.69541273       2.79981490       6.21988602       28       0.07744076      -0.01631338       0.00947965
O        4.55700015       0.14943190      10.33841616       29       0.07744076       0.01631338      -0.00947965
O        4.02776211       5.74906170       2.05926507       30      -0.07744076      -0.01631338      -0.00947965
O        1.16617469       3.09867870      14.49903712       31      -0.07744076       0.01631338       0.00947965
O        3.70235632       3.89304457      15.70461932       32       0.03132233       0.03071888       0.03861713
O        0.84076890       4.95469584       0.85368286       33       0.03132233      -0.03071888      -0.03861713
O        2.02081853       0.94379776       9.13283396       34      -0.03132233       0.03071888      -0.03861713
O        4.88240595       2.00544904       7.42546823       35      -0.03132233      -0.03071888       0.03861713
O        2.02081853       2.00544904       0.85368286       36      -0.03132233      -0.03071888      -0.03861713
O        4.88240595       0.94379776      15.70461932       37      -0.03132233       0.03071888       0.03861713
O        3.70235632       4.95469584       7.42546823       38       0.03132233      -0.03071888       0.03861713
O        0.84076890       3.89304457       9.13283396       39       0.03132233       0.03071888      -0.03861713
40
Lattice="5.731949988041804 -3.05176644085244e-43 0.0 2.9763457134985358e-43 5.890558887301317 0.0 0.0 0.0 16.5552230366561" Properties=species:S:1:pos:R:3:spacegroup_kinds:I:1:forces:R:3 spacegroup="P 1" unit_cell=conventional occupancy="_JSON {\"0\": {\"In\": 1}, \"1\": {\"In\": 1}, \"2\": {\"In\": 1}, \"3\": {\"In\": 1}, \"4\": {\"In\": 1}, \"5\": {\"In\": 1}, \"6\": {\"In\": 1}, \"7\": {\"In\": 1}, \"8\": {\"In\": 1}, \"9\": {\"In\": 1}, \"10\": {\"In\": 1}, \"11\": {\"In\": 1}, \"12\": {\"In\": 1}, \"13\": {\"In\": 1}, \"14\": {\"In\": 1}, \"15\": {\"In\": 1}, \"16\": {\"O\": 1}, \"17\": {\"O\": 1}, \"18\": {\"O\": 1}, \"19\": {\"O\": 1}, \"20\": {\"O\": 1}, \"21\": {\"O\": 1}, \"22\": {\"O\": 1}, \"23\": {\"O\": 1}, \"24\": {\"O\": 1}, \"25\": {\"O\": 1}, \"26\": {\"O\": 1}, \"27\": {\"O\": 1}, \"28\": {\"O\": 1}, \"29\": {\"O\": 1}, \"30\": {\"O\": 1}, \"31\": {\"O\": 1}, \"32\": {\"O\": 1}, \"33\": {\"O\": 1}, \"34\": {\"O\": 1}, \"35\": {\"O\": 1}, \"36\": {\"O\": 1}, \"37\": {\"O\": 1}, \"38\": {\"O\": 1}, \"39\": {\"O\": 1}}" n_minim_iter=2 energy=-45149.295670518055 stress="0.04876964293682234 -7.423685721748707e-14 1.7444119185525268e-13 -7.423685721748707e-14 0.04830717823506982 6.337251028182215e-14 1.7444119185525268e-13 6.337251028182215e-14 0.04837606248518468" free_energy=-45149.295670518055 pbc="T T T"
In       2.85830131       4.69684297       9.44764904        0      -0.00976752      -0.00007408       0.01971268
In      -0.00767368       4.13899536       7.10757400        1      -0.00976752       0.00007408      -0.01971268
In       2.87364868       1.75156353      15.38518552        2       0.00976752      -0.00007408      -0.01971268
In       5.73962367       1.19371592       1.17003752        3       0.00976752       0.00007408       0.01971268
In       2.87364868       1.19371592       7.10757400        4       0.00976752       0.00007408      -0.01971268
In       5.73962367       1.75156353       9.44764904        5       0.00976752      -0.00007408       0.01971268
In       2.85830131       4.13899536       1.17003752        6      -0.00976752       0.00007408       0.01971268
In      -0.00767368       4.69684297      15.38518552        7      -0.00976752      -0.00007408      -0.01971268
In       2.84275646       4.38106431      13.54272274        8      -0.01060143      -0.00540584      -0.01373678
In       5.70873145       4.45477402       3.01250030        9      -0.01060143       0.00540584       0.01373678
In       2.88919353       1.43578487      11.29011182       10       0.01060143      -0.00540584       0.01373678
In       0.02321854       1.50949457       5.26511122       11       0.01060143       0.00540584      -0.01373678
In       2.88919353       1.50949457       3.01250030       12       0.01060143       0.00540584       0.01373678
In       0.02321854       1.43578487      13.54272274       13       0.01060143      -0.00540584      -0.01373678
In       2.84275646       4.45477402       5.26511122       14      -0.01060143       0.00540584      -0.01373678
In       5.70873145       4.38106431      11.29011182       15      -0.01060143      -0.00540584       0.01373678
O        4.92335690       5.15675781      13.21605537       16      -0.00792262      -0.05199119       0.00113236
O        2.05738190       3.67908053       3.33916767       17      -0.00792262       0.05199119      -0.00113236
O        0.80859309       2.21147836      11.61677918       18       0.00792262      -0.05199119      -0.00113236
O        3.67456809       0.73380108       4.93844385       19       0.00792262       0.05199119       0.00113236
O        0.80859309       0.73380108       3.33916767       20       0.00792262       0.05199119      -0.00113236
O        3.67456809       2.21147836      13.21605537       21       0.00792262      -0.05199119       0.00113236
O        4.92335690       3.67908053       4.93844385       22      -0.00792262       0.05199119       0.00113236
O        2.05738190       5.15675781      11.61677918       23      -0.00792262      -0.05199119      -0.00113236
O        4.03365148       3.09457045      10.33645867       24      -0.07392287       0.01485744      -0.00744000
O        1.16767649       5.74126788       6.21876437       25      -0.07392287      -0.01485744       0.00744000
O        1.69829850       0.14929101      14.49637589       26       0.07392287       0.01485744       0.00744000
O        4.56427350       2.79598843       2.05884715       27       0.07392287      -0.01485744      -0.00744000
O        1.69829850       2.79598843       6.21876437       28       0.07392287      -0.01485744       0.00744000
O        4.56427350       0.14929101      10.33645867       29       0.07392287       0.01485744      -0.00744000
O        4.03365148       5.74126788       2.05884715       30      -0.07392287      -0.01485744      -0.00744000
O        1.16767649       3.09457045      14.49637589       31      -0.07392287       0.01485744       0.00744000
O        3.70814879       3.88792083      15.70184143       32       0.03097419       0.03521744       0.03442700
O        0.84217380       4.94791750       0.85338161       33       0.03097419      -0.03521744      -0.03442700
O        2.02380119       0.94264138       9.13099313       34      -0.03097419       0.03521744      -0.03442700
O        4.88977619       2.00263806       7.42422991       35      -0.03097419      -0.03521744       0.03442700
O        2.02380119       2.00263806       0.85338161       36      -0.03097419      -0.03521744      -0.03442700
O        4.88977619       0.94264138      15.70184143       37      -0.03097419       0.03521744       0.03442700
O        3.70814879       4.94791750       7.42422991       38       0.03097419      -0.03521744       0.03442700
O        0.84217380       3.88792083       9.13099313       39       0.03097419       0.03521744      -0.03442700
40
Lattice="5.727305007344236 -3.05013910468735e-43 0.0 2.9736207312830335e-43 5.884678817174425 0.0 0.0 0.0 16.585205390316055" Properties=species:S:1:pos:R:3:spacegroup_kinds:I:1:forces:R:3 spacegroup="P 1" unit_cell=conventional occupancy="_JSON {\"0\": {\"In\": 1}, \"1\": {\"In\": 1}, \"2\": {\"In\": 1}, \"3\": {\"In\": 1}, \"4\": {\"In\": 1}, \"5\": {\"In\": 1}, \"6\": {\"In\": 1}, \"7\": {\"In\": 1}, \"8\": {\"In\": 1}, \"9\": {\"In\": 1}, \"10\": {\"In\": 1}, \"11\": {\"In\": 1}, \"12\": {\"In\": 1}, \"13\": {\"In\": 1}, \"14\": {\"In\": 1}, \"15\": {\"In\": 1}, \"16\": {\"O\": 1}, \"17\": {\"O\": 1}, \"18\": {\"O\": 1}, \"19\": {\"O\": 1}, \"20\": {\"O\": 1}, \"21\": {\"O\": 1}, \"22\": {\"O\": 1}, \"23\": {\"O\": 1}, \"24\": {\"O\": 1}, \"25\": {\"O\": 1}, \"26\": {\"O\": 1}, \"27\": {\"O\": 1}, \"28\": {\"O\": 1}, \"29\": {\"O\": 1}, \"30\": {\"O\": 1}, \"31\": {\"O\": 1}, \"32\": {\"O\": 1}, \"33\": {\"O\": 1}, \"34\": {\"O\": 1}, \"35\": {\"O\": 1}, \"36\": {\"O\": 1}, \"37\": {\"O\": 1}, \"38\": {\"O\": 1}, \"39\": {\"O\": 1}}" n_minim_iter=3 energy=-45149.29858856717 stress="0.0474942697161252 2.4103159458457364e-13 2.8715561344164355e-13 2.4103159458457364e-13 0.04697788577394449 -1.6189972342919017e-13 2.8715561344164355e-13 -1.6189972342919017e-13 0.049667334949165774" free_energy=-45149.29858856717 pbc="T T T"
In       2.85556280       4.69226457       9.46590878        0      -0.00286291       0.01723544      -0.00579137
In      -0.00808970       4.13475366       7.11929661        1      -0.00286291      -0.01723544       0.00579137
In       2.87174220       1.74992516      15.41189930        2       0.00286291       0.01723544       0.00579137
In       5.73539471       1.19241425       1.17330609        3       0.00286291      -0.01723544      -0.00579137
In       2.87174220       1.19241425       7.11929661        4       0.00286291      -0.01723544       0.00579137
In       5.73539471       1.74992516       9.46590878        5       0.00286291       0.01723544      -0.00579137
In       2.85556280       4.13475366       1.17330609        6      -0.00286291      -0.01723544      -0.00579137
In      -0.00808970       4.69226457      15.41189930        7      -0.00286291       0.01723544       0.00579137
In       2.83978421       4.37631334      13.56650252        8      -0.01388547      -0.00858809      -0.01423321
In       5.70343672       4.45070489       3.01870287        9      -0.01388547       0.00858809       0.01423321
In       2.88752079       1.43397393      11.31130557       10       0.01388547      -0.00858809       0.01423321
In       0.02386829       1.50836548       5.27389982       11       0.01388547       0.00858809      -0.01423321
In       2.88752079       1.50836548       3.01870287       12       0.01388547       0.00858809       0.01423321
In       0.02386829       1.43397393      13.56650252       13       0.01388547      -0.00858809      -0.01423321
In       2.83978421       4.45070489       5.27389982       14      -0.01388547       0.00858809      -0.01423321
In       5.70343672       4.37631334      11.31130557       15      -0.01388547      -0.00858809       0.01423321
O        4.91890918       5.14872409      13.24001081       16       0.00285324      -0.03395098       0.00078436
O        2.05525667       3.67829414       3.34519458       17       0.00285324       0.03395098      -0.00078436
O        0.80839583       2.20638468      11.63779727       18      -0.00285324      -0.03395098      -0.00078436
O        3.67204833       0.73595473       4.94740812       19      -0.00285324       0.03395098       0.00078436
O        0.80839583       0.73595473       3.34519458       20      -0.00285324       0.03395098      -0.00078436
O        3.67204833       2.20638468      13.24001081       21      -0.00285324      -0.03395098       0.00078436
O        4.91890918       3.67829414       4.94740812       22       0.00285324       0.03395098       0.00078436
O        2.05525667       5.14872409      11.63779727       23       0.00285324      -0.03395098      -0.00078436
O        4.02621403       3.09232539      10.35473543       24      -0.02991399      -0.00317648       0.01018700
O        1.16256152       5.73469284       6.23046996       25      -0.02991399       0.00317648      -0.01018700
O        1.70109098       0.14998598      14.52307266       26       0.02991399      -0.00317648      -0.01018700
O        4.56474348       2.79235343       2.06213273       27       0.02991399       0.00317648       0.01018700
O        1.70109098       2.79235343       6.23046996       28       0.02991399       0.00317648      -0.01018700
O        4.56474348       0.14998598      10.35473543       29       0.02991399      -0.00317648       0.01018700
O        4.02621403       5.73469284       2.06213273       30      -0.02991399       0.00317648       0.01018700
O        1.16256152       3.09232539      14.52307266       31      -0.02991399      -0.00317648      -0.01018700
O        3.70687475       3.88592914      15.73225484       32      -0.00031885       0.01458426       0.02489565
O        0.84322225       4.94108909       0.85295055       33      -0.00031885      -0.01458426      -0.02489565
O        2.02043026       0.94358973       9.14555324       34       0.00031885       0.01458426      -0.02489565
O        4.88408276       1.99874968       7.43965215       35       0.00031885      -0.01458426       0.02489565
O        2.02043026       1.99874968       0.85295055       36       0.00031885      -0.01458426      -0.02489565
O        4.88408276       0.94358973      15.73225484       37       0.00031885       0.01458426       0.02489565
O        3.70687475       4.94108909       7.43965215       38      -0.00031885      -0.01458426       0.02489565
O        0.84322225       3.88592914       9.14555324       39      -0.00031885       0.01458426      -0.02489565
40
Lattice="5.730206957104535 -2.975635545063064e-43 0.0 3.056706800267146e-43 5.89367049706478 0.0 0.0 0.0 16.55151573320899" Properties=species:S:1:pos:R:3:spacegroup_kinds:I:1:forces:R:3 spacegroup="P 1" unit_cell=conventional occupancy="_JSON {\"0\": {\"In\": 1}, \"1\": {\"In\": 1}, \"2\": {\"In\": 1}, \"3\": {\"In\": 1}, \"4\": {\"In\": 1}, \"5\": {\"In\": 1}, \"6\": {\"In\": 1}, \"7\": {\"In\": 1}, \"8\": {\"In\": 1}, \"9\": {\"In\": 1}, \"10\": {\"In\": 1}, \"11\": {\"In\": 1}, \"12\": {\"In\": 1}, \"13\": {\"In\": 1}, \"14\": {\"In\": 1}, \"15\": {\"In\": 1}, \"16\": {\"O\": 1}, \"17\": {\"O\": 1}, \"18\": {\"O\": 1}, \"19\": {\"O\": 1}, \"20\": {\"O\": 1}, \"21\": {\"O\": 1}, \"22\": {\"O\": 1}, \"23\": {\"O\": 1}, \"24\": {\"O\": 1}, \"25\": {\"O\": 1}, \"26\": {\"O\": 1}, \"27\": {\"O\": 1}, \"28\": {\"O\": 1}, \"29\": {\"O\": 1}, \"30\": {\"O\": 1}, \"31\": {\"O\": 1}, \"32\": {\"O\": 1}, \"33\": {\"O\": 1}, \"34\": {\"O\": 1}, \"35\": {\"O\": 1}, \"36\": {\"O\": 1}, \"37\": {\"O\": 1}, \"38\": {\"O\": 1}, \"39\": {\"O\": 1}}" n_minim_iter=4 energy=-45149.30126475713 stress="0.04762857838033443 5.278020897682967e-13 1.8437310671170666e-13 5.278020897682967e-13 0.04764356600390938 3.554930508262863e-13 1.8437310671170666e-13 3.554930508262863e-13 0.04765641079611527" free_energy=-45149.30126475713 pbc="T T T"
In       2.85661641       4.69960324       9.44769303        0      -0.01191842       0.03094197      -0.01304902
In      -0.00848707       4.14090251       7.10382270        1      -0.01191842      -0.03094197       0.01304902
In       2.87359055       1.75276799      15.37958057        2       0.01191842       0.03094197       0.01304902
In       5.73869403       1.19406726       1.17193517        3       0.01191842      -0.03094197      -0.01304902
In       2.87359055       1.19406726       7.10382270        4       0.01191842      -0.03094197       0.01304902
In       5.73869403       1.75276799       9.44769303        5       0.01191842       0.03094197      -0.01304902
In       2.85661641       4.14090251       1.17193517        6      -0.01191842      -0.03094197      -0.01304902
In      -0.00848707       4.69960324      15.37958057        7      -0.01191842       0.03094197       0.01304902
In       2.84056281       4.38262410      13.53821404        8      -0.00719569      -0.02491870       0.00327153
In       5.70566629       4.45788165       3.01330170        9      -0.00719569       0.02491870      -0.00327153
In       2.88964414       1.43578885      11.28905956       10       0.00719569      -0.02491870      -0.00327153
In       0.02454066       1.51104640       5.26245617       11       0.00719569       0.02491870       0.00327153
In       2.88964414       1.51104640       3.01330170       12       0.00719569       0.02491870      -0.00327153
In       0.02454066       1.43578885      13.53821404       13       0.00719569      -0.02491870       0.00327153
In       2.84056281       4.45788165       5.26245617       14      -0.00719569       0.02491870       0.00327153
In       5.70566629       4.38262410      11.28905956       15      -0.00719569      -0.02491870      -0.00327153
O        4.92099934       5.15384393      13.21313799       16       0.00381048      -0.01731241       0.01182021
O        2.05589586       3.68666181       3.33837775       17       0.00381048       0.01731241      -0.01182021
O        0.80920762       2.20700868      11.61413561       18      -0.00381048      -0.01731241      -0.01182021
O        3.67431110       0.73982656       4.93738012       19      -0.00381048       0.01731241       0.01182021
O        0.80920762       0.73982656       3.33837775       20      -0.00381048       0.01731241      -0.01182021
O        3.67431110       2.20700868      13.21313799       21      -0.00381048      -0.01731241       0.01182021
O        4.92099934       3.68666181       4.93738012       22       0.00381048       0.01731241       0.01182021
O        2.05589586       5.15384393      11.61413561       23       0.00381048      -0.01731241      -0.01182021
O        4.02436637       3.09780086      10.33334381       24       0.00164652      -0.00533927       0.01402303
O        1.15926289       5.74270488       6.21817192       25       0.00164652       0.00533927      -0.01402303
O        1.70584059       0.15096561      14.49392979       26      -0.00164652      -0.00533927      -0.01402303
O        4.57094407       2.79586964       2.05758595       27      -0.00164652       0.00533927       0.01402303
O        1.70584059       2.79586964       6.21817192       28      -0.00164652       0.00533927      -0.01402303
O        4.57094407       0.15096561      10.33334381       29      -0.00164652      -0.00533927       0.01402303
O        4.02436637       5.74270488       2.05758595       30       0.00164652       0.00533927       0.01402303
O        1.15926289       3.09780086      14.49392979       31       0.00164652      -0.00533927      -0.01402303
O        3.71031553       3.89363444      15.70217993       32      -0.01671338      -0.00479467       0.00168629
O        0.84521205       4.94687131       0.84933580       33      -0.01671338       0.00479467      -0.00168629
O        2.01989143       0.94679919       9.12509367       34       0.01671338      -0.00479467      -0.00168629
O        4.88499491       2.00003606       7.42642207       35       0.01671338       0.00479467       0.00168629
O        2.01989143       2.00003606       0.84933580       36       0.01671338       0.00479467      -0.00168629
O        4.88499491       0.94679919      15.70217993       37       0.01671338      -0.00479467       0.00168629
O        3.71031553       4.94687131       7.42642207       38      -0.01671338       0.00479467       0.00168629
O        0.84521205       3.89363444       9.12509367       39      -0.01671338      -0.00479467      -0.00168629
40
Lattice="5.7297584520824705 -3.072778298773609e-43 0.0 3.053160368594713e-43 5.896221485179346 0.0 0.0 0.0 16.545649786909678" Properties=species:S:1:pos:R:3:spacegroup_kinds:I:1:forces:R:3 spacegroup="P 1" unit_cell=conventional occupancy="_JSON {\"0\": {\"In\": 1}, \"1\": {\"In\": 1}, \"2\": {\"In\": 1}, \"3\": {\"In\": 1}, \"4\": {\"In\": 1}, \"5\": {\"In\": 1}, \"6\": {\"In\": 1}, \"7\": {\"In\": 1}, \"8\": {\"In\": 1}, \"9\": {\"In\": 1}, \"10\": {\"In\": 1}, \"11\": {\"In\": 1}, \"12\": {\"In\": 1}, \"13\": {\"In\": 1}, \"14\": {\"In\": 1}, \"15\": {\"In\": 1}, \"16\": {\"O\": 1}, \"17\": {\"O\": 1}, \"18\": {\"O\": 1}, \"19\": {\"O\": 1}, \"20\": {\"O\": 1}, \"21\": {\"O\": 1}, \"22\": {\"O\": 1}, \"23\": {\"O\": 1}, \"24\": {\"O\": 1}, \"25\": {\"O\": 1}, \"26\": {\"O\": 1}, \"27\": {\"O\": 1}, \"28\": {\"O\": 1}, \"29\": {\"O\": 1}, \"30\": {\"O\": 1}, \"31\": {\"O\": 1}, \"32\": {\"O\": 1}, \"33\": {\"O\": 1}, \"34\": {\"O\": 1}, \"35\": {\"O\": 1}, \"36\": {\"O\": 1}, \"37\": {\"O\": 1}, \"38\": {\"O\": 1}, \"39\": {\"O\": 1}}" n_minim_iter=5 energy=-45149.30295034349 stress="0.04743081951040031 5.34673044391559e-13 -2.1659972408080543e-14 5.34673044391559e-13 0.04740088115648482 -3.4843842518239027e-13 -2.1659972408080543e-14 -3.4843842518239027e-13 0.04696838304705932" free_energy=-45149.30295034349 pbc="T T T"
In       2.85436792       4.70613312       9.44329260        0       0.00320821      -0.00850549       0.01008095
In      -0.01051131       4.13819911       7.10235718        1       0.00320821       0.00850549      -0.01008095
In       2.87539054       1.75802238      15.37518208        2      -0.00320821      -0.00850549      -0.01008095
In       5.74026976       1.19008837       1.17046771        3      -0.00320821       0.00850549       0.01008095
In       2.87539054       1.19008837       7.10235718        4      -0.00320821       0.00850549      -0.01008095
In       5.74026976       1.75802238       9.44329260        5      -0.00320821      -0.00850549       0.01008095
In       2.85436792       4.13819911       1.17046771        6       0.00320821       0.00850549       0.01008095
In      -0.01051131       4.70613312      15.37518208        7       0.00320821      -0.00850549      -0.01008095
In       2.83882870       4.38069605      13.53333629        8      -0.00616330      -0.01461544      -0.01096871
In       5.70370793       4.46363618       3.01231350        9      -0.00616330       0.01461544       0.01096871
In       2.89092975       1.43258531      11.28513839       10       0.00616330      -0.01461544       0.01096871
In       0.02605052       1.51552543       5.26051139       11       0.00616330       0.01461544      -0.01096871
In       2.89092975       1.51552543       3.01231350       12       0.00616330       0.01461544       0.01096871
In       0.02605052       1.43258531      13.53333629       13       0.00616330      -0.01461544      -0.01096871
In       2.83882870       4.46363618       5.26051139       14      -0.00616330       0.01461544      -0.01096871
In       5.70370793       4.38069605      11.28513839       15      -0.00616330      -0.01461544       0.01096871
O        4.92083622       5.15150839      13.21016193       16      -0.00321925      -0.00551967       0.00965493
O        2.05595699       3.69282384       3.33548785       17      -0.00321925       0.00551967      -0.00965493
O        0.80892223       2.20339764      11.60831275       18       0.00321925      -0.00551967      -0.00965493
O        3.67380146       0.74471310       4.93733704       19       0.00321925       0.00551967       0.00965493
O        0.80892223       0.74471310       3.33548785       20       0.00321925       0.00551967      -0.00965493
O        3.67380146       2.20339764      13.21016193       21       0.00321925      -0.00551967       0.00965493
O        4.92083622       3.69282384       4.93733704       22      -0.00321925       0.00551967       0.00965493
O        2.05595699       5.15150839      11.60831275       23      -0.00321925      -0.00551967      -0.00965493
O        4.02128447       3.09897989      10.33137801       24       0.00735752       0.00594291      -0.00372415
O        1.15640525       5.74535233       6.21427178       25       0.00735752      -0.00594291       0.00372414
O        1.70847398       0.15086915      14.48709667       26      -0.00735752       0.00594291       0.00372415
O        4.57335320       2.79724159       2.05855311       27      -0.00735752      -0.00594291      -0.00372415
O        1.70847398       2.79724159       6.21427178       28      -0.00735752      -0.00594291       0.00372415
O        4.57335320       0.15086915      10.33137801       29      -0.00735752       0.00594291      -0.00372415
O        4.02128447       5.74535233       2.05855311       30       0.00735752      -0.00594291      -0.00372415
O        1.15640525       3.09897989      14.48709667       31       0.00735752       0.00594291       0.00372415
O        3.70886965       3.89600853      15.69828011       32      -0.01170487      -0.00841533      -0.01434560
O        0.84399042       4.94832370       0.84736968       33      -0.01170487       0.00841533       0.01434560
O        2.02088880       0.94789778       9.12019457       34       0.01170487      -0.00841533       0.01434560
O        4.88576803       2.00021296       7.42545521       35       0.01170487       0.00841533      -0.01434560
O        2.02088880       2.00021296       0.84736968       36       0.01170487       0.00841533       0.01434560
O        4.88576803       0.94789778      15.69828011       37       0.01170487      -0.00841533      -0.01434560
O        3.70886965       4.94832370       7.42545521       38      -0.01170487       0.00841533      -0.01434560
O        0.84399042       3.89600853       9.12019457       39      -0.01170487      -0.00841533       0.01434560
40