40
Lattice="5.4781182618204625 -1.6587870876607417e-42 0.0 5.876866636703158e-43 5.511478256102098 0.0 0.0 0.0 15.499884919210793" Properties=species:S:1:pos:R:3:spacegroup_kinds:I:1:forces:R:3 spacegroup="P 1" unit_cell=conventional occupancy="_JSON {\"0\": {\"In\": 1}, \"1\": {\"In\": 1}, \"2\": {\"In\": 1}, \"3\": {\"In\": 1}, \"4\": {\"In\": 1}, \"5\": {\"In\": 1}, \"6\": {\"In\": 1}, \"7\": {\"In\": 1}, \"8\": {\"In\": 1}, \"9\": {\"In\": 1}, \"10\": {\"In\": 1}, \"11\": {\"In\": 1}, \"12\": {\"In\": 1}, \"13\": {\"In\": 1}, \"14\": {\"In\": 1}, \"15\": {\"In\": 1}, \"16\": {\"O\": 1}, \"17\": {\"O\": 1}, \"18\": {\"O\": 1}, \"19\": {\"O\": 1}, \"20\": {\"O\": 1}, \"21\": {\"O\": 1}, \"22\": {\"O\": 1}, \"23\": {\"O\": 1}, \"24\": {\"O\": 1}, \"25\": {\"O\": 1}, \"26\": {\"O\": 1}, \"27\": {\"O\": 1}, \"28\": {\"O\": 1}, \"29\": {\"O\": 1}, \"30\": {\"O\": 1}, \"31\": {\"O\": 1}, \"32\": {\"O\": 1}, \"33\": {\"O\": 1}, \"34\": {\"O\": 1}, \"35\": {\"O\": 1}, \"36\": {\"O\": 1}, \"37\": {\"O\": 1}, \"38\": {\"O\": 1}, \"39\": {\"O\": 1}}" n_minim_iter=22 energy=-45147.72301266133 stress="-0.10427076586817878 -5.420398351857635e-13 -1.8448004538561548e-13 -5.420398351857635e-13 -0.10414008395545354 2.1873219147088272e-13 -1.8448004538561548e-13 2.1873219147088272e-13 -0.10422779070991801" free_energy=-45147.72301266133 pbc="T T T"
In       2.74022062       4.29783791       8.81491042        0       0.00383828      -0.00393180      -0.00521166
In       0.00116149       3.96937947       6.68497449        1       0.00383828       0.00393180       0.00521166
In       2.73789764       1.54209878      14.43491695        2      -0.00383828      -0.00393180       0.00521166
In       5.47695677       1.21364035       1.06496796        3      -0.00383828       0.00393180      -0.00521166
In       2.73789764       1.21364035       6.68497449        4      -0.00383828       0.00393180       0.00521166
In       5.47695677       1.54209878       8.81491042        5      -0.00383828      -0.00393180      -0.00521166
In       2.74022062       3.96937947       1.06496796        6       0.00383828       0.00393180      -0.00521166
In       0.00116149       4.29783791      14.43491695        7       0.00383828      -0.00393180       0.00521166
In       2.73539041       4.02698668      12.64712512        8       0.00575573       0.00369905       0.00668139
In       5.47444954       4.24023071       2.85275980        9       0.00575573      -0.00369905      -0.00668139
In       2.74272785       1.27124755      10.60270226       10      -0.00575573       0.00369905      -0.00668139
In       0.00366872       1.48449158       4.89718266       11      -0.00575573      -0.00369905       0.00668139
In       2.74272785       1.48449158       2.85275980       12      -0.00575573      -0.00369905      -0.00668139
In       0.00366872       1.27124755      12.64712512       13      -0.00575573       0.00369905       0.00668139
In       2.73539041       4.24023071       4.89718266       14       0.00575573      -0.00369905       0.00668139
In       5.47444954       4.02698668      10.60270226       15       0.00575573       0.00369905      -0.00668139
O        4.70312106       4.77826887      12.39687022       16      -0.00022471      -0.00315517       0.00162833
O        1.96406193       3.48894852       3.10301470       17      -0.00022471       0.00315517      -0.00162833
O        0.77499721       2.02252974      10.85295716       18       0.00022471      -0.00315517      -0.00162833
O        3.51405634       0.73320939       4.64692776       19       0.00022471       0.00315517       0.00162833
O        0.77499721       0.73320939       3.10301470       20       0.00022471       0.00315517      -0.00162833
O        3.51405634       2.02252974      12.39687022       21       0.00022471      -0.00315517       0.00162833
O        4.70312106       3.48894852       4.64692776       22      -0.00022471       0.00315517       0.00162833
O        1.96406193       4.77826887      10.85295716       23      -0.00022471      -0.00315517      -0.00162833
O        3.89482978       2.80749810       9.71057085       24       0.00413620       0.00052569      -0.00490481
O        1.15577065       5.45971928       5.78931407       25       0.00413620      -0.00052569       0.00490481
O        1.58328848       0.05175897      13.53925653       26      -0.00413620       0.00052569       0.00490481
O        4.32234761       2.70398015       1.96062839       27      -0.00413620      -0.00052569      -0.00490481
O        1.58328848       2.70398015       5.78931407       28      -0.00413620      -0.00052569       0.00490481
O        4.32234761       0.05175897       9.71057085       29      -0.00413620       0.00052569      -0.00490481
O        3.89482978       5.45971928       1.96062839       30       0.00413620      -0.00052569      -0.00490481
O        1.15577065       2.80749810      13.53925653       31       0.00413620       0.00052569       0.00490481
O        3.51296725       3.59388581      14.65110569       32       0.00695152       0.00239609       0.00000927
O        0.77390812       4.67333158       0.84877923       33       0.00695152      -0.00239609      -0.00000927
O        1.96515101       0.83814668       8.59872169       34      -0.00695152       0.00239609      -0.00000927
O        4.70421014       1.91759245       6.90116323       35      -0.00695152      -0.00239609       0.00000927
O        1.96515101       1.91759245       0.84877923       36      -0.00695152      -0.00239609      -0.00000927
O        4.70421014       0.83814668      14.65110569       37      -0.00695152       0.00239609       0.00000927
O        3.51296725       4.67333158       6.90116323       38       0.00695152      -0.00239609       0.00000927
O        0.77390812       3.59388581       8.59872169       39       0.00695152       0.00239609      -0.00000927
