40
Lattice="5.979883362891049 1.503449696938824e-17 -1.5180773568860537e-16 -8.742973150947087e-16 4.032880818439099 2.2124062211272415e-15 -5.739696879315914e-17 -1.8130000451253828e-15 16.171065220594144" Properties=species:S:1:pos:R:3:spacegroup_kinds:I:1:forces:R:3 spacegroup="P 1" unit_cell=conventional occupancy="_JSON {\"0\": {\"In\": 1}, \"1\": {\"In\": 1}, \"2\": {\"In\": 1}, \"3\": {\"In\": 1}, \"4\": {\"In\": 1}, \"5\": {\"In\": 1}, \"6\": {\"In\": 1}, \"7\": {\"In\": 1}, \"8\": {\"In\": 1}, \"9\": {\"In\": 1}, \"10\": {\"In\": 1}, \"11\": {\"In\": 1}, \"12\": {\"In\": 1}, \"13\": {\"In\": 1}, \"14\": {\"In\": 1}, \"15\": {\"In\": 1}, \"16\": {\"O\": 1}, \"17\": {\"O\": 1}, \"18\": {\"O\": 1}, \"19\": {\"O\": 1}, \"20\": {\"O\": 1}, \"21\": {\"O\": 1}, \"22\": {\"O\": 1}, \"23\": {\"O\": 1}, \"24\": {\"O\": 1}, \"25\": {\"O\": 1}, \"26\": {\"O\": 1}, \"27\": {\"O\": 1}, \"28\": {\"O\": 1}, \"29\": {\"O\": 1}, \"30\": {\"O\": 1}, \"31\": {\"O\": 1}, \"32\": {\"O\": 1}, \"33\": {\"O\": 1}, \"34\": {\"O\": 1}, \"35\": {\"O\": 1}, \"36\": {\"O\": 1}, \"37\": {\"O\": 1}, \"38\": {\"O\": 1}, \"39\": {\"O\": 1}}" n_minim_iter=8 energy=-45137.256512179294 stress="-0.2924466464015366 -2.651808412345551e-13 -7.333057339022068e-13 -2.651808412345551e-13 -0.2924810669788606 -5.879880860812542e-13 -7.333057339022068e-13 -5.879880860812542e-13 -0.2924321335723229" free_energy=-45137.256512179294 pbc="T T T"
In       2.86775125       3.04745766       9.16412391        0       0.00064906      -0.00000000       0.00063523
In      -0.12219043       3.04745766       7.00591821        1       0.00064906       0.00000000      -0.00063523
In       3.11168928       1.03101725      15.09145082        2      -0.00064906      -0.00000000      -0.00063523
In       6.10163096       1.03101725       1.07859129        3      -0.00064906      -0.00000000       0.00063523
In       3.11168928       1.03101725       7.00591821        4      -0.00064906       0.00000000      -0.00063523
In       6.10163096       1.03101725       9.16412391        5      -0.00064906       0.00000000       0.00063523
In       2.86775125       3.04745766       1.07859129        6       0.00064906      -0.00000000       0.00063523
In      -0.12219043       3.04745766      15.09145082        7       0.00064906       0.00000000      -0.00063523
In       3.11168928       3.04745766      13.20689021        8      -0.00064906       0.00000000       0.00063523
In       6.10163096       3.04745766       2.96315191        9      -0.00064906      -0.00000000      -0.00063523
In       2.86775125       1.03101725      11.04868452       10       0.00064906      -0.00000000      -0.00063523
In      -0.12219043       1.03101725       5.12135760       11       0.00064906       0.00000000       0.00063523
In       2.86775125       1.03101725       2.96315191       12       0.00064906       0.00000000      -0.00063523
In      -0.12219043       1.03101725      13.20689021       13       0.00064906       0.00000000       0.00063523
In       3.11168928       3.04745766       5.12135760       14      -0.00064906       0.00000000       0.00063523
In       6.10163096       3.04745766      11.04868452       15      -0.00064906      -0.00000000      -0.00063523
O        5.22527594       3.04745766      12.91761663       16       0.00005620      -0.00000000      -0.00003769
O        2.23533426       3.04745766       3.25242549       17       0.00005620      -0.00000000       0.00003769
O        0.75416459       1.03101725      11.33795810       18      -0.00005620      -0.00000000       0.00003769
O        3.74410627       1.03101725       4.83208402       19      -0.00005620      -0.00000000      -0.00003769
O        0.75416459       1.03101725       3.25242549       20      -0.00005620      -0.00000000       0.00003769
O        3.74410627       1.03101725      12.91761663       21      -0.00005620      -0.00000000      -0.00003769
O        5.22527594       3.04745766       4.83208402       22       0.00005620      -0.00000000      -0.00003769
O        2.23533426       3.04745766      11.33795810       23       0.00005620      -0.00000000       0.00003769
O        4.48469111       2.03923746      10.10640421       24       0.00000000       0.00000000      -0.00000000
O        1.49474943       4.05567786       6.06363791       25      -0.00000000      -0.00000000      -0.00000000
O        1.49474943       0.02279705      14.14917052       26      -0.00000000       0.00000000       0.00000000
O        4.48469111       2.03923746       2.02087160       27       0.00000000      -0.00000000       0.00000000
O        1.49474943       2.03923746       6.06363791       28      -0.00000000      -0.00000000       0.00000000
O        4.48469111       0.02279705      10.10640421       29       0.00000000       0.00000000      -0.00000000
O        4.48469111       4.05567786       2.02087160       30      -0.00000000       0.00000000      -0.00000000
O        1.49474943       2.03923746      14.14917052       31      -0.00000000       0.00000000      -0.00000000
O        3.74410627       3.04745766      15.38072440       32      -0.00005620       0.00000000       0.00003769
O        0.75416459       3.04745766       0.78931771       33      -0.00005620       0.00000000      -0.00003769
O        2.23533426       1.03101725       8.87485032       34       0.00005620      -0.00000000      -0.00003769
O        5.22527594       1.03101725       7.29519179       35       0.00005620       0.00000000       0.00003769
O        2.23533426       1.03101725       0.78931771       36       0.00005620       0.00000000      -0.00003769
O        5.22527594       1.03101725      15.38072440       37       0.00005620      -0.00000000       0.00003769
O        3.74410627       3.04745766       7.29519179       38      -0.00005620       0.00000000       0.00003769
O        0.75416459       3.04745766       8.87485032       39      -0.00005620      -0.00000000      -0.00003769
