40
Lattice="5.497954245002334 4.377189209114177e-43 0.0 -6.986273841161023e-43 5.688392995260201 0.0 0.0 0.0 15.794953704682186" Properties=species:S:1:pos:R:3:spacegroup_kinds:I:1:forces:R:3 spacegroup="P 1" unit_cell=conventional occupancy="_JSON {\"0\": {\"In\": 1}, \"1\": {\"In\": 1}, \"2\": {\"In\": 1}, \"3\": {\"In\": 1}, \"4\": {\"In\": 1}, \"5\": {\"In\": 1}, \"6\": {\"In\": 1}, \"7\": {\"In\": 1}, \"8\": {\"In\": 1}, \"9\": {\"In\": 1}, \"10\": {\"In\": 1}, \"11\": {\"In\": 1}, \"12\": {\"In\": 1}, \"13\": {\"In\": 1}, \"14\": {\"In\": 1}, \"15\": {\"In\": 1}, \"16\": {\"O\": 1}, \"17\": {\"O\": 1}, \"18\": {\"O\": 1}, \"19\": {\"O\": 1}, \"20\": {\"O\": 1}, \"21\": {\"O\": 1}, \"22\": {\"O\": 1}, \"23\": {\"O\": 1}, \"24\": {\"O\": 1}, \"25\": {\"O\": 1}, \"26\": {\"O\": 1}, \"27\": {\"O\": 1}, \"28\": {\"O\": 1}, \"29\": {\"O\": 1}, \"30\": {\"O\": 1}, \"31\": {\"O\": 1}, \"32\": {\"O\": 1}, \"33\": {\"O\": 1}, \"34\": {\"O\": 1}, \"35\": {\"O\": 1}, \"36\": {\"O\": 1}, \"37\": {\"O\": 1}, \"38\": {\"O\": 1}, \"39\": {\"O\": 1}}" n_minim_iter=9 energy=-45149.71176400157 stress="-0.04730284557775514 -1.0072070210953258e-13 2.537127407044474e-13 -1.0072070210953258e-13 -0.047303867001047155 -3.079973663544942e-13 2.537127407044474e-13 -3.079973663544942e-13 -0.047301844393235405" free_energy=-45149.71176400157 pbc="T T T"
In       2.74759408       4.53860080       9.01811386        0      -0.00123626       0.00399533      -0.00020934
In      -0.00138305       3.99398869       6.77683984        1      -0.00123626      -0.00399533       0.00020934
In       2.75036017       1.69440431      14.67431670        2       0.00123626       0.00399533       0.00020934
In       5.49933729       1.14979219       1.12063701        3       0.00123626      -0.00399533      -0.00020934
In       2.75036017       1.14979219       6.77683984        4       0.00123626      -0.00399533       0.00020934
In       5.49933729       1.69440431       9.01811386        5       0.00123626       0.00399533      -0.00020934
In       2.74759408       3.99398869       1.12063701        6      -0.00123626      -0.00399533      -0.00020934
In      -0.00138305       4.53860080      14.67431670        7      -0.00123626       0.00399533       0.00020934
In       2.74258629       4.24856590      12.91805046        8      -0.00221907       0.00062354      -0.00271683
In       5.49156341       4.28402359       2.87690324        9      -0.00221907      -0.00062354       0.00271683
In       2.75536796       1.40436941      10.77438010       10       0.00221907       0.00062354       0.00271683
In       0.00639083       1.43982709       5.02057361       11       0.00221907      -0.00062354      -0.00271683
In       2.75536796       1.43982709       2.87690324       12       0.00221907      -0.00062354       0.00271683
In       0.00639083       1.40436941      12.91805046       13       0.00221907       0.00062354      -0.00271683
In       2.74258629       4.28402359       5.02057361       14      -0.00221907      -0.00062354      -0.00271683
In       5.49156341       4.24856590      10.77438010       15      -0.00221907       0.00062354       0.00271683
O        4.72306345       5.02715681      12.60939328       16      -0.00064100      -0.00112726      -0.00163811
O        1.97408633       3.50543269       3.18556042       17      -0.00064100       0.00112726       0.00163811
O        0.77489079       2.18296031      11.08303727       18       0.00064100      -0.00112726       0.00163811
O        3.52386792       0.66123619       4.71191643       19       0.00064100       0.00112726      -0.00163811
O        0.77489079       0.66123619       3.18556042       20       0.00064100       0.00112726       0.00163811
O        3.52386792       2.18296031      12.60939328       21       0.00064100      -0.00112726      -0.00163811
O        4.72306345       3.50543269       4.71191643       22      -0.00064100       0.00112726      -0.00163811
O        1.97408633       5.02715681      11.08303727       23      -0.00064100      -0.00112726       0.00163811
O        3.89653680       2.99545501       9.87796926       24       0.00076965       0.00047318       0.00268050
O        1.14755968       5.53713448       5.91698444       25       0.00076965      -0.00047318      -0.00268050
O        1.60141745       0.15125852      13.81446129       26      -0.00076965       0.00047318      -0.00268050
O        4.35039457       2.69293798       1.98049241       27      -0.00076965      -0.00047318       0.00268050
O        1.60141745       2.69293798       5.91698444       28      -0.00076965      -0.00047318      -0.00268050
O        4.35039457       0.15125852       9.87796926       29      -0.00076965       0.00047318       0.00268050
O        3.89653680       5.53713448       1.98049241       30       0.00076965      -0.00047318       0.00268050
O        1.14755968       2.99545501      13.81446129       31       0.00076965       0.00047318      -0.00268050
O        3.54273945       3.75236872      14.95611214       32      -0.00071429       0.00006371       0.00061008
O        0.79376233       4.78022077       0.83884156       33      -0.00071429      -0.00006371      -0.00061008
O        1.95521480       0.90817222       8.73631841       34       0.00071429       0.00006371      -0.00061008
O        4.70419192       1.93602427       7.05863529       35       0.00071429      -0.00006371       0.00061008
O        1.95521480       1.93602427       0.83884156       36       0.00071429      -0.00006371      -0.00061008
O        4.70419192       0.90817222      14.95611214       37       0.00071429       0.00006371       0.00061008
O        3.54273945       4.78022077       7.05863529       38      -0.00071429      -0.00006371       0.00061008
O        0.79376233       3.75236872       8.73631841       39      -0.00071429       0.00006371      -0.00061008
