40
Lattice="5.533550380230857 4.788584730347378e-43 0.0 -4.9557186510286875e-43 5.7266855177328395 0.0 0.0 0.0 15.998633116741418" Properties=species:S:1:pos:R:3:spacegroup_kinds:I:1:forces:R:3 spacegroup="P 1" unit_cell=conventional occupancy="_JSON {\"0\": {\"In\": 1}, \"1\": {\"In\": 1}, \"2\": {\"In\": 1}, \"3\": {\"In\": 1}, \"4\": {\"In\": 1}, \"5\": {\"In\": 1}, \"6\": {\"In\": 1}, \"7\": {\"In\": 1}, \"8\": {\"In\": 1}, \"9\": {\"In\": 1}, \"10\": {\"In\": 1}, \"11\": {\"In\": 1}, \"12\": {\"In\": 1}, \"13\": {\"In\": 1}, \"14\": {\"In\": 1}, \"15\": {\"In\": 1}, \"16\": {\"O\": 1}, \"17\": {\"O\": 1}, \"18\": {\"O\": 1}, \"19\": {\"O\": 1}, \"20\": {\"O\": 1}, \"21\": {\"O\": 1}, \"22\": {\"O\": 1}, \"23\": {\"O\": 1}, \"24\": {\"O\": 1}, \"25\": {\"O\": 1}, \"26\": {\"O\": 1}, \"27\": {\"O\": 1}, \"28\": {\"O\": 1}, \"29\": {\"O\": 1}, \"30\": {\"O\": 1}, \"31\": {\"O\": 1}, \"32\": {\"O\": 1}, \"33\": {\"O\": 1}, \"34\": {\"O\": 1}, \"35\": {\"O\": 1}, \"36\": {\"O\": 1}, \"37\": {\"O\": 1}, \"38\": {\"O\": 1}, \"39\": {\"O\": 1}}" n_minim_iter=1 energy=-45150.29109261836 stress="0.00012808146581588762 -5.840543017130904e-13 -1.4756864556411575e-13 -5.840543017130904e-13 4.670965788132868e-05 -3.117069843135688e-13 -1.4756864556411575e-13 -3.117069843135688e-13 -6.31000818064691e-05" free_energy=-45150.29109261836 pbc="T T T"
In       2.76198950       4.57642900       9.13263514        0       0.00070187       0.00304204       0.00046466
In      -0.00478569       4.01359928       6.86599798        1       0.00070187      -0.00304204      -0.00046466
In       2.77156088       1.71308624      14.86531453        2      -0.00070187       0.00304204      -0.00046466
In       5.53833607       1.15025652       1.13331858        3      -0.00070187      -0.00304204       0.00046466
In       2.77156088       1.15025652       6.86599798        4      -0.00070187      -0.00304204      -0.00046466
In       5.53833607       1.71308624       9.13263514        5      -0.00070187       0.00304204       0.00046466
In       2.76198950       4.01359928       1.13331858        6       0.00070187      -0.00304204       0.00046466
In      -0.00478569       4.57642900      14.86531453        7       0.00070187       0.00304204      -0.00046466
In       2.75189367       4.27902403      13.09147291        8       0.00210575      -0.00035780      -0.00250205
In       5.51866886       4.31100425       2.90716021        9       0.00210575       0.00035780       0.00250205
In       2.78165671       1.41568127      10.90647677       10      -0.00210575      -0.00035780       0.00250205
In       0.01488152       1.44766149       5.09215635       11      -0.00210575       0.00035780      -0.00250205
In       2.78165671       1.44766149       2.90716021       12      -0.00210575       0.00035780       0.00250205
In       0.01488152       1.41568127      13.09147291       13      -0.00210575      -0.00035780      -0.00250205
In       2.75189367       4.31100425       5.09215635       14       0.00210575       0.00035780      -0.00250205
In       5.51866886       4.27902403      10.90647677       15       0.00210575      -0.00035780       0.00250205
O        4.75431605       5.04615003      12.76983506       16       0.00167889       0.00124415       0.00237078
O        1.98754086       3.54387824       3.22879806       17       0.00167889      -0.00124415      -0.00237078
O        0.77923433       2.18280727      11.22811462       18      -0.00167889       0.00124415      -0.00237078
O        3.54600952       0.68053549       4.77051850       19      -0.00167889      -0.00124415       0.00237078
O        0.77923433       0.68053549       3.22879806       20      -0.00167889      -0.00124415      -0.00237078
O        3.54600952       2.18280727      12.76983506       21      -0.00167889       0.00124415       0.00237078
O        4.75431605       3.54387824       4.77051850       22       0.00167889      -0.00124415       0.00237078
O        1.98754086       5.04615003      11.22811462       23       0.00167889       0.00124415      -0.00237078
O        3.90970079       3.02040093       9.99065239       24      -0.00009817      -0.00386464       0.00059159
O        1.14292560       5.56962735       6.00798073       25      -0.00009817       0.00386464      -0.00059159
O        1.62384959       0.15705817      14.00729728       26       0.00009817      -0.00386464      -0.00059159
O        4.39062478       2.70628459       1.99133583       27       0.00009817       0.00386464       0.00059159
O        1.62384959       2.70628459       6.00798073       28       0.00009817       0.00386464      -0.00059159
O        4.39062478       0.15705817       9.99065239       29       0.00009817      -0.00386464       0.00059159
O        3.90970079       5.56962735       1.99133583       30      -0.00009817       0.00386464       0.00059159
O        1.14292560       3.02040093      14.00729728       31      -0.00009817      -0.00386464      -0.00059159
O        3.57476501       3.78066229      15.16354222       32       0.00182718       0.00083433       0.00024356
O        0.80798982       4.80936598       0.83509090       33       0.00182718      -0.00083433      -0.00024356
O        1.95878537       0.91731953       8.83440745       34      -0.00182718       0.00083433      -0.00024356
O        4.72556056       1.94602323       7.16422566       35      -0.00182718      -0.00083433       0.00024356
O        1.95878537       1.94602323       0.83509090       36      -0.00182718      -0.00083433      -0.00024356
O        4.72556056       0.91731953      15.16354222       37      -0.00182718       0.00083433       0.00024356
O        3.57476501       4.80936598       7.16422566       38       0.00182718      -0.00083433       0.00024356
O        0.80798982       3.78066229       8.83440745       39       0.00182718       0.00083433      -0.00024356
