40
Lattice="5.723174841368036 -2.9692238964815146e-43 0.0 -3.81213002827326e-43 5.898493601681926 0.0 0.0 0.0 16.55830218652773" Properties=species:S:1:pos:R:3:spacegroup_kinds:I:1:forces:R:3 spacegroup="P 1" unit_cell=conventional occupancy="_JSON {\"0\": {\"In\": 1}, \"1\": {\"In\": 1}, \"2\": {\"In\": 1}, \"3\": {\"In\": 1}, \"4\": {\"In\": 1}, \"5\": {\"In\": 1}, \"6\": {\"In\": 1}, \"7\": {\"In\": 1}, \"8\": {\"In\": 1}, \"9\": {\"In\": 1}, \"10\": {\"In\": 1}, \"11\": {\"In\": 1}, \"12\": {\"In\": 1}, \"13\": {\"In\": 1}, \"14\": {\"In\": 1}, \"15\": {\"In\": 1}, \"16\": {\"O\": 1}, \"17\": {\"O\": 1}, \"18\": {\"O\": 1}, \"19\": {\"O\": 1}, \"20\": {\"O\": 1}, \"21\": {\"O\": 1}, \"22\": {\"O\": 1}, \"23\": {\"O\": 1}, \"24\": {\"O\": 1}, \"25\": {\"O\": 1}, \"26\": {\"O\": 1}, \"27\": {\"O\": 1}, \"28\": {\"O\": 1}, \"29\": {\"O\": 1}, \"30\": {\"O\": 1}, \"31\": {\"O\": 1}, \"32\": {\"O\": 1}, \"33\": {\"O\": 1}, \"34\": {\"O\": 1}, \"35\": {\"O\": 1}, \"36\": {\"O\": 1}, \"37\": {\"O\": 1}, \"38\": {\"O\": 1}, \"39\": {\"O\": 1}}" n_minim_iter=13 energy=-45149.831874314186 stress="0.03370719194607203 1.6194469125151792e-13 2.4657370489640097e-14 1.6194469125151792e-13 0.0336946090821648 -6.426810861198534e-13 2.4657370489640097e-14 -6.426810861198534e-13 0.033740873181401766" free_energy=-45149.831874314186 pbc="T T T"
In       2.85392945       4.70313988       9.44931995        0       0.00041147       0.00180600      -0.00535240
In      -0.00765797       4.14460052       7.10898224        1       0.00041147      -0.00180600       0.00535240
In       2.86924540       1.75389308      15.38813333        2      -0.00041147       0.00180600       0.00535240
In       5.73083282       1.19535372       1.17016885        3      -0.00041147      -0.00180600      -0.00535240
In       2.86924540       1.19535372       7.10898224        4      -0.00041147      -0.00180600       0.00535240
In       5.73083282       1.75389308       9.44931995        5      -0.00041147       0.00180601      -0.00535240
In       2.85392945       4.14460052       1.17016885        6       0.00041147      -0.00180600      -0.00535240
In      -0.00765797       4.70313988      15.38813333        7       0.00041147       0.00180600       0.00535240
In       2.83846402       4.38700624      13.54528745        8       0.00691255      -0.00008588       0.00029225
In       5.70005144       4.46073416       3.01301474        9       0.00691255       0.00008588      -0.00029225
In       2.88471083       1.43775944      11.29216583       10      -0.00691255      -0.00008588      -0.00029225
In       0.02312341       1.51148736       5.26613636       11      -0.00691255       0.00008588       0.00029225
In       2.88471083       1.51148736       3.01301474       12      -0.00691255       0.00008588      -0.00029225
In       0.02312341       1.43775944      13.54528745       13      -0.00691255      -0.00008588       0.00029225
In       2.83846402       4.46073416       5.26613636       14       0.00691255       0.00008588       0.00029225
In       5.70005144       4.38700624      11.29216583       15       0.00691255      -0.00008588      -0.00029225
O        4.91585322       5.16389703      13.21852047       16      -0.00179052      -0.00300866      -0.00055658
O        2.05426580       3.68384338       3.33978172       17      -0.00179052       0.00300866       0.00055658
O        0.80732162       2.21465023      11.61893281       18       0.00179052      -0.00300866       0.00055658
O        3.66890904       0.73459658       4.93936937       19       0.00179052       0.00300866      -0.00055658
O        0.80732162       0.73459658       3.33978172       20       0.00179052       0.00300866       0.00055658
O        3.66890904       2.21465023      13.21852047       21       0.00179052      -0.00300866      -0.00055658
O        4.91585322       3.68384338       4.93936937       22      -0.00179052       0.00300866      -0.00055658
O        2.05426580       5.16389703      11.61893281       23      -0.00179052      -0.00300866       0.00055658
O        4.02776211       3.09867870      10.33841616       24      -0.00174597       0.00121307       0.00078136
O        1.16617469       5.74906170       6.21988602       25      -0.00174597      -0.00121307      -0.00078136
O        1.69541273       0.14943190      14.49903712       26       0.00174597       0.00121307      -0.00078136
O        4.55700015       2.79981490       2.05926507       27       0.00174597      -0.00121307       0.00078136
O        1.69541273       2.79981490       6.21988602       28       0.00174597      -0.00121307      -0.00078136
O        4.55700015       0.14943190      10.33841616       29       0.00174597       0.00121307       0.00078136
O        4.02776211       5.74906170       2.05926507       30      -0.00174597      -0.00121307       0.00078136
O        1.16617469       3.09867870      14.49903712       31      -0.00174597       0.00121307      -0.00078136
O        3.70235632       3.89304457      15.70461932       32      -0.00043708      -0.00089992      -0.00407248
O        0.84076890       4.95469584       0.85368286       33      -0.00043708       0.00089992       0.00407248
O        2.02081853       0.94379776       9.13283396       34       0.00043708      -0.00089992       0.00407248
O        4.88240595       2.00544904       7.42546823       35       0.00043708       0.00089992      -0.00407248
O        2.02081853       2.00544904       0.85368286       36       0.00043708       0.00089992       0.00407248
O        4.88240595       0.94379776      15.70461932       37       0.00043708      -0.00089992      -0.00407248
O        3.70235632       4.95469584       7.42546823       38      -0.00043708       0.00089992      -0.00407248
O        0.84076890       3.89304457       9.13283396       39      -0.00043708      -0.00089992       0.00407248
