40
Lattice="5.912675028400206 9.771850956897695e-43 0.0 -8.884171010265352e-43 6.200054443784033 0.0 0.0 0.0 17.375689281865455" Properties=species:S:1:pos:R:3:spacegroup_kinds:I:1:forces:R:3 spacegroup="P 1" unit_cell=conventional occupancy="_JSON {\"0\": {\"In\": 1}, \"1\": {\"In\": 1}, \"2\": {\"In\": 1}, \"3\": {\"In\": 1}, \"4\": {\"In\": 1}, \"5\": {\"In\": 1}, \"6\": {\"In\": 1}, \"7\": {\"In\": 1}, \"8\": {\"In\": 1}, \"9\": {\"In\": 1}, \"10\": {\"In\": 1}, \"11\": {\"In\": 1}, \"12\": {\"In\": 1}, \"13\": {\"In\": 1}, \"14\": {\"In\": 1}, \"15\": {\"In\": 1}, \"16\": {\"O\": 1}, \"17\": {\"O\": 1}, \"18\": {\"O\": 1}, \"19\": {\"O\": 1}, \"20\": {\"O\": 1}, \"21\": {\"O\": 1}, \"22\": {\"O\": 1}, \"23\": {\"O\": 1}, \"24\": {\"O\": 1}, \"25\": {\"O\": 1}, \"26\": {\"O\": 1}, \"27\": {\"O\": 1}, \"28\": {\"O\": 1}, \"29\": {\"O\": 1}, \"30\": {\"O\": 1}, \"31\": {\"O\": 1}, \"32\": {\"O\": 1}, \"33\": {\"O\": 1}, \"34\": {\"O\": 1}, \"35\": {\"O\": 1}, \"36\": {\"O\": 1}, \"37\": {\"O\": 1}, \"38\": {\"O\": 1}, \"39\": {\"O\": 1}}" n_minim_iter=8 energy=-45145.72693410772 stress="0.06952699015772018 1.0110286735596629e-13 -1.8293497144927636e-13 1.0110286735596629e-13 0.06952894952356757 8.658441343664662e-14 -1.8293497144927636e-13 8.658441343664662e-14 0.06955800857255769" free_energy=-45145.72693410772 pbc="T T T"
In       2.72955003       5.15410287      10.04832455        0       0.00404689       0.00212032      -0.00393801
In      -0.22678748       4.14597879       7.32736473        1       0.00404689      -0.00212032       0.00393801
In       3.18312500       2.05407565      16.01520937        2      -0.00404689       0.00212032       0.00393801
In       6.13946251       1.04595157       1.36047991        3      -0.00404689      -0.00212032      -0.00393801
In       3.18312500       1.04595157       7.32736473        4      -0.00404689      -0.00212032       0.00393801
In       6.13946251       2.05407565      10.04832455        5      -0.00404689       0.00212032      -0.00393801
In       2.72955003       4.14597879       1.36047991        6       0.00404689      -0.00212032      -0.00393801
In      -0.22678748       5.15410287      16.01520937        7       0.00404689       0.00212032       0.00393801
In       2.74387539       4.85912116      14.11890936        8      -0.00056786       0.00717663       0.00599783
In       5.70021290       4.44096051       3.25677992        9      -0.00056786      -0.00717663      -0.00599783
In       3.16879964       1.75909393      11.94462456       10       0.00056786       0.00717663      -0.00599783
In       0.21246213       1.34093329       5.43106472       11       0.00056786      -0.00717663       0.00599783
In       3.16879964       1.34093329       3.25677992       12       0.00056786      -0.00717663      -0.00599783
In       0.21246213       1.75909393      14.11890936       13       0.00056786       0.00717663       0.00599783
In       2.74387539       4.44096051       5.43106472       14      -0.00056786      -0.00717663       0.00599783
In       5.70021290       4.85912116      11.94462456       15      -0.00056786       0.00717663      -0.00599783
O        4.92491466       5.64807689      13.90438663       16       0.00220650      -0.00086468      -0.00644111
O        1.96857714       3.65200478       3.47130265       17       0.00220650       0.00086468       0.00644111
O        0.98776037       2.54804967      12.15914729       18      -0.00220650      -0.00086468       0.00644111
O        3.94409788       0.55197756       5.21654199       19      -0.00220650       0.00086468      -0.00644111
O        0.98776037       0.55197756       3.47130265       20      -0.00220650       0.00086468       0.00644111
O        3.94409788       2.54804967      13.90438663       21      -0.00220650      -0.00086468      -0.00644111
O        4.92491466       3.65200478       5.21654199       22       0.00220650       0.00086468      -0.00644111
O        1.96857714       5.64807689      12.15914729       23       0.00220650      -0.00086468       0.00644111
O        4.13451793       3.55543316      10.98350519       24       0.00196958      -0.00252026       0.00143246
O        1.17818041       5.74464851       6.39218409       25       0.00196958       0.00252026      -0.00143246
O        1.77815710       0.45540593      15.08002873       26      -0.00196958      -0.00252026      -0.00143246
O        4.73449461       2.64462129       2.29566055       27      -0.00196958       0.00252026       0.00143246
O        1.77815710       2.64462129       6.39218409       28      -0.00196958       0.00252026      -0.00143246
O        4.73449461       0.45540593      10.98350519       29      -0.00196958      -0.00252026       0.00143246
O        4.13451793       5.74464851       2.29566055       30       0.00196958       0.00252026       0.00143246
O        1.17818041       3.55543316      15.08002873       31       0.00196958      -0.00252026      -0.00143246
O        3.74102201       4.16106205      16.55154822       32       0.00199567       0.00025928       0.00187182
O        0.78468450       5.13901961       0.82414107       33       0.00199567      -0.00025928      -0.00187182
O        2.17165301       1.06103483       9.51198571       34      -0.00199567       0.00025928      -0.00187182
O        5.12799053       2.03899239       7.86370357       35      -0.00199567      -0.00025928       0.00187182
O        2.17165301       2.03899239       0.82414107       36      -0.00199567      -0.00025928      -0.00187182
O        5.12799053       1.06103483      16.55154822       37      -0.00199567       0.00025928       0.00187182
O        3.74102201       5.13901961       7.86370357       38       0.00199567      -0.00025928       0.00187182
O        0.78468450       4.16106205       9.51198571       39       0.00199567       0.00025928      -0.00187182
