40
Lattice="5.672918725083452 4.637521955325123e-43 0.0 -4.726642818946855e-43 5.859435816728843 0.0 0.0 0.0 16.425265652836796" Properties=species:S:1:pos:R:3:spacegroup_kinds:I:1:forces:R:3 spacegroup="P 1" unit_cell=conventional occupancy="_JSON {\"0\": {\"In\": 1}, \"1\": {\"In\": 1}, \"2\": {\"In\": 1}, \"3\": {\"In\": 1}, \"4\": {\"In\": 1}, \"5\": {\"In\": 1}, \"6\": {\"In\": 1}, \"7\": {\"In\": 1}, \"8\": {\"In\": 1}, \"9\": {\"In\": 1}, \"10\": {\"In\": 1}, \"11\": {\"In\": 1}, \"12\": {\"In\": 1}, \"13\": {\"In\": 1}, \"14\": {\"In\": 1}, \"15\": {\"In\": 1}, \"16\": {\"O\": 1}, \"17\": {\"O\": 1}, \"18\": {\"O\": 1}, \"19\": {\"O\": 1}, \"20\": {\"O\": 1}, \"21\": {\"O\": 1}, \"22\": {\"O\": 1}, \"23\": {\"O\": 1}, \"24\": {\"O\": 1}, \"25\": {\"O\": 1}, \"26\": {\"O\": 1}, \"27\": {\"O\": 1}, \"28\": {\"O\": 1}, \"29\": {\"O\": 1}, \"30\": {\"O\": 1}, \"31\": {\"O\": 1}, \"32\": {\"O\": 1}, \"33\": {\"O\": 1}, \"34\": {\"O\": 1}, \"35\": {\"O\": 1}, \"36\": {\"O\": 1}, \"37\": {\"O\": 1}, \"38\": {\"O\": 1}, \"39\": {\"O\": 1}}" n_minim_iter=7 energy=-45150.1701177599 stress="0.018154462662961005 4.0312961765688884e-14 -2.3508482156525895e-14 4.0312961765688884e-14 0.018152452290550028 -1.0844107142239777e-13 -2.3508482156525895e-14 -1.0844107142239777e-13 0.01813502279218781" free_energy=-45150.1701177599 pbc="T T T"
In       2.83033826       4.68319441       9.37541870        0      -0.00019848      -0.00304225      -0.00155294
In      -0.00612110       4.10595932       7.04984696        1      -0.00019848       0.00304225       0.00155294
In       2.84258046       1.75347650      15.26247978        2       0.00019848      -0.00304225       0.00155294
In       5.67903983       1.17624141       1.16278587        3       0.00019848       0.00304225      -0.00155294
In       2.84258046       1.17624141       7.04984696        4       0.00019848       0.00304225       0.00155294
In       5.67903983       1.75347650       9.37541870        5       0.00019848      -0.00304225      -0.00155294
In       2.83033826       4.10595932       1.16278587        6      -0.00019848       0.00304225      -0.00155294
In      -0.00612110       4.68319441      15.26247978        7      -0.00019848      -0.00304225       0.00155294
In       2.81866825       4.37809943      13.44023366        8      -0.00191385      -0.00327912      -0.00161298
In       5.65512761       4.41105429       2.98503199        9      -0.00191385       0.00327912       0.00161298
In       2.85425047       1.44838152      11.19766482       10       0.00191385      -0.00327912       0.00161298
In       0.01779111       1.48133639       5.22760084       11       0.00191385       0.00327912      -0.00161298
In       2.85425047       1.48133639       2.98503199       12       0.00191385       0.00327912       0.00161298
In       0.01779111       1.44838152      13.44023366       13       0.00191385      -0.00327912      -0.00161298
In       2.81866825       4.41105429       5.22760084       14      -0.00191385       0.00327912      -0.00161298
In       5.65512761       4.37809943      11.19766482       15      -0.00191385      -0.00327912       0.00161298
O        4.87401278       5.15627376      13.11046629       16       0.00062637      -0.00637809      -0.00191030
O        2.03755342       3.63287997       3.31479936       17       0.00062637       0.00637809       0.00191030
O        0.79890594       2.22655585      11.52743219       18      -0.00062637      -0.00637809       0.00191030
O        3.63536531       0.70316206       4.89783346       19      -0.00062637       0.00637809      -0.00191030
O        0.79890594       0.70316206       3.31479936       20      -0.00062637       0.00637809       0.00191030
O        3.63536531       2.22655585      13.11046629       21      -0.00062637      -0.00637809      -0.00191030
O        4.87401278       3.63287997       4.89783346       22       0.00062637       0.00637809      -0.00191030
O        2.03755342       5.15627376      11.52743219       23       0.00062637      -0.00637809       0.00191030
O        4.00163341       3.09061384      10.25501183       24      -0.00081863       0.00014145       0.00225088
O        1.16517405       5.69853988       6.17025382       25      -0.00081863      -0.00014145      -0.00225088
O        1.67128531       0.16089593      14.38288665       26       0.00081863       0.00014145      -0.00225088
O        4.50774467       2.76882197       2.04237900       27       0.00081863      -0.00014145       0.00225088
O        1.67128531       2.76882197       6.17025382       28       0.00081863      -0.00014145      -0.00225088
O        4.50774467       0.16089593      10.25501183       29       0.00081863       0.00014145       0.00225088
O        4.00163341       5.69853988       2.04237900       30      -0.00081863      -0.00014145       0.00225088
O        1.16517405       3.09061384      14.38288665       31      -0.00081863       0.00014145      -0.00225088
O        3.66843484       3.87156343      15.57488445       32      -0.00191370      -0.00209409      -0.00462934
O        0.83197548       4.91759030       0.85038120       33      -0.00191370       0.00209409       0.00462934
O        2.00448388       0.94184552       9.06301403       34       0.00191370      -0.00209409       0.00462934
O        4.84094325       1.98787239       7.36225162       35       0.00191370       0.00209409      -0.00462934
O        2.00448388       1.98787239       0.85038120       36       0.00191370       0.00209409       0.00462934
O        4.84094325       0.94184552      15.57488445       37       0.00191370      -0.00209409      -0.00462934
O        3.66843484       4.91759030       7.36225162       38      -0.00191370       0.00209409      -0.00462934
O        0.83197548       3.87156343       9.06301403       39      -0.00191370      -0.00209409       0.00462934
