40
Lattice="5.8286206862658085 -3.5473703426694103e-43 0.0 1.1289650355112608e-42 6.025630357650425 0.0 0.0 0.0 17.396226483688704" Properties=species:S:1:pos:R:3:spacegroup_kinds:I:1:forces:R:3 spacegroup="P 1" unit_cell=conventional occupancy="_JSON {\"0\": {\"In\": 1}, \"1\": {\"In\": 1}, \"2\": {\"In\": 1}, \"3\": {\"In\": 1}, \"4\": {\"In\": 1}, \"5\": {\"In\": 1}, \"6\": {\"In\": 1}, \"7\": {\"In\": 1}, \"8\": {\"In\": 1}, \"9\": {\"In\": 1}, \"10\": {\"In\": 1}, \"11\": {\"In\": 1}, \"12\": {\"In\": 1}, \"13\": {\"In\": 1}, \"14\": {\"In\": 1}, \"15\": {\"In\": 1}, \"16\": {\"O\": 1}, \"17\": {\"O\": 1}, \"18\": {\"O\": 1}, \"19\": {\"O\": 1}, \"20\": {\"O\": 1}, \"21\": {\"O\": 1}, \"22\": {\"O\": 1}, \"23\": {\"O\": 1}, \"24\": {\"O\": 1}, \"25\": {\"O\": 1}, \"26\": {\"O\": 1}, \"27\": {\"O\": 1}, \"28\": {\"O\": 1}, \"29\": {\"O\": 1}, \"30\": {\"O\": 1}, \"31\": {\"O\": 1}, \"32\": {\"O\": 1}, \"33\": {\"O\": 1}, \"34\": {\"O\": 1}, \"35\": {\"O\": 1}, \"36\": {\"O\": 1}, \"37\": {\"O\": 1}, \"38\": {\"O\": 1}, \"39\": {\"O\": 1}}" n_minim_iter=17 energy=-45147.31104460289 stress="0.05798924200286421 -2.552767732652123e-13 3.149917783965489e-13 -2.552767732652123e-13 0.05792234895244814 -8.425677125477224e-14 3.149917783965489e-13 -8.425677125477224e-14 0.05797789106888817" free_energy=-45147.31104460289 pbc="T T T"
In       2.79433966       4.99890851      10.06392196        0       0.00130348       0.00306754       0.00037423
In      -0.11997068       4.03953703       7.33230452        1       0.00130348      -0.00306754      -0.00037423
In       3.03428102       1.98609333      16.03041776        2      -0.00130348       0.00306754      -0.00037423
In       5.94859137       1.02672185       1.36580872        3      -0.00130348      -0.00306754       0.00037423
In       3.03428102       1.02672185       7.33230452        4      -0.00130348      -0.00306754      -0.00037423
In       5.94859137       1.98609333      10.06392196        5      -0.00130348       0.00306754       0.00037423
In       2.79433966       4.03953703       1.36580872        6       0.00130348      -0.00306754       0.00037423
In      -0.11997068       4.99890851      16.03041776        7       0.00130348       0.00306754      -0.00037423
In       2.79588586       4.67829987      14.13769601        8      -0.00402829      -0.00263322       0.00129207
In       5.71019620       4.36014566       3.25853048        9      -0.00402829       0.00263322      -0.00129207
In       3.03273483       1.66548469      11.95664372       10       0.00402829      -0.00263322      -0.00129207
In       0.11842449       1.34733049       5.43958277       11       0.00402829       0.00263322       0.00129207
In       3.03273483       1.34733049       3.25853048       12       0.00402829       0.00263322      -0.00129207
In       0.11842449       1.66548469      14.13769601       13       0.00402829      -0.00263322       0.00129207
In       2.79588586       4.36014566       5.43958277       14      -0.00402829       0.00263322       0.00129207
In       5.71019620       4.67829987      11.95664372       15      -0.00402829      -0.00263322      -0.00129207
O        4.92931912       5.46357973      13.89849958       16      -0.00096906      -0.00307424      -0.00487504
O        2.01500878       3.57486581       3.49772690       17      -0.00096906       0.00307424       0.00487504
O        0.89930156       2.45076455      12.19584014       18       0.00096906      -0.00307424       0.00487504
O        3.81361191       0.56205063       5.20038634       19       0.00096906       0.00307424      -0.00487504
O        0.89930156       0.56205063       3.49772690       20       0.00096906       0.00307424       0.00487504
O        3.81361191       2.45076455      13.89849958       21       0.00096906      -0.00307424      -0.00487504
O        4.92931912       3.57486581       5.20038634       22      -0.00096906       0.00307424      -0.00487504
O        2.01500878       5.46357973      12.19584014       23      -0.00096906      -0.00307424       0.00487504
O        4.08822861       3.38065681      10.98752497       24      -0.00025971       0.00206428      -0.00206781
O        1.17391826       5.65778873       6.40870151       25      -0.00025971      -0.00206428       0.00206781
O        1.74039208       0.36784163      15.10681476       26       0.00025971       0.00206428       0.00206781
O        4.65470242       2.64497355       2.28941173       27       0.00025971      -0.00206428      -0.00206781
O        1.74039208       2.64497355       6.40870151       28       0.00025971      -0.00206428       0.00206781
O        4.65470242       0.36784163      10.98752497       29       0.00025971       0.00206428      -0.00206781
O        4.08822861       5.65778873       2.28941173       30      -0.00025971      -0.00206428      -0.00206781
O        1.17391826       3.38065681      15.10681476       31      -0.00025971       0.00206428       0.00206781
O        3.72390216       4.09150736      16.50437946       32       0.00092830      -0.00207337       0.00524432
O        0.80959182       4.94693818       0.89184702       33       0.00092830       0.00207337      -0.00524432
O        2.10471852       1.07869218       9.58996026       34      -0.00092830      -0.00207337      -0.00524432
O        5.01902887       1.93412300       7.80626622       35      -0.00092830       0.00207337       0.00524432
O        2.10471852       1.93412300       0.89184702       36      -0.00092830       0.00207337      -0.00524432
O        5.01902887       1.07869218      16.50437946       37      -0.00092830      -0.00207337       0.00524432
O        3.72390216       4.94693818       7.80626622       38       0.00092830       0.00207337       0.00524432
O        0.80959182       4.09150736       9.58996026       39       0.00092830      -0.00207337      -0.00524432
