1
Lattice="3.3627826815609385 0.14598231521342206 -2.5493541080201744e-10 0.37836974082975205 3.34461575356358 -6.861065835199126e-10 -1.8705762110482786 -1.7452990339564318 2.1873486508767352" Properties=species:S:1:pos:R:3:spacegroup_kinds:I:1:forces:R:3 spacegroup="P 1" unit_cell=conventional occupancy="_JSON {\"0\": {\"In\": 1}}" n_minim_iter=2 energy=-1970.1894964391859 stress="-0.23487529616961997 2.9348474618454456e-05 1.4392255537519195e-13 2.9348474618454456e-05 -0.2348793683382303 9.569840626192899e-14 1.4392255537519195e-13 9.569840626192899e-14 -0.23490675127380153" free_energy=-1970.1894964391859 pbc="T T T"
In       0.00000000       0.00000000       0.00000000        0      -0.00000000      -0.00000000       0.00000000
