1
Lattice="3.630896770582618 0.42479006957603826 -3.280354374077337e-10 0.6750650687788625 3.59279071402055 -7.550787776859968e-10 -2.15298091953508 -2.0087903913703613 2.1664007675159493" Properties=species:S:1:pos:R:3:spacegroup_kinds:I:1:forces:R:3 spacegroup="P 1" unit_cell=conventional occupancy="_JSON {\"0\": {\"In\": 1}}" n_minim_iter=1 energy=-1970.668118893132 stress="-0.09358379030882241 0.007517139298503445 -2.082678751321231e-12 0.007517139298503445 -0.09462681055492653 -2.078531823815528e-12 -2.082678751321231e-12 -2.078531823815528e-12 -0.10164050819492748" free_energy=-1970.668118893132 pbc="T T T"
In       0.00000000       0.00000000       0.00000000        0       0.00000000      -0.00000000       0.00000000
