1
Lattice="3.913510682506685 0.10172522575376865 -2.8322632537387765e-10 0.372334541761655 3.8970862028777002 -7.948249524999448e-10 -2.1429226119596616 -1.999405713803062 2.5954139081102743" Properties=species:S:1:pos:R:3:spacegroup_kinds:I:1:forces:R:3 spacegroup="P 1" unit_cell=conventional occupancy="_JSON {\"0\": {\"In\": 1}}" n_minim_iter=2 energy=-1970.7111062898678 stress="0.010211570026844675 0.003838662613675095 -1.5136023321436807e-12 0.003838662613675095 0.00967894682250899 -8.848963646487766e-13 -1.5136023321436807e-12 -8.848963646487766e-13 0.006097369064181528" free_energy=-1970.7111062898678 pbc="T T T"
In       0.00000000       0.00000000       0.00000000        0       0.00000000       0.00000000      -0.00000000
