1
Lattice="4.14343290932623 0.6804551364310869 -4.1300114123578274e-10 0.9655896003853401 4.086403331832377 -8.721087820291597e-10 -2.5545112546991815 -2.383429233671662 2.3291184608082087" Properties=species:S:1:pos:R:3:spacegroup_kinds:I:1:forces:R:3 spacegroup="P 1" unit_cell=conventional occupancy="_JSON {\"0\": {\"In\": 1}}" n_minim_iter=1 energy=-1970.6245806716263 stress="0.03411877464669605 0.007057435654871871 -1.1699580016032774e-12 0.007057435654871871 0.0331395393310658 -1.2805089740111926e-12 -1.1699580016032774e-12 -1.2805089740111926e-12 0.026554757831664305" free_energy=-1970.6245806716263 pbc="T T T"
In       0.00000000       0.00000000       0.00000000        0      -0.00000000       0.00000000      -0.00000000
