1
Lattice="3.426870870963624 0.21049067886569928 -2.719868365089536e-10 0.44715895159762553 3.404085657581848 -7.02478922931827e-10 -1.9370149111337887 -1.8072881677923847 2.1839031582813684" Properties=species:S:1:pos:R:3:spacegroup_kinds:I:1:forces:R:3 spacegroup="P 1" unit_cell=conventional occupancy="_JSON {\"0\": {\"In\": 1}}" n_minim_iter=1 energy=-1970.1832855471082 stress="-0.24450108216407077 0.010139365002460333 -2.973615651644872e-12 0.010139365002460333 -0.24590794221551449 -2.204032707519479e-12 -2.973615651644872e-12 -2.204032707519479e-12 -0.25536824853285445" free_energy=-1970.1832855471082 pbc="T T T"
In       0.00000000       0.00000000       0.00000000        0       0.00000000       0.00000000       0.00000000
1
Lattice="3.39855965063427 0.14753543513558712 -2.5764769320967133e-10 0.3823952529718769 3.3801994429389155 -6.934061375928529e-10 -1.8904774516544423 -1.7638674386005853 2.2106200640025713" Properties=species:S:1:pos:R:3:spacegroup_kinds:I:1:forces:R:3 spacegroup="P 1" unit_cell=conventional occupancy="_JSON {\"0\": {\"In\": 1}}" n_minim_iter=2 energy=-1970.1894964391859 stress="-0.23487529616961997 2.9348474618454456e-05 1.4392255537519195e-13 2.9348474618454456e-05 -0.2348793683382303 9.569840626192899e-14 1.4392255537519195e-13 9.569840626192899e-14 -0.23490675127380153" free_energy=-1970.1894964391859 pbc="T T T"
In       0.00000000       0.00000000       0.00000000        0      -0.00000000      -0.00000000       0.00000000
