40
Lattice="5.869945492398564 -1.452061626561883e-41 0.0 1.9239428209622894e-41 6.397474291404424 0.0 0.0 0.0 16.991672862553994" Properties=species:S:1:pos:R:3:spacegroup_kinds:I:1:forces:R:3 spacegroup="P 1" unit_cell=conventional occupancy="_JSON {\"0\": {\"In\": 1}, \"1\": {\"In\": 1}, \"2\": {\"In\": 1}, \"3\": {\"In\": 1}, \"4\": {\"In\": 1}, \"5\": {\"In\": 1}, \"6\": {\"In\": 1}, \"7\": {\"In\": 1}, \"8\": {\"In\": 1}, \"9\": {\"In\": 1}, \"10\": {\"In\": 1}, \"11\": {\"In\": 1}, \"12\": {\"In\": 1}, \"13\": {\"In\": 1}, \"14\": {\"In\": 1}, \"15\": {\"In\": 1}, \"16\": {\"O\": 1}, \"17\": {\"O\": 1}, \"18\": {\"O\": 1}, \"19\": {\"O\": 1}, \"20\": {\"O\": 1}, \"21\": {\"O\": 1}, \"22\": {\"O\": 1}, \"23\": {\"O\": 1}, \"24\": {\"O\": 1}, \"25\": {\"O\": 1}, \"26\": {\"O\": 1}, \"27\": {\"O\": 1}, \"28\": {\"O\": 1}, \"29\": {\"O\": 1}, \"30\": {\"O\": 1}, \"31\": {\"O\": 1}, \"32\": {\"O\": 1}, \"33\": {\"O\": 1}, \"34\": {\"O\": 1}, \"35\": {\"O\": 1}, \"36\": {\"O\": 1}, \"37\": {\"O\": 1}, \"38\": {\"O\": 1}, \"39\": {\"O\": 1}}" n_minim_iter=11 energy=-45146.254285743475 stress="0.05402027626473589 -1.3807355840306358e-12 -1.453623151152891e-12 -1.3807355840306358e-12 0.05406119832594467 -1.0909407115721178e-12 -1.453623151152891e-12 -1.0909407115721178e-12 0.054064853066757436" free_energy=-45146.254285743475 pbc="T T T"
In       2.68276404       5.24753574       9.74092230        0      -0.00095593      -0.00085023      -0.00130933
In      -0.25220870       4.34867569       7.25075056        1      -0.00095593       0.00085023       0.00130933
In       3.18718145       2.04879860      15.74658699        2       0.00095593      -0.00085023       0.00130933
In       6.12215420       1.14993855       1.24508587        3       0.00095593       0.00085023      -0.00130933
In       3.18718145       1.14993855       7.25075056        4       0.00095593       0.00085023       0.00130933
In       6.12215420       2.04879860       9.74092230        5       0.00095593      -0.00085023      -0.00130933
In       2.68276404       4.34867569       1.24508587        6      -0.00095593       0.00085023      -0.00130933
In      -0.25220870       5.24753574      15.74658699        7      -0.00095593      -0.00085023       0.00130933
In       2.69993981       5.12681148      13.87694999        8      -0.00128685       0.00287080       0.00757543
In       5.63491256       4.46939996       3.11472288        9      -0.00128685      -0.00287080      -0.00757543
In       3.17000568       1.92807433      11.61055931       10       0.00128685       0.00287080      -0.00757544
In       0.23503293       1.27066281       5.38111355       11       0.00128685      -0.00287080       0.00757544
In       3.17000568       1.27066281       3.11472288       12       0.00128685      -0.00287080      -0.00757543
In       0.23503293       1.92807433      13.87694999       13       0.00128685       0.00287080       0.00757543
In       2.69993981       4.46939996       5.38111355       14      -0.00128685      -0.00287080       0.00757543
In       5.63491256       5.12681148      11.61055931       15      -0.00128685       0.00287080      -0.00757543
O        4.85056649       5.65447665      13.64389821       16       0.00103787       0.00404606       0.00032415
O        1.91559375       3.94173479       3.34777465       17       0.00103787      -0.00404606      -0.00032415
O        1.01937900       2.45573950      11.84361108       18      -0.00103787       0.00404606      -0.00032415
O        3.95435175       0.74299765       5.14806178       19      -0.00103787      -0.00404606       0.00032415
O        1.01937900       0.74299765       3.34777465       20      -0.00103787      -0.00404606      -0.00032415
O        3.95435175       2.45573950      13.64389821       21      -0.00103787       0.00404606       0.00032415
O        4.85056649       3.94173479       5.14806178       22       0.00103787      -0.00404605       0.00032415
O        1.91559375       5.65447665      11.84361108       23       0.00103787       0.00404606      -0.00032415
O        4.09975771       3.81773136      10.74478591       24      -0.00773243       0.00443296      -0.00217777
O        1.16478496       5.77848008       6.24688695       25      -0.00773243      -0.00443296       0.00217777
O        1.77018779       0.61899421      14.74272338       26       0.00773243       0.00443296       0.00217777
O        4.70516053       2.57974294       2.24894948       27       0.00773243      -0.00443296      -0.00217777
O        1.77018779       2.57974294       6.24688695       28       0.00773243      -0.00443296       0.00217777
O        4.70516053       0.61899421      10.74478591       29       0.00773243       0.00443296      -0.00217777
O        4.09975771       5.77848008       2.24894948       30      -0.00773243      -0.00443296      -0.00217777
O        1.16478496       3.81773136      14.74272338       31      -0.00773243       0.00443296       0.00217777
O        3.83864861       4.08249464      16.37541492       32      -0.00076750      -0.00012581      -0.00008256
O        0.90367587       5.51371680       0.61625794       33      -0.00076750       0.00012581       0.00008256
O        2.03129688       0.88375750       9.11209437       34       0.00076750      -0.00012581       0.00008256
O        4.96626962       2.31497965       7.87957849       35       0.00076750       0.00012581      -0.00008256
O        2.03129688       2.31497965       0.61625794       36       0.00076750       0.00012581       0.00008256
O        4.96626962       0.88375750      16.37541492       37       0.00076750      -0.00012581      -0.00008256
O        3.83864861       5.51371680       7.87957849       38      -0.00076750       0.00012581      -0.00008256
O        0.90367587       4.08249464       9.11209437       39      -0.00076750      -0.00012581       0.00008256
