40
Lattice="5.4484620803678805 7.051920173763093e-42 5.297492716582107e-81 -6.821593475285884e-42 5.336653606509359 3.89852279483619e-39 -1.5310504692680228e-82 1.0900352126754972e-38 15.227150698412283" Properties=species:S:1:pos:R:3:spacegroup_kinds:I:1:forces:R:3 spacegroup="P 1" unit_cell=conventional occupancy="_JSON {\"0\": {\"In\": 1}, \"1\": {\"In\": 1}, \"2\": {\"In\": 1}, \"3\": {\"In\": 1}, \"4\": {\"In\": 1}, \"5\": {\"In\": 1}, \"6\": {\"In\": 1}, \"7\": {\"In\": 1}, \"8\": {\"In\": 1}, \"9\": {\"In\": 1}, \"10\": {\"In\": 1}, \"11\": {\"In\": 1}, \"12\": {\"In\": 1}, \"13\": {\"In\": 1}, \"14\": {\"In\": 1}, \"15\": {\"In\": 1}, \"16\": {\"O\": 1}, \"17\": {\"O\": 1}, \"18\": {\"O\": 1}, \"19\": {\"O\": 1}, \"20\": {\"O\": 1}, \"21\": {\"O\": 1}, \"22\": {\"O\": 1}, \"23\": {\"O\": 1}, \"24\": {\"O\": 1}, \"25\": {\"O\": 1}, \"26\": {\"O\": 1}, \"27\": {\"O\": 1}, \"28\": {\"O\": 1}, \"29\": {\"O\": 1}, \"30\": {\"O\": 1}, \"31\": {\"O\": 1}, \"32\": {\"O\": 1}, \"33\": {\"O\": 1}, \"34\": {\"O\": 1}, \"35\": {\"O\": 1}, \"36\": {\"O\": 1}, \"37\": {\"O\": 1}, \"38\": {\"O\": 1}, \"39\": {\"O\": 1}}" n_minim_iter=17 energy=-45152.654950178134 stress="0.09014474162434569 -7.710646716254755e-12 -7.212636230757548e-12 -7.710646716254755e-12 0.09035078668552925 -1.2899879272207835e-12 -7.212636230757548e-12 -1.2899879272207835e-12 0.0902464663277703" free_energy=-45152.654950178134 pbc="T T T"
In       2.89583135       4.06758416       8.57058706        0      -0.00737571       0.00101263       0.00308189
In       0.17160031       3.93739625       6.65656364        1      -0.00737571      -0.00101263      -0.00308189
In       2.55263073       1.39925736      14.27013899        2       0.00737571       0.00101263      -0.00308189
In       5.27686177       1.26906944       0.95701171        3       0.00737571      -0.00101263       0.00308189
In       2.55263073       1.26906944       6.65656364        4       0.00737571      -0.00101263      -0.00308189
In       5.27686177       1.39925736       8.57058706        5       0.00737571       0.00101263       0.00308189
In       2.89583135       3.93739625       0.95701171        6      -0.00737571      -0.00101263       0.00308189
In       0.17160031       4.06758416      14.27013899        7      -0.00737571       0.00101263      -0.00308189
In       2.86216097       3.93197144      12.39065617        8      -0.00391452      -0.00276003      -0.00020425
In       5.58639201       4.07300897       2.83649453        9      -0.00391452       0.00276003       0.00020425
In       2.58630111       1.26364464      10.45006987       10       0.00391452      -0.00276003       0.00020425
In      -0.13792993       1.40468216       4.77708082       11       0.00391452       0.00276003      -0.00020425
In       2.58630111       1.40468216       2.83649453       12       0.00391452       0.00276003       0.00020425
In      -0.13792993       1.26364464      12.39065617       13       0.00391452      -0.00276003      -0.00020425
In       2.86216097       4.07300897       4.77708082       14      -0.00391452       0.00276003      -0.00020425
In       5.58639201       3.93197144      10.45006987       15      -0.00391452      -0.00276003       0.00020425
O        4.84354514       4.51171623      12.25953923       16      -0.00017050      -0.00566941      -0.00393644
O        2.11931410       3.49326418       2.96761147       17      -0.00017050       0.00566941       0.00393644
O        0.60491694       1.84338942      10.58118681       18       0.00017050      -0.00566941       0.00393644
O        3.32914798       0.82493738       4.64596388       19       0.00017050       0.00566941      -0.00393644
O        0.60491694       0.82493738       2.96761147       20       0.00017050       0.00566941       0.00393644
O        3.32914798       1.84338942      12.25953923       21       0.00017050      -0.00566941      -0.00393644
O        4.84354514       3.49326418       4.64596388       22      -0.00017050       0.00566941      -0.00393644
O        2.11931410       4.51171623      10.58118681       23      -0.00017050      -0.00566941       0.00393644
O        3.93777953       2.67709863       9.62885086       24       0.00303852      -0.00044096       0.00051375
O        1.21354849       5.32788178       5.59829984       25       0.00303852       0.00044096      -0.00051375
O        1.51068255       0.00877183      13.21187519       26      -0.00303852      -0.00044096      -0.00051375
O        4.23491359       2.65955497       2.01527551       27      -0.00303852       0.00044096       0.00051375
O        1.51068255       2.65955497       5.59829984       28      -0.00303852       0.00044096      -0.00051375
O        4.23491359       0.00877183       9.62885086       29      -0.00303852      -0.00044096       0.00051375
O        3.93777953       5.32788178       2.01527551       30       0.00303852       0.00044096       0.00051375
O        1.21354849       2.67709863      13.21187519       31       0.00303852      -0.00044096      -0.00051375
O        3.62645580       3.34208675      14.30985626       32      -0.00092071       0.00050196       0.00415544
O        0.90222476       4.66289366       0.91729444       33      -0.00092071      -0.00050196      -0.00415544
O        1.82200628       0.67375995       8.53086979       34       0.00092071       0.00050196      -0.00415544
O        4.54623732       1.99456686       6.69628091       35       0.00092071      -0.00050196       0.00415544
O        1.82200628       1.99456686       0.91729444       36       0.00092071      -0.00050196      -0.00415544
O        4.54623732       0.67375995      14.30985626       37       0.00092071       0.00050196       0.00415544
O        3.62645580       4.66289366       6.69628091       38      -0.00092071      -0.00050196       0.00415544
O        0.90222476       3.34208675       8.53086979       39      -0.00092071       0.00050196      -0.00415544
