40
Lattice="5.673747850810076 7.258689467033636e-42 0.0 -1.826107967772983e-42 5.849015183393499 0.0 0.0 0.0 16.480834045733538" Properties=species:S:1:pos:R:3:spacegroup_kinds:I:1:forces:R:3 spacegroup="P 1" unit_cell=conventional occupancy="_JSON {\"0\": {\"In\": 1}, \"1\": {\"In\": 1}, \"2\": {\"In\": 1}, \"3\": {\"In\": 1}, \"4\": {\"In\": 1}, \"5\": {\"In\": 1}, \"6\": {\"In\": 1}, \"7\": {\"In\": 1}, \"8\": {\"In\": 1}, \"9\": {\"In\": 1}, \"10\": {\"In\": 1}, \"11\": {\"In\": 1}, \"12\": {\"In\": 1}, \"13\": {\"In\": 1}, \"14\": {\"In\": 1}, \"15\": {\"In\": 1}, \"16\": {\"O\": 1}, \"17\": {\"O\": 1}, \"18\": {\"O\": 1}, \"19\": {\"O\": 1}, \"20\": {\"O\": 1}, \"21\": {\"O\": 1}, \"22\": {\"O\": 1}, \"23\": {\"O\": 1}, \"24\": {\"O\": 1}, \"25\": {\"O\": 1}, \"26\": {\"O\": 1}, \"27\": {\"O\": 1}, \"28\": {\"O\": 1}, \"29\": {\"O\": 1}, \"30\": {\"O\": 1}, \"31\": {\"O\": 1}, \"32\": {\"O\": 1}, \"33\": {\"O\": 1}, \"34\": {\"O\": 1}, \"35\": {\"O\": 1}, \"36\": {\"O\": 1}, \"37\": {\"O\": 1}, \"38\": {\"O\": 1}, \"39\": {\"O\": 1}}" n_minim_iter=19 energy=-45150.211813547445 stress="0.014757796639320942 -2.8973901124906107e-12 4.021134241262376e-13 -2.8973901124906107e-12 0.014834009940067476 5.074171194850072e-14 4.021134241262376e-13 5.074171194850072e-14 0.014954316212689575" free_energy=-45150.211813547445 pbc="T T T"
In       2.83706462       4.70234657       9.41343859        0       0.00106290       0.00408666      -0.00027284
In       0.00019070       4.07117620       7.06739545        1       0.00106290      -0.00408666       0.00027284
In       2.83668323       1.77783898      15.30781248        2      -0.00106290       0.00408666       0.00027284
In       5.67355715       1.14666861       1.17302157        3      -0.00106290      -0.00408666      -0.00027284
In       2.83668323       1.14666861       7.06739545        4      -0.00106290      -0.00408666       0.00027284
In       5.67355715       1.77783898       9.41343859        5      -0.00106290       0.00408666      -0.00027284
In       2.83706462       4.07117620       1.17302157        6       0.00106290      -0.00408666      -0.00027284
In       0.00019070       4.70234657      15.30781248        7       0.00106290       0.00408666       0.00027284
In       2.82337097       4.39711047      13.49567504        8       0.00007315       0.00163560      -0.00720845
In       5.66024489       4.37641230       2.98515900        9       0.00007315      -0.00163560       0.00720845
In       2.85037688       1.47260288      11.22557603       10      -0.00007315       0.00163560       0.00720845
In       0.01350296       1.45190471       5.25525802       11      -0.00007315      -0.00163560      -0.00720845
In       2.85037688       1.45190471       2.98515900       12      -0.00007315      -0.00163560       0.00720845
In       0.01350296       1.47260288      13.49567504       13      -0.00007315       0.00163560      -0.00720845
In       2.82337097       4.37641230       5.25525802       14       0.00007315      -0.00163560      -0.00720845
In       5.66024489       4.39711047      11.22557603       15       0.00007315       0.00163560       0.00720845
O        4.88043891       5.17776537      13.14142827       16      -0.00114215      -0.00599677      -0.00029931
O        2.04356498       3.59575741       3.33940578       17      -0.00114215       0.00599677       0.00029931
O        0.79330894       2.25325778      11.57982280       18       0.00114215      -0.00599677       0.00029931
O        3.63018287       0.67124981       4.90101124       19       0.00114215       0.00599677      -0.00029931
O        0.79330894       0.67124981       3.33940578       20       0.00114215       0.00599677       0.00029931
O        3.63018287       2.25325778      13.14142827       21       0.00114215      -0.00599677      -0.00029931
O        4.88043891       3.59575741       4.90101124       22      -0.00114215       0.00599677      -0.00029931
O        2.04356498       5.17776537      11.57982280       23      -0.00114215      -0.00599677       0.00029931
O        4.00329277       3.10323651      10.27376618       24       0.00610303      -0.00518533      -0.00586866
O        1.16641885       5.67028627       6.20706787       25       0.00610303       0.00518533       0.00586866
O        1.67045508       0.17872892      14.44748489       26      -0.00610303      -0.00518533       0.00586866
O        4.50732901       2.74577868       2.03334915       27      -0.00610303       0.00518533      -0.00586866
O        1.67045508       2.74577868       6.20706787       28      -0.00610303       0.00518533       0.00586866
O        4.50732901       0.17872892      10.27376618       29      -0.00610303      -0.00518533      -0.00586866
O        4.00329277       5.67028627       2.03334915       30       0.00610303       0.00518533      -0.00586866
O        1.16641885       3.10323651      14.44748489       31       0.00610303      -0.00518533       0.00586866
O        3.67648959       3.88854367      15.62338478       32       0.00155610       0.00531549      -0.00365411
O        0.83961566       4.88497911       0.85744926       33       0.00155611      -0.00531549       0.00365411
O        1.99725826       0.96403608       9.09786628       34      -0.00155610       0.00531549       0.00365411
O        4.83413219       1.96047151       7.38296776       35      -0.00155611      -0.00531549      -0.00365411
O        1.99725826       1.96047151       0.85744926       36      -0.00155611      -0.00531549       0.00365411
O        4.83413219       0.96403608      15.62338478       37      -0.00155611       0.00531549      -0.00365411
O        3.67648959       4.88497911       7.38296776       38       0.00155611      -0.00531549      -0.00365411
O        0.83961566       3.88854367       9.09786628       39       0.00155611       0.00531549       0.00365411
