40
Lattice="5.257841032450914 6.896709980522093e-42 -1.3051402407593896e-75 -6.919903729222657e-42 5.275523238018292 -1.0166876100496021e-33 -6.6373618917868814e-77 2.8047449102492687e-33 14.553631621429568" Properties=species:S:1:pos:R:3:spacegroup_kinds:I:1:forces:R:3 spacegroup="P 1" unit_cell=conventional occupancy="_JSON {\"0\": {\"In\": 1}, \"1\": {\"In\": 1}, \"2\": {\"In\": 1}, \"3\": {\"In\": 1}, \"4\": {\"In\": 1}, \"5\": {\"In\": 1}, \"6\": {\"In\": 1}, \"7\": {\"In\": 1}, \"8\": {\"In\": 1}, \"9\": {\"In\": 1}, \"10\": {\"In\": 1}, \"11\": {\"In\": 1}, \"12\": {\"In\": 1}, \"13\": {\"In\": 1}, \"14\": {\"In\": 1}, \"15\": {\"In\": 1}, \"16\": {\"O\": 1}, \"17\": {\"O\": 1}, \"18\": {\"O\": 1}, \"19\": {\"O\": 1}, \"20\": {\"O\": 1}, \"21\": {\"O\": 1}, \"22\": {\"O\": 1}, \"23\": {\"O\": 1}, \"24\": {\"O\": 1}, \"25\": {\"O\": 1}, \"26\": {\"O\": 1}, \"27\": {\"O\": 1}, \"28\": {\"O\": 1}, \"29\": {\"O\": 1}, \"30\": {\"O\": 1}, \"31\": {\"O\": 1}, \"32\": {\"O\": 1}, \"33\": {\"O\": 1}, \"34\": {\"O\": 1}, \"35\": {\"O\": 1}, \"36\": {\"O\": 1}, \"37\": {\"O\": 1}, \"38\": {\"O\": 1}, \"39\": {\"O\": 1}}" n_minim_iter=1 energy=-45155.213590993706 stress="-0.017160622186106138 -1.2145739106703805e-12 2.0059899880178506e-12 -1.2145739106703805e-12 0.012627667404518277 7.069797962209261e-12 2.0059899880178506e-12 7.069797962209261e-12 -0.011277092531475888" free_energy=-45155.213590993706 pbc="T T T"
In       2.74755684       4.04893175       8.19373838        0      -0.35760908       0.59935155       0.07478751
In       0.11863632       3.86435311       6.35989324        1      -0.35760908      -0.59935155      -0.07478751
In       2.51028420       1.41117013      13.63670905        2       0.35760908       0.59935155      -0.07478751
In       5.13920471       1.22659149       0.91692257        3       0.35760908      -0.59935155       0.07478751
In       2.51028420       1.22659149       6.35989324        4       0.35760908      -0.59935155      -0.07478751
In       5.13920471       1.41117013       8.19373838        5       0.35760908       0.59935155       0.07478751
In       2.74755684       3.86435311       0.91692257        6      -0.35760908      -0.59935155       0.07478751
In       0.11863632       4.04893175      13.63670905        7      -0.35760908       0.59935155      -0.07478751
In       2.66754578       3.84128021      11.80554898        8      -0.08188117      -0.27987857       0.24608507
In       5.29646630       4.07200465       2.74808264        9      -0.08188117       0.27987857      -0.24608507
In       2.59029525       1.20351859      10.02489845       10       0.08188117      -0.27987857      -0.24608507
In      -0.03862527       1.43424303       4.52873317       11       0.08188117       0.27987857       0.24608507
In       2.59029525       1.43424303       2.74808264       12       0.08188117       0.27987857      -0.24608507
In      -0.03862527       1.20351859      11.80554898       13       0.08188117      -0.27987857       0.24608507
In       2.66754578       4.07200465       4.52873317       14      -0.08188117       0.27987857       0.24608507
In       5.29646630       3.84128021      10.02489845       15      -0.08188117      -0.27987857      -0.24608507
O        4.55755576       4.51521873      11.74557631       16      -0.11465697       0.16293630      -0.30252070
O        1.92863524       3.39806613       2.80805531       17      -0.11465697      -0.16293630       0.30252070
O        0.70028527       1.87745711      10.08487112       18       0.11465697       0.16293630       0.30252070
O        3.32920579       0.76030451       4.46876050       19       0.11465697      -0.16293630      -0.30252070
O        0.70028527       0.76030451       2.80805531       20       0.11465697      -0.16293630       0.30252070
O        3.32920579       1.87745711      11.74557631       21       0.11465697       0.16293630      -0.30252070
O        4.55755576       3.39806613       4.46876050       22      -0.11465697      -0.16293630      -0.30252070
O        1.92863524       4.51521873      10.08487112       23      -0.11465697       0.16293630       0.30252070
O        3.76757251       2.66148489       9.21748724       24      -0.07007183      -0.09752690       0.04316435
O        1.13865199       5.25179997       5.33614438       25      -0.07007183       0.09752690      -0.04316435
O        1.49026852       0.02372327      12.61296019       26       0.07007183      -0.09752690      -0.04316435
O        4.11918904       2.61403835       1.94067143       27       0.07007183       0.09752690       0.04316435
O        1.49026852       2.61403835       5.33614438       28       0.07007183       0.09752690      -0.04316435
O        4.11918904       0.02372327       9.21748724       29       0.07007183      -0.09752690       0.04316435
O        3.76757251       5.25179997       1.94067143       30      -0.07007183       0.09752690       0.04316435
O        1.13865199       2.66148489      12.61296019       31      -0.07007183      -0.09752690      -0.04316435
O        3.46268487       3.35416571      13.63041263       32       0.13220616       0.00294362       0.11546528
O        0.83376435       4.55911915       0.92321899       33       0.13220616      -0.00294362      -0.11546528
O        1.79515617       0.71640409       8.20003480       34      -0.13220616       0.00294362      -0.11546528
O        4.42407668       1.92135753       6.35359682       35      -0.13220616      -0.00294362       0.11546528
O        1.79515617       1.92135753       0.92321899       36      -0.13220616      -0.00294362      -0.11546528
O        4.42407668       0.71640409      13.63041263       37      -0.13220616       0.00294362       0.11546528
O        3.46268487       4.55911915       6.35359682       38       0.13220616      -0.00294362       0.11546528
O        0.83376435       3.35416571       8.20003480       39       0.13220616       0.00294362      -0.11546528
40
Lattice="5.290100909804891 7.014032774065828e-42 -7.797174909228399e-76 -6.784826258881678e-42 5.227174300133241 -6.049837716822197e-34 -6.705192059350157e-77 4.001553983289328e-33 14.598674702114183" Properties=species:S:1:pos:R:3:spacegroup_kinds:I:1:forces:R:3 spacegroup="P 1" unit_cell=conventional occupancy="_JSON {\"0\": {\"In\": 1}, \"1\": {\"In\": 1}, \"2\": {\"In\": 1}, \"3\": {\"In\": 1}, \"4\": {\"In\": 1}, \"5\": {\"In\": 1}, \"6\": {\"In\": 1}, \"7\": {\"In\": 1}, \"8\": {\"In\": 1}, \"9\": {\"In\": 1}, \"10\": {\"In\": 1}, \"11\": {\"In\": 1}, \"12\": {\"In\": 1}, \"13\": {\"In\": 1}, \"14\": {\"In\": 1}, \"15\": {\"In\": 1}, \"16\": {\"O\": 1}, \"17\": {\"O\": 1}, \"18\": {\"O\": 1}, \"19\": {\"O\": 1}, \"20\": {\"O\": 1}, \"21\": {\"O\": 1}, \"22\": {\"O\": 1}, \"23\": {\"O\": 1}, \"24\": {\"O\": 1}, \"25\": {\"O\": 1}, \"26\": {\"O\": 1}, \"27\": {\"O\": 1}, \"28\": {\"O\": 1}, \"29\": {\"O\": 1}, \"30\": {\"O\": 1}, \"31\": {\"O\": 1}, \"32\": {\"O\": 1}, \"33\": {\"O\": 1}, \"34\": {\"O\": 1}, \"35\": {\"O\": 1}, \"36\": {\"O\": 1}, \"37\": {\"O\": 1}, \"38\": {\"O\": 1}, \"39\": {\"O\": 1}}" n_minim_iter=2 energy=-45155.28076411293 stress="0.0017629168814230847 9.185890373856207e-13 3.2088548709311183e-12 9.185890373856207e-13 0.0035281851859399723 2.2503323972980952e-12 3.2088548709311183e-12 2.2503323972980952e-12 0.003887272073374112" free_energy=-45155.28076411293 pbc="T T T"
In       2.76395617       4.01258100       8.21919337        0      -0.42428631       0.75008760       0.01112446
In       0.11890572       3.82818045       6.37948133        1      -0.42428631      -0.75008760      -0.01112446
In       2.52614474       1.39899385      13.67881868        2       0.42428631       0.75008760      -0.01112446
In       5.17119519       1.21459330       0.91985602        3       0.42428631      -0.75008760       0.01112446
In       2.52614474       1.21459330       6.37948133        4       0.42428631      -0.75008760      -0.01112446
In       5.17119519       1.39899385       8.21919337        5       0.42428631       0.75008760       0.01112446
In       2.76395617       3.82818045       0.91985602        6      -0.42428631      -0.75008760       0.01112446
In       0.11890572       4.01258100      13.67881868        7      -0.42428631       0.75008760      -0.01112446
In       2.68380773       3.80572239      11.84240138        8       0.01364948      -0.27844818       0.21988711
In       5.32885818       4.03503906       2.75627332        9       0.01364948       0.27844818      -0.21988711
In       2.60629318       1.19213524      10.05561067       10      -0.01364948      -0.27844818      -0.21988711
In      -0.03875727       1.42145191       4.54306403       11      -0.01364948       0.27844818       0.21988711
In       2.60629318       1.42145191       2.75627332       12      -0.01364948       0.27844818      -0.21988711
In      -0.03875727       1.19213524      11.84240138       13      -0.01364948      -0.27844818       0.21988711
In       2.68380773       4.03503906       4.54306403       14       0.01364948       0.27844818       0.21988711
In       5.32885818       3.80572239      10.05561067       15       0.01364948      -0.27844818      -0.21988711
O        4.58537198       4.47404354      11.78154184       16      -0.17918111       0.08839712      -0.40932264
O        1.94032152       3.36671791       2.81713287       17      -0.17918111      -0.08839712       0.40932264
O        0.70472893       1.86045639      10.11647022       18       0.17918111       0.08839712       0.40932264
O        3.34977939       0.75313076       4.48220448       19       0.17918111      -0.08839712      -0.40932264
O        0.70472893       0.75313076       2.81713287       20       0.17918111      -0.08839712       0.40932264
O        3.34977939       1.86045639      11.78154184       21       0.17918111       0.08839712      -0.40932264
O        4.58537198       3.36671791       4.48220448       22      -0.17918111      -0.08839712      -0.40932264
O        1.94032152       4.47404354      10.11647022       23      -0.17918111       0.08839712       0.40932264
O        3.79059889       2.63696986       9.24607028       24      -0.09493836      -0.13546071       0.02081139
O        1.14554844       5.20379159       5.35260442       25      -0.09493836       0.13546071      -0.02081139
O        1.49950202       0.02338271      12.65194177       26       0.09493836      -0.13546071      -0.02081140
O        4.14455247       2.59020444       1.94673293       27       0.09493836       0.13546071       0.02081139
O        1.49950202       2.59020444       5.35260442       28       0.09493836       0.13546071      -0.02081139
O        4.14455247       0.02338271       9.24607028       29       0.09493836      -0.13546071       0.02081140
O        3.79059889       5.20379159       1.94673293       30      -0.09493836       0.13546071       0.02081139
O        1.14554844       2.63696986      12.65194177       31      -0.09493836      -0.13546071      -0.02081140
O        3.48409994       3.32342928      13.67274597       32       0.18141124       0.03230920       0.19087615
O        0.83904948       4.51733217       0.92592873       33       0.18141124      -0.03230920      -0.19087615
O        1.80600097       0.70984213       8.22526608       34      -0.18141124       0.03230920      -0.19087615
O        4.45105143       1.90374502       6.37340862       35      -0.18141124      -0.03230920       0.19087615
O        1.80600097       1.90374502       0.92592873       36      -0.18141124      -0.03230920      -0.19087615
O        4.45105143       0.70984213      13.67274597       37      -0.18141124       0.03230920       0.19087615
O        3.48409994       4.51733217       6.37340862       38       0.18141124      -0.03230920       0.19087615
O        0.83904948       3.32342928       8.22526608       39       0.18141124       0.03230920      -0.19087615
40
Lattice="5.334723704118046 6.980047177968738e-42 2.424779777889095e-76 -6.822824738810749e-42 5.212030603386872 1.6770863860845613e-34 -6.415413463092612e-77 6.112579295481891e-33 14.518624772002855" Properties=species:S:1:pos:R:3:spacegroup_kinds:I:1:forces:R:3 spacegroup="P 1" unit_cell=conventional occupancy="_JSON {\"0\": {\"In\": 1}, \"1\": {\"In\": 1}, \"2\": {\"In\": 1}, \"3\": {\"In\": 1}, \"4\": {\"In\": 1}, \"5\": {\"In\": 1}, \"6\": {\"In\": 1}, \"7\": {\"In\": 1}, \"8\": {\"In\": 1}, \"9\": {\"In\": 1}, \"10\": {\"In\": 1}, \"11\": {\"In\": 1}, \"12\": {\"In\": 1}, \"13\": {\"In\": 1}, \"14\": {\"In\": 1}, \"15\": {\"In\": 1}, \"16\": {\"O\": 1}, \"17\": {\"O\": 1}, \"18\": {\"O\": 1}, \"19\": {\"O\": 1}, \"20\": {\"O\": 1}, \"21\": {\"O\": 1}, \"22\": {\"O\": 1}, \"23\": {\"O\": 1}, \"24\": {\"O\": 1}, \"25\": {\"O\": 1}, \"26\": {\"O\": 1}, \"27\": {\"O\": 1}, \"28\": {\"O\": 1}, \"29\": {\"O\": 1}, \"30\": {\"O\": 1}, \"31\": {\"O\": 1}, \"32\": {\"O\": 1}, \"33\": {\"O\": 1}, \"34\": {\"O\": 1}, \"35\": {\"O\": 1}, \"36\": {\"O\": 1}, \"37\": {\"O\": 1}, \"38\": {\"O\": 1}, \"39\": {\"O\": 1}}" n_minim_iter=3 energy=-45155.37734208339 stress="0.03604543096562851 2.864117531681148e-12 1.351412947923872e-12 2.864117531681148e-12 0.01822309946459753 8.611873998301167e-12 1.351412947923872e-12 8.611873998301167e-12 0.0036668853552300233" free_energy=-45155.37734208339 pbc="T T T"
In       2.78023039       4.01289155       8.17430383        0      -0.29826168       0.65962313       0.11744451
In       0.11286854       3.80515436       6.34432094        1      -0.29826168      -0.65962313      -0.11744451
In       2.55449331       1.40687625      13.60363333        2       0.29826168       0.65962313      -0.11744451
In       5.22185516       1.19913905       0.91499144        3       0.29826168      -0.65962313       0.11744451
In       2.55449331       1.19913905       6.34432094        4       0.29826168      -0.65962313      -0.11744451
In       5.22185516       1.40687625       8.17430383        5       0.29826168       0.65962313       0.11744451
In       2.78023039       3.80515436       0.91499144        6      -0.29826168      -0.65962313       0.11744451
In       0.11286854       4.01289155      13.60363333        7      -0.29826168       0.65962313      -0.11744451
In       2.70667487       3.79026751      11.78104012        8       0.03758419      -0.29717257       0.24572891
In       5.37403672       4.02777839       2.73758466        9       0.03758419       0.29717257      -0.24572891
In       2.62804883       1.18425221       9.99689704       10      -0.03758419      -0.29717257      -0.24572891
In      -0.03931302       1.42176309       4.52172773       11      -0.03758419       0.29717257       0.24572891
In       2.62804883       1.42176309       2.73758466       12      -0.03758419       0.29717257      -0.24572891
In      -0.03931302       1.18425221      11.78104012       13      -0.03758419      -0.29717257       0.24572891
In       2.70667487       4.02777839       4.52172773       14       0.03758419       0.29717257       0.24572891
In       5.37403672       3.79026751       9.99689704       15       0.03758419      -0.29717257      -0.24572891
O        4.62107622       4.46248607      11.71028056       16      -0.21380169       0.02493857      -0.23882632
O        1.95371437       3.35555983       2.80834421       17      -0.21380169      -0.02493857       0.23882632
O        0.71364748       1.85647077      10.06765660       18       0.21380169       0.02493857       0.23882632
O        3.38100933       0.74954453       4.45096817       19       0.21380169      -0.02493857      -0.23882632
O        0.71364748       0.74954453       2.80834421       20       0.21380169      -0.02493857       0.23882632
O        3.38100933       1.85647077      11.71028056       21       0.21380169       0.02493857      -0.23882632
O        4.62107622       3.35555983       4.45096817       22      -0.21380169      -0.02493857      -0.23882632
O        1.95371437       4.46248607      10.06765660       23      -0.21380169       0.02493857       0.23882632
O        3.82099761       2.62717455       9.19570853       24      -0.15952969      -0.01214037      -0.02035487
O        1.15363575       5.19087135       5.32291624       25      -0.15952969       0.01214036       0.02035487
O        1.51372610       0.02115925      12.58222863       26       0.15952969      -0.01214037       0.02035487
O        4.18108795       2.58485605       1.93639614       27       0.15952969       0.01214037      -0.02035487
O        1.51372610       2.58485605       5.32291624       28       0.15952969       0.01214037       0.02035487
O        4.18108795       0.02115925       9.19570853       29       0.15952969      -0.01214037      -0.02035487
O        3.82099761       5.19087135       1.93639614       30      -0.15952969       0.01214037      -0.02035487
O        1.15363575       2.62717455      12.58222863       31      -0.15952969      -0.01214037       0.02035487
O        3.51649951       3.31431561      13.60087899       32       0.26797091       0.11561495       0.07876442
O        0.84913766       4.50373030       0.91774578       33       0.26797091      -0.11561495      -0.07876442
O        1.81822420       0.70830031       8.17705817       34      -0.26797091       0.11561495      -0.07876442
O        4.48558605       1.89771500       6.34156661       35      -0.26797091      -0.11561495       0.07876442
O        1.81822420       1.89771500       0.91774578       36      -0.26797091      -0.11561495      -0.07876442
O        4.48558605       0.70830031      13.60087899       37      -0.26797091       0.11561495       0.07876442
O        3.51649951       4.50373030       6.34156661       38       0.26797091      -0.11561495       0.07876442
O        0.84913766       3.31431561       8.17705817       39       0.26797091       0.11561495      -0.07876442
40
Lattice="5.336799883113529 6.976688311080613e-42 2.0765572618958984e-75 -6.820958104921096e-42 5.1538316557096655 1.5967023139876186e-33 -6.915460264207099e-77 9.98299694563685e-33 14.676862408547608" Properties=species:S:1:pos:R:3:spacegroup_kinds:I:1:forces:R:3 spacegroup="P 1" unit_cell=conventional occupancy="_JSON {\"0\": {\"In\": 1}, \"1\": {\"In\": 1}, \"2\": {\"In\": 1}, \"3\": {\"In\": 1}, \"4\": {\"In\": 1}, \"5\": {\"In\": 1}, \"6\": {\"In\": 1}, \"7\": {\"In\": 1}, \"8\": {\"In\": 1}, \"9\": {\"In\": 1}, \"10\": {\"In\": 1}, \"11\": {\"In\": 1}, \"12\": {\"In\": 1}, \"13\": {\"In\": 1}, \"14\": {\"In\": 1}, \"15\": {\"In\": 1}, \"16\": {\"O\": 1}, \"17\": {\"O\": 1}, \"18\": {\"O\": 1}, \"19\": {\"O\": 1}, \"20\": {\"O\": 1}, \"21\": {\"O\": 1}, \"22\": {\"O\": 1}, \"23\": {\"O\": 1}, \"24\": {\"O\": 1}, \"25\": {\"O\": 1}, \"26\": {\"O\": 1}, \"27\": {\"O\": 1}, \"28\": {\"O\": 1}, \"29\": {\"O\": 1}, \"30\": {\"O\": 1}, \"31\": {\"O\": 1}, \"32\": {\"O\": 1}, \"33\": {\"O\": 1}, \"34\": {\"O\": 1}, \"35\": {\"O\": 1}, \"36\": {\"O\": 1}, \"37\": {\"O\": 1}, \"38\": {\"O\": 1}, \"39\": {\"O\": 1}}" n_minim_iter=4 energy=-45155.52958438145 stress="0.07317203293232145 -3.045779629360881e-12 -3.7887124605209366e-12 -3.045779629360881e-12 0.04114792864975255 3.3853861510132e-12 -3.7887124605209366e-12 3.3853861510132e-12 0.08098523136881838" free_energy=-45155.52958438145 pbc="T T T"
In       2.76129463       4.00206690       8.26437027        0       0.14926380       0.24872370       0.20136357
In       0.09289469       3.72868059       6.41249213        1       0.14926380      -0.24872370      -0.20136357
In       2.57550526       1.42515107      13.75092334        2      -0.14926380       0.24872370      -0.20136357
In       5.24390520       1.15176476       0.92593907        3      -0.14926380      -0.24872370       0.20136357
In       2.57550526       1.15176476       6.41249213        4      -0.14926380      -0.24872370      -0.20136357
In       5.24390520       1.42515107       8.26437027        5      -0.14926380       0.24872370       0.20136357
In       2.76129463       3.72868059       0.92593907        6       0.14926380      -0.24872370       0.20136357
In       0.09289469       4.00206690      13.75092334        7       0.14926380       0.24872370      -0.20136357
In       2.70841790       3.73510308      11.92009249        8      -0.10676370      -0.07194960       0.12544860
In       5.37681784       3.99564440       2.75676992        9      -0.10676370       0.07194960      -0.12544860
In       2.62838198       1.15818726      10.09520113       10       0.10676370      -0.07194960      -0.12544860
In      -0.04001796       1.41872857       4.58166128       11       0.10676370       0.07194960       0.12544860
In       2.62838198       1.41872857       2.75676992       12       0.10676370       0.07194960      -0.12544860
In      -0.04001796       1.15818726      11.92009249       13       0.10676370      -0.07194960       0.12544860
In       2.70841790       3.99564440       4.58166128       14      -0.10676370       0.07194960       0.12544860
In       5.37681784       3.73510308      10.09520113       15      -0.10676370      -0.07194960      -0.12544860
O        4.61410680       4.41653031      11.81900761       16      -0.14228776      -0.18592336       0.12718027
O        1.94570686       3.31421717       2.85785480       17      -0.14228776       0.18592336      -0.12718027
O        0.72269308       1.83961449      10.19628600       18       0.14228776      -0.18592336      -0.12718027
O        3.39109303       0.73730134       4.48057641       19       0.14228776       0.18592336       0.12718027
O        0.72269308       0.73730134       2.85785480       20       0.14228776       0.18592336      -0.12718027
O        3.39109303       1.83961449      11.81900761       21       0.14228776      -0.18592336       0.12718027
O        4.61410680       3.31421717       4.48057641       22      -0.14228776       0.18592336       0.12718027
O        1.94570686       4.41653031      10.19628600       23      -0.14228776      -0.18592336      -0.12718027
O        3.81765473       2.59209448       9.29678919       24      -0.13999199       0.19234646      -0.13695551
O        1.14925479       5.13865300       5.38007322       25      -0.13999199      -0.19234646       0.13695551
O        1.51914516       0.01517865      12.71850443       26       0.13999199       0.19234646       0.13695551
O        4.18754510       2.56173717       1.95835798       27       0.13999199      -0.19234646      -0.13695551
O        1.51914516       2.56173717       5.38007322       28       0.13999199      -0.19234646       0.13695551
O        4.18754510       0.01517865       9.29678919       29       0.13999199       0.19234646      -0.13695551
O        3.81765473       5.13865300       1.95835798       30      -0.13999199      -0.19234646      -0.13695551
O        1.14925479       2.59209448      12.71850443       31      -0.13999199       0.19234646       0.13695551
O        3.52695417       3.27907101      13.75778927       32       0.22361998       0.34147401      -0.26754820
O        0.85855423       4.45167647       0.91907314       33       0.22361998      -0.34147401       0.26754820
O        1.80984571       0.70215518       8.25750435       34      -0.22361998       0.34147401       0.26754820
O        4.47824565       1.87476064       6.41935806       35      -0.22361998      -0.34147401      -0.26754820
O        1.80984571       1.87476064       0.91907314       36      -0.22361998      -0.34147401       0.26754820
O        4.47824565       0.70215518      13.75778927       37      -0.22361998       0.34147401      -0.26754820
O        3.52695417       4.45167647       6.41935806       38       0.22361998      -0.34147401      -0.26754820
O        0.85855423       3.27907101       8.25750435       39       0.22361998       0.34147401       0.26754820
40
Lattice="5.321844829839124 6.977829064478893e-42 2.279438451404473e-75 -6.928140586458065e-42 5.19962012404119 1.72231462930743e-33 -6.596057076503014e-77 1.043646229523867e-32 14.588496857588863" Properties=species:S:1:pos:R:3:spacegroup_kinds:I:1:forces:R:3 spacegroup="P 1" unit_cell=conventional occupancy="_JSON {\"0\": {\"In\": 1}, \"1\": {\"In\": 1}, \"2\": {\"In\": 1}, \"3\": {\"In\": 1}, \"4\": {\"In\": 1}, \"5\": {\"In\": 1}, \"6\": {\"In\": 1}, \"7\": {\"In\": 1}, \"8\": {\"In\": 1}, \"9\": {\"In\": 1}, \"10\": {\"In\": 1}, \"11\": {\"In\": 1}, \"12\": {\"In\": 1}, \"13\": {\"In\": 1}, \"14\": {\"In\": 1}, \"15\": {\"In\": 1}, \"16\": {\"O\": 1}, \"17\": {\"O\": 1}, \"18\": {\"O\": 1}, \"19\": {\"O\": 1}, \"20\": {\"O\": 1}, \"21\": {\"O\": 1}, \"22\": {\"O\": 1}, \"23\": {\"O\": 1}, \"24\": {\"O\": 1}, \"25\": {\"O\": 1}, \"26\": {\"O\": 1}, \"27\": {\"O\": 1}, \"28\": {\"O\": 1}, \"29\": {\"O\": 1}, \"30\": {\"O\": 1}, \"31\": {\"O\": 1}, \"32\": {\"O\": 1}, \"33\": {\"O\": 1}, \"34\": {\"O\": 1}, \"35\": {\"O\": 1}, \"36\": {\"O\": 1}, \"37\": {\"O\": 1}, \"38\": {\"O\": 1}, \"39\": {\"O\": 1}}" n_minim_iter=5 energy=-45155.655172895225 stress="0.06629809481049673 -1.3700660755004659e-12 -6.163297833934244e-12 -1.3700660755004659e-12 0.06509517408806892 6.202453777214416e-12 -6.163297833934244e-12 6.202453777214416e-12 0.06970837256617098" free_energy=-45155.655172895225 pbc="T T T"
In       2.75276121       4.04462147       8.21827210        0       0.14682932       0.15921516       0.18264736
In       0.09183879       3.75480872       6.37022475        1       0.14682933      -0.15921516      -0.18264736
In       2.56908362       1.44481141      13.66447318        2      -0.14682933       0.15921516      -0.18264736
In       5.23000604       1.15499865       0.92402367        3      -0.14682932      -0.15921516       0.18264736
In       2.56908362       1.15499865       6.37022475        4      -0.14682932      -0.15921516      -0.18264736
In       5.23000604       1.44481141       8.21827210        5      -0.14682932       0.15921516       0.18264736
In       2.75276121       3.75480872       0.92402367        6       0.14682932      -0.15921516       0.18264736
In       0.09183879       4.04462147      13.66447318        7       0.14682932       0.15921516      -0.18264736
In       2.69852897       3.76490029      11.85220059        8      -0.13830904      -0.11894712       0.02448617
In       5.35945138       4.03452989       2.73629627        9      -0.13830904       0.11894712      -0.02448617
In       2.62331586       1.16509023      10.03054470       10       0.13830904      -0.11894712      -0.02448617
In      -0.03760655       1.43471983       4.55795216       11       0.13830904       0.11894712       0.02448617
In       2.62331586       1.43471983       2.73629627       12       0.13830904       0.11894712      -0.02448617
In      -0.03760655       1.16509023      11.85220059       13       0.13830904      -0.11894712       0.02448617
In       2.69852897       4.03452989       4.55795216       14      -0.13830904       0.11894712       0.02448617
In       5.35945138       3.76490029      10.03054470       15      -0.13830904      -0.11894712      -0.02448617
O        4.59866546       4.45537484      11.74770304       16      -0.09728872       0.00536111       0.19403776
O        1.93774304       3.34405535       2.84079382       17      -0.09728872      -0.00536111      -0.19403776
O        0.72317937       1.85556477      10.13504225       18       0.09728872       0.00536111      -0.19403776
O        3.38410179       0.74424529       4.45345461       19       0.09728872      -0.00536111       0.19403776
O        0.72317937       0.74424529       2.84079382       20       0.09728872      -0.00536111      -0.19403776
O        3.38410179       1.85556477      11.74770304       21       0.09728872       0.00536111       0.19403776
O        4.59866546       3.34405535       4.45345461       22      -0.09728872      -0.00536111       0.19403776
O        1.93774304       4.45537484      10.13504225       23      -0.09728872       0.00536111      -0.19403776
O        3.80456832       2.61694152       9.23963257       24      -0.07322141       0.18252447      -0.09766747
O        1.14364590       5.18248867       5.34886429       25      -0.07322141      -0.18252447       0.09766747
O        1.51727651       0.01713146      12.64311272       26       0.07322141       0.18252447       0.09766747
O        4.17819893       2.58267860       1.94538414       27       0.07322141      -0.18252447      -0.09766747
O        1.51727651       2.58267860       5.34886429       28       0.07322141      -0.18252447       0.09766747
O        4.17819893       0.01713146       9.23963257       29       0.07322141       0.18252447      -0.09766747
O        3.80456832       5.18248867       1.94538414       30      -0.07322141      -0.18252447      -0.09766747
O        1.14364590       2.61694152      12.64311272       31      -0.07322140       0.18252447       0.09766747
O        3.52095703       3.31202566      13.67223769       32       0.17704112       0.16860166      -0.25094002
O        0.86003462       4.48740453       0.91625916       33       0.17704112      -0.16860166       0.25094002
O        1.80088780       0.71221559       8.21050759       34      -0.17704112       0.16860166       0.25094002
O        4.46181021       1.88759447       6.37798926       35      -0.17704112      -0.16860166      -0.25094002
O        1.80088780       1.88759447       0.91625916       36      -0.17704112      -0.16860166       0.25094002
O        4.46181021       0.71221559      13.67223769       37      -0.17704112       0.16860166      -0.25094002
O        3.52095703       4.48740453       6.37798926       38       0.17704112      -0.16860166      -0.25094002
O        0.86003462       3.31202566       8.21050759       39       0.17704112       0.16860166       0.25094002
40