40
Lattice="5.8431544547530185 -1.884202484445391e-41 0.0 1.2619925868287312e-41 6.382498020881831 0.0 0.0 0.0 17.109633261647367" Properties=species:S:1:pos:R:3:spacegroup_kinds:I:1:forces:R:3 spacegroup="P 1" unit_cell=conventional occupancy="_JSON {\"0\": {\"In\": 1}, \"1\": {\"In\": 1}, \"2\": {\"In\": 1}, \"3\": {\"In\": 1}, \"4\": {\"In\": 1}, \"5\": {\"In\": 1}, \"6\": {\"In\": 1}, \"7\": {\"In\": 1}, \"8\": {\"In\": 1}, \"9\": {\"In\": 1}, \"10\": {\"In\": 1}, \"11\": {\"In\": 1}, \"12\": {\"In\": 1}, \"13\": {\"In\": 1}, \"14\": {\"In\": 1}, \"15\": {\"In\": 1}, \"16\": {\"O\": 1}, \"17\": {\"O\": 1}, \"18\": {\"O\": 1}, \"19\": {\"O\": 1}, \"20\": {\"O\": 1}, \"21\": {\"O\": 1}, \"22\": {\"O\": 1}, \"23\": {\"O\": 1}, \"24\": {\"O\": 1}, \"25\": {\"O\": 1}, \"26\": {\"O\": 1}, \"27\": {\"O\": 1}, \"28\": {\"O\": 1}, \"29\": {\"O\": 1}, \"30\": {\"O\": 1}, \"31\": {\"O\": 1}, \"32\": {\"O\": 1}, \"33\": {\"O\": 1}, \"34\": {\"O\": 1}, \"35\": {\"O\": 1}, \"36\": {\"O\": 1}, \"37\": {\"O\": 1}, \"38\": {\"O\": 1}, \"39\": {\"O\": 1}}" n_minim_iter=14 energy=-45145.48431260172 stress="0.06494084027972728 1.380737889436291e-14 1.1152668625812913e-12 1.380737889436291e-14 0.06463075476297074 -1.9704589134523703e-12 1.1152668625812913e-12 -1.9704589134523703e-12 0.06491327649306435" free_energy=-45145.48431260172 pbc="T T T"
In       2.68163503       5.25609976       9.79775517        0      -0.00319795      -0.00186199      -0.00624973
In      -0.23994220       4.31764727       7.31187809        1      -0.00319795       0.00186199       0.00624973
In       3.16151943       2.06485075      15.86669472        2       0.00319795      -0.00186199       0.00624973
In       6.08309666       1.12639826       1.24293854        3       0.00319795       0.00186199      -0.00624973
In       3.16151943       1.12639826       7.31187809        4       0.00319795       0.00186199       0.00624973
In       6.08309666       2.06485075       9.79775517        5       0.00319795      -0.00186199      -0.00624973
In       2.68163503       4.31764727       1.24293854        6      -0.00319795       0.00186199      -0.00624973
In      -0.23994220       5.25609976      15.86669472        7      -0.00319795      -0.00186199       0.00624973
In       2.68758328       5.12181566      13.97209825        8      -0.00221722      -0.00906335       0.00171598
In       5.60916051       4.45193137       3.13753501        9      -0.00221722       0.00906335      -0.00171598
In       3.15557118       1.93056665      11.69235164       10       0.00221722      -0.00906335      -0.00171598
In       0.23399395       1.26068236       5.41728162       11       0.00221722       0.00906335       0.00171598
In       3.15557118       1.26068236       3.13753501       12       0.00221722       0.00906335      -0.00171598
In       0.23399395       1.93056665      13.97209825       13       0.00221722      -0.00906335       0.00171598
In       2.68758328       4.45193137       5.41728162       14      -0.00221722       0.00906335       0.00171598
In       5.60916051       5.12181566      11.69235164       15      -0.00221722      -0.00906335      -0.00171598
O        4.84294659       5.61041224      13.74919402       16       0.00023677      -0.00886329       0.00278825
O        1.92136936       3.96333480       3.36043924       17       0.00023677       0.00886329      -0.00278825
O        1.00020787       2.41916323      11.91525587       18      -0.00023677      -0.00886329      -0.00278825
O        3.92178509       0.77208579       5.19437739       19      -0.00023677       0.00886329       0.00278825
O        1.00020787       0.77208579       3.36043924       20      -0.00023677       0.00886329      -0.00278825
O        3.92178509       2.41916323      13.74919402       21      -0.00023677      -0.00886329       0.00278825
O        4.84294659       3.96333480       5.19437739       22       0.00023677       0.00886329       0.00278825
O        1.92136936       5.61041224      11.91525587       23       0.00023677      -0.00886329      -0.00278825
O        4.08702234       3.82267119      10.79645441       24      -0.00906768       0.00063524       0.00376593
O        1.16544511       5.75107584       6.31317885       25      -0.00906768      -0.00063523      -0.00376593
O        1.75613212       0.63142218      14.86799548       26       0.00906768       0.00063524      -0.00376593
O        4.67770935       2.55982683       2.24163778       27       0.00906768      -0.00063523       0.00376593
O        1.75613212       2.55982683       6.31317885       28       0.00906768      -0.00063524      -0.00376593
O        4.67770935       0.63142218      10.79645441       29       0.00906768       0.00063524       0.00376593
O        4.08702234       5.75107584       2.24163778       30      -0.00906768      -0.00063524       0.00376593
O        1.16544511       3.82267119      14.86799548       31      -0.00906768       0.00063524      -0.00376593
O        3.82046126       4.08664789      16.48694134       32       0.00058655      -0.00323592      -0.00022782
O        0.89888403       5.48709914       0.62269192       33       0.00058655       0.00323592       0.00022782
O        2.02269320       0.89539888       9.17750855       34      -0.00058655      -0.00323592       0.00022782
O        4.94427043       2.29585013       7.93212471       35      -0.00058655       0.00323591      -0.00022782
O        2.02269320       2.29585013       0.62269192       36      -0.00058655       0.00323591       0.00022782
O        4.94427043       0.89539888      16.48694134       37      -0.00058655      -0.00323592      -0.00022782
O        3.82046126       5.48709914       7.93212471       38       0.00058655       0.00323592      -0.00022782
O        0.89888403       4.08664789       9.17750855       39       0.00058655      -0.00323592       0.00022782
