40
Lattice="5.85118510057863 -8.594852054941513e-42 0.0 8.890873475019389e-42 6.052709933297069 0.0 0.0 0.0 16.914018796998597" Properties=species:S:1:pos:R:3:spacegroup_kinds:I:1:forces:R:3 spacegroup="P 1" unit_cell=conventional occupancy="_JSON {\"0\": {\"In\": 1}, \"1\": {\"In\": 1}, \"2\": {\"In\": 1}, \"3\": {\"In\": 1}, \"4\": {\"In\": 1}, \"5\": {\"In\": 1}, \"6\": {\"In\": 1}, \"7\": {\"In\": 1}, \"8\": {\"In\": 1}, \"9\": {\"In\": 1}, \"10\": {\"In\": 1}, \"11\": {\"In\": 1}, \"12\": {\"In\": 1}, \"13\": {\"In\": 1}, \"14\": {\"In\": 1}, \"15\": {\"In\": 1}, \"16\": {\"O\": 1}, \"17\": {\"O\": 1}, \"18\": {\"O\": 1}, \"19\": {\"O\": 1}, \"20\": {\"O\": 1}, \"21\": {\"O\": 1}, \"22\": {\"O\": 1}, \"23\": {\"O\": 1}, \"24\": {\"O\": 1}, \"25\": {\"O\": 1}, \"26\": {\"O\": 1}, \"27\": {\"O\": 1}, \"28\": {\"O\": 1}, \"29\": {\"O\": 1}, \"30\": {\"O\": 1}, \"31\": {\"O\": 1}, \"32\": {\"O\": 1}, \"33\": {\"O\": 1}, \"34\": {\"O\": 1}, \"35\": {\"O\": 1}, \"36\": {\"O\": 1}, \"37\": {\"O\": 1}, \"38\": {\"O\": 1}, \"39\": {\"O\": 1}}" n_minim_iter=1 energy=-45146.4884307116 stress="0.10520142521123864 8.181454776492797e-13 -1.0783148015347935e-12 8.181454776492797e-13 0.10259257827087488 -1.993047750767039e-12 -1.0783148015347935e-12 -1.993047750767039e-12 0.09919769360680658" free_energy=-45146.4884307116 pbc="T T T"
In       2.92031599       4.88392599       9.67498242        0      -0.01938261      -0.01751609       0.01831328
In      -0.00527656       4.19513891       7.23903637        1      -0.01938261       0.01751609      -0.01831328
In       2.93086911       1.85757103      15.69604577        2       0.01938261      -0.01751609      -0.01831328
In       5.85646166       1.16878394       1.21797302        3       0.01938261       0.01751609       0.01831328
In       2.93086911       1.16878394       7.23903637        4       0.01938261       0.01751609      -0.01831328
In       5.85646166       1.85757103       9.67498242        5       0.01938261      -0.01751609       0.01831328
In       2.92031599       4.19513891       1.21797302        6      -0.01938261       0.01751609       0.01831328
In      -0.00527656       4.88392599      15.69604577        7      -0.01938261      -0.01751609      -0.01831328
In       2.88937772       4.47995920      13.83042200        8       0.00762488       0.05218288       0.08505758
In       5.81497027       4.59910570       3.08359680        9       0.00762488      -0.05218288      -0.08505758
In       2.96180738       1.45360423      11.54060620       10      -0.00762488       0.05218288      -0.08505758
In       0.03621483       1.57275074       5.37341260       11      -0.00762488      -0.05218288       0.08505758
In       2.96180738       1.57275074       3.08359680       12      -0.00762488      -0.05218288      -0.08505758
In       0.03621483       1.45360423      13.83042200       13      -0.00762488       0.05218288       0.08505758
In       2.88937772       4.59910570       5.37341260       14       0.00762488      -0.05218288       0.08505758
In       5.81497027       4.47995920      11.54060620       15       0.00762488       0.05218288      -0.08505758
O        5.01344114       5.22811663      13.51208694       16       0.00768724       0.00218025       0.05361047
O        2.08784859       3.85094827       3.40193185       17       0.00768724      -0.00218025      -0.05361047
O        0.83774396       2.20176167      11.85894125       18      -0.00768724       0.00218025      -0.05361047
O        3.76333651       0.82459330       5.05507755       19      -0.00768724      -0.00218025       0.05361047
O        0.83774396       0.82459330       3.40193185       20      -0.00768724      -0.00218025      -0.05361047
O        3.76333651       2.20176167      13.51208694       21      -0.00768724       0.00218025       0.05361047
O        5.01344114       3.85094827       5.05507755       22       0.00768724      -0.00218025       0.05361047
O        2.08784859       5.22811663      11.85894125       23       0.00768724       0.00218025      -0.05361047
O        4.09682328       3.19587418      10.56637979       24       0.03704213       0.02122485       0.02435397
O        1.17123073       5.88319072       6.34763900       25       0.03704213      -0.02122485      -0.02435397
O        1.75436182       0.16951921      14.80464840       26      -0.03704213       0.02122485      -0.02435397
O        4.67995437       2.85683575       2.10937040       27      -0.03704213      -0.02122485       0.02435397
O        1.75436182       2.85683575       6.34763900       28      -0.03704213      -0.02122485      -0.02435397
O        4.67995437       0.16951921      10.56637979       29      -0.03704213       0.02122485       0.02435397
O        4.09682328       5.88319072       2.10937040       30       0.03704213      -0.02122485       0.02435397
O        1.17123073       3.19587418      14.80464840       31       0.03704213       0.02122485      -0.02435397
O        3.80586039       3.99795233      16.05939528       32      -0.04381190      -0.04933202       0.09381883
O        0.88026784       5.08111257       0.85462352       33      -0.04381191       0.04933202      -0.09381883
O        2.04532471       0.97159737       9.31163292       34       0.04381191      -0.04933202      -0.09381883
O        4.97091726       2.05475760       7.60238588       35       0.04381190       0.04933202       0.09381883
O        2.04532471       2.05475760       0.85462352       36       0.04381191       0.04933202      -0.09381883
O        4.97091726       0.97159737      16.05939528       37       0.04381190      -0.04933202       0.09381883
O        3.80586039       5.08111257       7.60238588       38      -0.04381190       0.04933202       0.09381883
O        0.88026784       3.99795233       9.31163292       39      -0.04381190      -0.04933202      -0.09381883
40
Lattice="5.83131594663922 -8.644474395971491e-42 0.0 8.851443112703062e-42 6.050831193629628 0.0 0.0 0.0 16.9769198311615" Properties=species:S:1:pos:R:3:spacegroup_kinds:I:1:forces:R:3 spacegroup="P 1" unit_cell=conventional occupancy="_JSON {\"0\": {\"In\": 1}, \"1\": {\"In\": 1}, \"2\": {\"In\": 1}, \"3\": {\"In\": 1}, \"4\": {\"In\": 1}, \"5\": {\"In\": 1}, \"6\": {\"In\": 1}, \"7\": {\"In\": 1}, \"8\": {\"In\": 1}, \"9\": {\"In\": 1}, \"10\": {\"In\": 1}, \"11\": {\"In\": 1}, \"12\": {\"In\": 1}, \"13\": {\"In\": 1}, \"14\": {\"In\": 1}, \"15\": {\"In\": 1}, \"16\": {\"O\": 1}, \"17\": {\"O\": 1}, \"18\": {\"O\": 1}, \"19\": {\"O\": 1}, \"20\": {\"O\": 1}, \"21\": {\"O\": 1}, \"22\": {\"O\": 1}, \"23\": {\"O\": 1}, \"24\": {\"O\": 1}, \"25\": {\"O\": 1}, \"26\": {\"O\": 1}, \"27\": {\"O\": 1}, \"28\": {\"O\": 1}, \"29\": {\"O\": 1}, \"30\": {\"O\": 1}, \"31\": {\"O\": 1}, \"32\": {\"O\": 1}, \"33\": {\"O\": 1}, \"34\": {\"O\": 1}, \"35\": {\"O\": 1}, \"36\": {\"O\": 1}, \"37\": {\"O\": 1}, \"38\": {\"O\": 1}, \"39\": {\"O\": 1}}" n_minim_iter=2 energy=-45146.495053053346 stress="0.10047773198593278 -2.8409966804526916e-12 -2.882990979479304e-12 -2.8409966804526916e-12 0.10152225806527419 -1.254121325421475e-12 -2.882990979479304e-12 -1.254121325421475e-12 0.10073544409024231" free_energy=-45146.495053053346 pbc="T T T"
In       2.91036112       4.88237540       9.71099878        0       0.00406549       0.00817251      -0.00244189
In      -0.00529685       4.19387139       7.26592105        1       0.00406549      -0.00817251       0.00244189
In       2.92095482       1.85695981      15.75438097        2      -0.00406549       0.00817251       0.00244189
In       5.83661280       1.16845579       1.22253887        3      -0.00406549      -0.00817251      -0.00244189
In       2.92095482       1.16845579       7.26592105        4      -0.00406549      -0.00817251       0.00244189
In       5.83661280       1.85695981       9.71099878        5      -0.00406549       0.00817251      -0.00244189
In       2.91036112       4.19387139       1.22253887        6       0.00406549      -0.00817251      -0.00244189
In      -0.00529685       4.88237540      15.75438097        7       0.00406549       0.00817251       0.00244189
In       2.87958115       4.47867182      13.88202440        8       0.00464845       0.05425438       0.08734965
In       5.79523912       4.59757497       3.09489543        9       0.00464845      -0.05425438      -0.08734965
In       2.95173480       1.45325622      11.58335534       10      -0.00464845       0.05425438      -0.08734965
In       0.03607683       1.57215937       5.39356449       11      -0.00464845      -0.05425438       0.08734965
In       2.95173480       1.57215937       3.09489543       12      -0.00464845      -0.05425438      -0.08734965
In       0.03607683       1.45325622      13.88202440       13      -0.00464845       0.05425438       0.08734965
In       2.87958115       4.59757497       5.39356449       14       0.00464845      -0.05425438       0.08734965
In       5.79523912       4.47867182      11.58335534       15       0.00464845       0.05425438      -0.08734965
O        4.99643191       5.22649815      13.56244307       16       0.00831200       0.00559959       0.02888459
O        2.08077394       3.84974864       3.41447676       17       0.00831200      -0.00559959      -0.02888459
O        0.83488404       2.20108256      11.90293668       18      -0.00831200       0.00559959      -0.02888459
O        3.75054201       0.82433304       5.07398316       19      -0.00831200      -0.00559959       0.02888459
O        0.83488404       0.82433304       3.41447676       20      -0.00831200      -0.00559959      -0.02888459
O        3.75054201       2.20108256      13.56244307       21      -0.00831200       0.00559959       0.02888459
O        4.99643191       3.84974864       5.07398316       22       0.00831200      -0.00559959       0.02888459
O        2.08077394       5.22649815      11.90293668       23       0.00831200       0.00559959      -0.02888459
O        4.08298451       3.19492416      10.60572314       24       0.02827704       0.01047049       0.04200642
O        1.16732654       5.88132263       6.37119670       25       0.02827704      -0.01047049      -0.04200642
O        1.74833143       0.16950856      14.85965661       26      -0.02827704       0.01047049      -0.04200642
O        4.66398941       2.85590703       2.11726322       27      -0.02827704      -0.01047049       0.04200642
O        1.74833143       2.85590703       6.37119670       28      -0.02827704      -0.01047049      -0.04200642
O        4.66398941       0.16950856      10.60572314       29      -0.02827704       0.01047049       0.04200642
O        4.08298451       5.88132263       2.11726322       30       0.02827704      -0.01047049       0.04200642
O        1.16732654       3.19492416      14.85965661       31       0.02827704       0.01047049      -0.04200642
O        3.79285028       3.99661383      16.11930434       32      -0.05226314      -0.05307244       0.13170150
O        0.87719231       5.07963296       0.85761549       33      -0.05226314       0.05307244      -0.13170150
O        2.03846566       0.97119824       9.34607541       34       0.05226314      -0.05307244      -0.13170150
O        4.95412364       2.05421736       7.63084442       35       0.05226314       0.05307244       0.13170150
O        2.03846566       2.05421736       0.85761549       36       0.05226314       0.05307244      -0.13170150
O        4.95412364       0.97119824      16.11930434       37       0.05226314      -0.05307244       0.13170150
O        3.79285028       5.07963296       7.63084442       38      -0.05226314       0.05307244       0.13170150
O        0.87719231       3.99661383       9.34607541       39      -0.05226314      -0.05307244      -0.13170150
40
Lattice="5.836526971530281 -8.120379231354283e-42 0.0 8.459326252078526e-42 6.03646165626849 0.0 0.0 0.0 17.002139077900857" Properties=species:S:1:pos:R:3:spacegroup_kinds:I:1:forces:R:3 spacegroup="P 1" unit_cell=conventional occupancy="_JSON {\"0\": {\"In\": 1}, \"1\": {\"In\": 1}, \"2\": {\"In\": 1}, \"3\": {\"In\": 1}, \"4\": {\"In\": 1}, \"5\": {\"In\": 1}, \"6\": {\"In\": 1}, \"7\": {\"In\": 1}, \"8\": {\"In\": 1}, \"9\": {\"In\": 1}, \"10\": {\"In\": 1}, \"11\": {\"In\": 1}, \"12\": {\"In\": 1}, \"13\": {\"In\": 1}, \"14\": {\"In\": 1}, \"15\": {\"In\": 1}, \"16\": {\"O\": 1}, \"17\": {\"O\": 1}, \"18\": {\"O\": 1}, \"19\": {\"O\": 1}, \"20\": {\"O\": 1}, \"21\": {\"O\": 1}, \"22\": {\"O\": 1}, \"23\": {\"O\": 1}, \"24\": {\"O\": 1}, \"25\": {\"O\": 1}, \"26\": {\"O\": 1}, \"27\": {\"O\": 1}, \"28\": {\"O\": 1}, \"29\": {\"O\": 1}, \"30\": {\"O\": 1}, \"31\": {\"O\": 1}, \"32\": {\"O\": 1}, \"33\": {\"O\": 1}, \"34\": {\"O\": 1}, \"35\": {\"O\": 1}, \"36\": {\"O\": 1}, \"37\": {\"O\": 1}, \"38\": {\"O\": 1}, \"39\": {\"O\": 1}}" n_minim_iter=3 energy=-45146.49667403924 stress="0.10102921713858998 8.568410910751398e-13 -1.242784155579065e-12 8.568410910751398e-13 0.0994728529010323 4.322549941715896e-12 -1.242784155579065e-12 4.322549941715896e-12 0.10089030767676425" free_energy=-45146.49667403924 pbc="T T T"
In       2.91297901       4.87082457       9.72541695        0       0.00085387       0.01243639      -0.01344256
In      -0.00528448       4.18386792       7.27672213        1       0.00085387      -0.01243639       0.01344256
In       2.92354796       1.85259374      15.77779167        2      -0.00085387       0.01243639       0.01344256
In       5.84181145       1.16563709       1.22434741        3      -0.00085387      -0.01243639      -0.01344256
In       2.92354796       1.16563709       7.27672213        4      -0.00085387      -0.01243639       0.01344256
In       5.84181145       1.85259374       9.72541695        5      -0.00085387       0.01243639      -0.01344256
In       2.91297901       4.18386792       1.22434741        6       0.00085387      -0.01243639      -0.01344256
In      -0.00528448       4.87082457      15.77779167        7       0.00085387       0.01243639       0.01344256
In       2.88218692       4.46840012      13.90323998        8       0.01742696       0.05720137       0.08739838
In       5.80045040       4.58629237       3.09889910        9       0.01742696      -0.05720137      -0.08739838
In       2.95434006       1.45016929      11.59996864       10      -0.01742696       0.05720137      -0.08739837
In       0.03607657       1.56806154       5.40217044       11      -0.01742696      -0.05720137       0.08739838
In       2.95434006       1.56806154       3.09889910       12      -0.01742696      -0.05720137      -0.08739838
In       0.03607657       1.45016929      13.90323998       13      -0.01742696       0.05720137       0.08739838
In       2.88218692       4.58629237       5.40217044       14       0.01742696      -0.05720137       0.08739837
In       5.80045040       4.46840012      11.59996864       15       0.01742696       0.05720137      -0.08739837
O        5.00095238       5.21412245      13.58279762       16       0.01347286       0.00430144       0.02959198
O        2.08268889       3.84057003       3.41934146       17       0.01347286      -0.00430144      -0.02959198
O        0.83557459       2.19589162      11.92041100       18      -0.01347286       0.00430144      -0.02959198
O        3.75383808       0.82233921       5.08172808       19      -0.01347286      -0.00430144       0.02959198
O        0.83557459       0.82233921       3.41934146       20      -0.01347286      -0.00430144      -0.02959198
O        3.75383808       2.19589162      13.58279762       21      -0.01347286       0.00430144       0.02959198
O        5.00095238       3.84057003       5.08172808       22       0.01347286      -0.00430144       0.02959198
O        2.08268889       5.21412245      11.92041100       23       0.01347286       0.00430144      -0.02959198
O        4.08682680       3.18741199      10.62175627       24       0.02668632       0.00724052       0.04769423
O        1.16856331       5.86728050       6.38038281       25       0.02668632      -0.00724052      -0.04769423
O        1.74970018       0.16918116      14.88145234       26      -0.02668632       0.00724052      -0.04769423
O        4.66796366       2.84904967       2.12068673       27      -0.02668632      -0.00724052       0.04769423
O        1.74970018       2.84904967       6.38038281       28      -0.02668632      -0.00724052      -0.04769423
O        4.66796366       0.16918116      10.62175627       29      -0.02668632       0.00724052       0.04769423
O        4.08682680       5.86728050       2.12068673       30       0.02668632      -0.00724052       0.04769423
O        1.16856331       3.18741199      14.88145234       31       0.02668632       0.00724052      -0.04769423
O        3.79589254       3.98676708      16.14412983       32      -0.05603914      -0.04360078       0.14141123
O        0.87762905       5.06792541       0.85800925       33      -0.05603914       0.04360078      -0.14141123
O        2.04063443       0.96853625       9.35907879       34       0.05603914      -0.04360078      -0.14141123
O        4.95889792       2.04969458       7.64306029       35       0.05603914       0.04360078       0.14141123
O        2.04063443       2.04969458       0.85800925       36       0.05603914       0.04360078      -0.14141123
O        4.95889792       0.96853625      16.14412983       37       0.05603914      -0.04360078       0.14141123
O        3.79589254       5.06792541       7.64306029       38      -0.05603914       0.04360078       0.14141123
O        0.87762905       3.98676708       9.35907879       39      -0.05603914      -0.04360078      -0.14141123
40
Lattice="5.821668835350878 -8.101168157560192e-42 0.0 8.54465968380735e-42 6.021899505282894 0.0 0.0 0.0 17.086751638122344" Properties=species:S:1:pos:R:3:spacegroup_kinds:I:1:forces:R:3 spacegroup="P 1" unit_cell=conventional occupancy="_JSON {\"0\": {\"In\": 1}, \"1\": {\"In\": 1}, \"2\": {\"In\": 1}, \"3\": {\"In\": 1}, \"4\": {\"In\": 1}, \"5\": {\"In\": 1}, \"6\": {\"In\": 1}, \"7\": {\"In\": 1}, \"8\": {\"In\": 1}, \"9\": {\"In\": 1}, \"10\": {\"In\": 1}, \"11\": {\"In\": 1}, \"12\": {\"In\": 1}, \"13\": {\"In\": 1}, \"14\": {\"In\": 1}, \"15\": {\"In\": 1}, \"16\": {\"O\": 1}, \"17\": {\"O\": 1}, \"18\": {\"O\": 1}, \"19\": {\"O\": 1}, \"20\": {\"O\": 1}, \"21\": {\"O\": 1}, \"22\": {\"O\": 1}, \"23\": {\"O\": 1}, \"24\": {\"O\": 1}, \"25\": {\"O\": 1}, \"26\": {\"O\": 1}, \"27\": {\"O\": 1}, \"28\": {\"O\": 1}, \"29\": {\"O\": 1}, \"30\": {\"O\": 1}, \"31\": {\"O\": 1}, \"32\": {\"O\": 1}, \"33\": {\"O\": 1}, \"34\": {\"O\": 1}, \"35\": {\"O\": 1}, \"36\": {\"O\": 1}, \"37\": {\"O\": 1}, \"38\": {\"O\": 1}, \"39\": {\"O\": 1}}" n_minim_iter=4 energy=-45146.52006150286 stress="0.09506676167826661 1.7373408638524947e-12 -1.6562485777378562e-13 1.7373408638524947e-12 0.09213497647765803 -4.1872826106275145e-12 -1.6562485777378562e-13 -4.1872826106275145e-12 0.1006478765977186" free_energy=-45146.52006150286 pbc="T T T"
In       2.90599804       4.86082571       9.77265367        0      -0.04620196      -0.01012213       0.00933341
In      -0.00483637       4.17202354       7.31409796        1      -0.04620196       0.01012213      -0.00933341
In       2.91567079       1.84987596      15.85747378        2       0.04620196      -0.01012213      -0.00933341
In       5.82650521       1.16107379       1.22927785        3       0.04620196       0.01012213       0.00933341
In       2.91567079       1.16107379       7.31409796        4       0.04620196       0.01012213      -0.00933341
In       5.82650521       1.84987596       9.77265367        5       0.04620196      -0.01012213       0.00933341
In       2.90599804       4.17202354       1.22927785        6      -0.04620196       0.01012213       0.00933341
In      -0.00483637       4.86082571      15.85747378        7      -0.04620196      -0.01012213      -0.00933341
In       2.87667185       4.46839466      13.98980530        8       0.01399487       0.03276523      -0.04170026
In       5.78750627       4.56445459       3.09694633        9       0.01399487      -0.03276523       0.04170026
In       2.94499699       1.45744491      11.64032215       10      -0.01399487       0.03276523       0.04170026
In       0.03416257       1.55350484       5.44642949       11      -0.01399487      -0.03276523      -0.04170026
In       2.94499699       1.55350484       3.09694633       12      -0.01399487      -0.03276523       0.04170026
In       0.03416257       1.45744491      13.98980530       13      -0.01399487       0.03276523      -0.04170026
In       2.87667185       4.56445459       5.44642949       14       0.01399487      -0.03276523      -0.04170026
In       5.78750627       4.46839466      11.64032215       15       0.01399487       0.03276523       0.04170026
O        4.99019946       5.20252532      13.65633244       16      -0.01314603       0.00952156      -0.01248803
O        2.07936505       3.83032393       3.43041920       17      -0.01314603      -0.00952156       0.01248803
O        0.83146937       2.19157557      11.97379502       18       0.01314603       0.00952156       0.01248803
O        3.74230379       0.81937418       5.11295662       19       0.01314603      -0.00952156      -0.01248803
O        0.83146937       0.81937418       3.43041920       20       0.01314603      -0.00952156       0.01248803
O        3.74230379       2.19157557      13.65633244       21       0.01314603       0.00952156      -0.01248803
O        4.99019946       3.83032393       5.11295662       22      -0.01314603      -0.00952156      -0.01248803
O        2.07936505       5.20252532      11.97379502       23      -0.01314603       0.00952156       0.01248803
O        4.08186266       3.18159617      10.68328718       24      -0.03508992       0.04893655      -0.00282798
O        1.17102825       5.85125309       6.40346445       25      -0.03508992      -0.04893655       0.00282798
O        1.73980617       0.17064642      14.94684027       26       0.03508992       0.04893655       0.00282798
O        4.65064059       2.84030334       2.13991136       27       0.03508992      -0.04893655      -0.00282798
O        1.73980617       2.84030334       6.40346445       28       0.03508992      -0.04893655       0.00282798
O        4.65064059       0.17064642      10.68328718       29       0.03508992       0.04893655      -0.00282798
O        4.08186266       5.85125309       2.13991136       30      -0.03508992      -0.04893655      -0.00282798
O        1.17102825       3.18159617      14.94684027       31      -0.03508992       0.04893655       0.00282798
O        3.77583850       3.96749067      16.25117032       32       0.09714163       0.01574305       0.03720618
O        0.86500408       5.06535859       0.83558132       33       0.09714163      -0.01574305      -0.03720618
O        2.04583033       0.95654091       9.37895714       34      -0.09714163       0.01574305      -0.03720618
O        4.95666475       2.05440884       7.70779450       35      -0.09714163      -0.01574305       0.03720618
O        2.04583033       2.05440884       0.83558132       36      -0.09714163      -0.01574305      -0.03720618
O        4.95666475       0.95654091      16.25117032       37      -0.09714163       0.01574305       0.03720618
O        3.77583850       5.06535859       7.70779450       38       0.09714163      -0.01574305       0.03720618
O        0.86500408       3.96749067       9.37895714       39       0.09714163       0.01574305      -0.03720618
40
Lattice="5.825004932489111 -8.102111188563929e-42 0.0 8.591508999370024e-42 6.052758516942859 0.0 0.0 0.0 16.989901561381764" Properties=species:S:1:pos:R:3:spacegroup_kinds:I:1:forces:R:3 spacegroup="P 1" unit_cell=conventional occupancy="_JSON {\"0\": {\"In\": 1}, \"1\": {\"In\": 1}, \"2\": {\"In\": 1}, \"3\": {\"In\": 1}, \"4\": {\"In\": 1}, \"5\": {\"In\": 1}, \"6\": {\"In\": 1}, \"7\": {\"In\": 1}, \"8\": {\"In\": 1}, \"9\": {\"In\": 1}, \"10\": {\"In\": 1}, \"11\": {\"In\": 1}, \"12\": {\"In\": 1}, \"13\": {\"In\": 1}, \"14\": {\"In\": 1}, \"15\": {\"In\": 1}, \"16\": {\"O\": 1}, \"17\": {\"O\": 1}, \"18\": {\"O\": 1}, \"19\": {\"O\": 1}, \"20\": {\"O\": 1}, \"21\": {\"O\": 1}, \"22\": {\"O\": 1}, \"23\": {\"O\": 1}, \"24\": {\"O\": 1}, \"25\": {\"O\": 1}, \"26\": {\"O\": 1}, \"27\": {\"O\": 1}, \"28\": {\"O\": 1}, \"29\": {\"O\": 1}, \"30\": {\"O\": 1}, \"31\": {\"O\": 1}, \"32\": {\"O\": 1}, \"33\": {\"O\": 1}, \"34\": {\"O\": 1}, \"35\": {\"O\": 1}, \"36\": {\"O\": 1}, \"37\": {\"O\": 1}, \"38\": {\"O\": 1}, \"39\": {\"O\": 1}}" n_minim_iter=5 energy=-45146.534237180655 stress="0.09647151257726551 9.438212659505781e-13 -5.662691101556566e-13 9.438212659505781e-13 0.09686921018553309 3.4719678832331974e-12 -5.662691101556566e-13 3.4719678832331974e-12 0.09600536731338688" free_energy=-45146.534237180655 pbc="T T T"
In       2.90707635       4.88531904       9.71776207        0      -0.06002490      -0.03072485       0.04620734
In      -0.00542611       4.19381873       7.27213949        1      -0.06002490       0.03072485      -0.04620734
In       2.91792858       1.85893978      15.76709027        2       0.06002490      -0.03072485      -0.04620734
In       5.83043105       1.16743948       1.22281129        3       0.06002490       0.03072485       0.04620734
In       2.91792858       1.16743948       7.27213949        4       0.06002490       0.03072485      -0.04620734
In       5.83043105       1.85893978       9.71776207        5       0.06002490      -0.03072485       0.04620734
In       2.90707635       4.19381873       1.22281129        6      -0.06002490       0.03072485       0.04620734
In      -0.00542611       4.88531904      15.76709027        7      -0.06002490      -0.03072485      -0.04620734
In       2.87821124       4.49143950      13.90990567        8       0.01173687       0.03664358       0.00936284
In       5.79071370       4.58769828       3.07999589        9       0.01173687      -0.03664358      -0.00936284
In       2.94679369       1.46506024      11.57494668       10      -0.01173687       0.03664358      -0.00936284
In       0.03429123       1.56131902       5.41495489       11      -0.01173687      -0.03664358       0.00936284
In       2.94679369       1.56131902       3.07999589       12      -0.01173687      -0.03664358      -0.00936284
In       0.03429123       1.46506024      13.90990567       13      -0.01173687       0.03664358       0.00936284
In       2.87821124       4.58769828       5.41495489       14       0.01173687      -0.03664358       0.00936284
In       5.79071370       4.49143950      11.57494668       15       0.01173687       0.03664358      -0.00936284
O        4.99280486       5.22926703      13.57893905       16      -0.02497931       0.00851298       0.00263099
O        2.08030240       3.84987075       3.41096251       17      -0.02497931      -0.00851298      -0.00263099
O        0.83220007       2.20288777      11.90591329       18       0.02497931       0.00851299      -0.00263099
O        3.74470253       0.82349149       5.08398827       19       0.02497931      -0.00851299       0.00263099
O        0.83220007       0.82349149       3.41096251       20       0.02497931      -0.00851298      -0.00263099
O        3.74470253       2.20288777      13.57893905       21       0.02497931       0.00851298       0.00263099
O        4.99280486       3.84987075       5.08398827       22      -0.02497931      -0.00851298       0.00263099
O        2.08030240       5.22926703      11.90591329       23      -0.02497931       0.00851299      -0.00263099
O        4.08391382       3.19851728      10.62235802       24      -0.02530255       0.05752138      -0.02847139
O        1.17141136       5.88062050       6.36754355       25      -0.02530255      -0.05752138       0.02847139
O        1.74109111       0.17213802      14.86249433       26       0.02530255       0.05752138       0.02847139
O        4.65359357       2.85424124       2.12740724       27       0.02530255      -0.05752138      -0.02847139
O        1.74109111       2.85424124       6.36754355       28       0.02530255      -0.05752138       0.02847139
O        4.65359357       0.17213802      10.62235802       29       0.02530255       0.05752138      -0.02847139
O        4.08391382       5.88062050       2.12740724       30      -0.02530255      -0.05752138      -0.02847139
O        1.17141136       3.19851728      14.86249433       31      -0.02530255       0.05752138       0.02847139
O        3.77919181       3.98790671      16.15865739       32       0.08627696      -0.01603086       0.03689921
O        0.86668934       5.09123106       0.83124417       33       0.08627696       0.01603086      -0.03689921
O        2.04581313       0.96152745       9.32619495       34      -0.08627696      -0.01603086      -0.03689921
O        4.95831559       2.06485180       7.66370661       35      -0.08627696       0.01603086       0.03689921
O        2.04581313       2.06485180       0.83124417       36      -0.08627696       0.01603086      -0.03689921
O        4.95831559       0.96152745      16.15865739       37      -0.08627696      -0.01603086       0.03689921
O        3.77919181       5.09123106       7.66370661       38       0.08627696       0.01603086       0.03689921
O        0.86668934       3.98790671       9.32619495       39       0.08627696      -0.01603086      -0.03689921
40