40
Lattice="5.4627030157118215 7.900455054265977e-43 0.0 6.121493457898698e-42 5.623809713756729 0.0 0.0 0.0 15.683615695182494" Properties=species:S:1:pos:R:3:spacegroup_kinds:I:1:forces:R:3 spacegroup="P 1" unit_cell=conventional occupancy="_JSON {\"0\": {\"In\": 1}, \"1\": {\"In\": 1}, \"2\": {\"In\": 1}, \"3\": {\"In\": 1}, \"4\": {\"In\": 1}, \"5\": {\"In\": 1}, \"6\": {\"In\": 1}, \"7\": {\"In\": 1}, \"8\": {\"In\": 1}, \"9\": {\"In\": 1}, \"10\": {\"In\": 1}, \"11\": {\"In\": 1}, \"12\": {\"In\": 1}, \"13\": {\"In\": 1}, \"14\": {\"In\": 1}, \"15\": {\"In\": 1}, \"16\": {\"O\": 1}, \"17\": {\"O\": 1}, \"18\": {\"O\": 1}, \"19\": {\"O\": 1}, \"20\": {\"O\": 1}, \"21\": {\"O\": 1}, \"22\": {\"O\": 1}, \"23\": {\"O\": 1}, \"24\": {\"O\": 1}, \"25\": {\"O\": 1}, \"26\": {\"O\": 1}, \"27\": {\"O\": 1}, \"28\": {\"O\": 1}, \"29\": {\"O\": 1}, \"30\": {\"O\": 1}, \"31\": {\"O\": 1}, \"32\": {\"O\": 1}, \"33\": {\"O\": 1}, \"34\": {\"O\": 1}, \"35\": {\"O\": 1}, \"36\": {\"O\": 1}, \"37\": {\"O\": 1}, \"38\": {\"O\": 1}, \"39\": {\"O\": 1}}" n_minim_iter=17 energy=-45149.90128097131 stress="-0.023256869508269603 1.6388473142170336e-12 -1.2974436750641476e-12 1.6388473142170336e-12 -0.023208036616864054 -1.018613827535233e-12 -1.2974436750641476e-12 -1.018613827535233e-12 -0.0234377144880225" free_energy=-45149.90128097131 pbc="T T T"
In       2.73395049       4.46966385       8.94379460        0      -0.00170289      -0.00061990       0.00378535
In       0.00259898       3.96605072       6.73982110        1      -0.00170289       0.00061990      -0.00378535
In       2.72875253       1.65775899      14.58162894        2       0.00170289      -0.00061990      -0.00378535
In       5.46010404       1.15414587       1.10198675        3       0.00170289       0.00061990       0.00378535
In       2.72875253       1.15414587       6.73982110        4       0.00170289       0.00061990      -0.00378535
In       5.46010404       1.65775899       8.94379460        5       0.00170289      -0.00061990       0.00378535
In       2.73395049       3.96605072       1.10198675        6      -0.00170289       0.00061990       0.00378535
In       0.00259898       4.46966385      14.58162894        7      -0.00170289      -0.00061990      -0.00378535
In       2.71246843       4.21031842      12.80770068        8       0.00461871       0.00316603      -0.00024903
In       5.44381994       4.22539615       2.87591501        9       0.00461871      -0.00316603       0.00024903
In       2.75023459       1.39841356      10.71772286       10      -0.00461871       0.00316603       0.00024904
In       0.01888308       1.41349129       4.96589283       11      -0.00461871      -0.00316603      -0.00024904
In       2.75023459       1.41349129       2.87591501       12      -0.00461871      -0.00316603       0.00024904
In       0.01888308       1.39841356      12.80770068       13      -0.00461871       0.00316603      -0.00024903
In       2.71246843       4.22539615       4.96589283       14       0.00461871      -0.00316603      -0.00024904
In       5.44381994       4.21031842      10.71772286       15       0.00461871       0.00316603       0.00024903
O        4.69057410       4.97747376      12.54997298       16       0.00341204       0.00393798       0.00321098
O        1.95922259       3.45824081       3.13364271       17       0.00341204      -0.00393798      -0.00321098
O        0.77212891       2.16556890      10.97545056       18      -0.00341204       0.00393798      -0.00321098
O        3.50348042       0.64633596       4.70816514       19      -0.00341204      -0.00393798       0.00321098
O        0.77212891       0.64633596       3.13364271       20      -0.00341203      -0.00393798      -0.00321098
O        3.50348042       2.16556890      12.54997298       21      -0.00341204       0.00393798       0.00321098
O        4.69057410       3.45824081       4.70816514       22       0.00341203      -0.00393798       0.00321098
O        1.95922259       4.97747376      10.97545056       23       0.00341203       0.00393798      -0.00321098
O        3.89420276       2.95838437       9.81376757       24       0.00136044       0.00270849      -0.00562730
O        1.16285126       5.47733020       5.86984813       25       0.00136044      -0.00270849       0.00562730
O        1.56850025       0.14647951      13.71165598       26      -0.00136044       0.00270849       0.00562730
O        4.29985176       2.66542534       1.97195972       27      -0.00136044      -0.00270849      -0.00562730
O        1.56850025       2.66542534       5.86984813       28      -0.00136044      -0.00270849       0.00562730
O        4.29985176       0.14647951       9.81376757       29      -0.00136044       0.00270849      -0.00562730
O        3.89420276       5.47733020       1.97195972       30       0.00136044      -0.00270849      -0.00562730
O        1.16285126       2.95838437      13.71165598       31       0.00136044       0.00270849       0.00562730
O        3.51859578       3.69909298      14.84105379       32      -0.00202002      -0.00365887       0.00515838
O        0.78724427       4.73662159       0.84256191       33      -0.00202002       0.00365887      -0.00515838
O        1.94410723       0.88718812       8.68436975       34       0.00202002      -0.00365887      -0.00515838
O        4.67545874       1.92471673       6.99924594       35       0.00202002       0.00365887       0.00515838
O        1.94410723       1.92471673       0.84256191       36       0.00202002       0.00365887      -0.00515838
O        4.67545874       0.88718812      14.84105379       37       0.00202002      -0.00365887       0.00515838
O        3.51859578       4.73662159       6.99924594       38      -0.00202002       0.00365887       0.00515838
O        0.78724427       3.69909298       8.68436975       39      -0.00202002      -0.00365887      -0.00515838
