40
Lattice="5.263586032916359 7.733803720756768e-42 -1.067175887603946e-75 -2.4083830698236422e-42 5.106139755560148 -4.689631709020613e-34 -5.1490098414980286e-77 4.29427341863267e-33 14.535484334968551" Properties=species:S:1:pos:R:3:spacegroup_kinds:I:1:forces:R:3 spacegroup="P 1" unit_cell=conventional occupancy="_JSON {\"0\": {\"In\": 1}, \"1\": {\"In\": 1}, \"2\": {\"In\": 1}, \"3\": {\"In\": 1}, \"4\": {\"In\": 1}, \"5\": {\"In\": 1}, \"6\": {\"In\": 1}, \"7\": {\"In\": 1}, \"8\": {\"In\": 1}, \"9\": {\"In\": 1}, \"10\": {\"In\": 1}, \"11\": {\"In\": 1}, \"12\": {\"In\": 1}, \"13\": {\"In\": 1}, \"14\": {\"In\": 1}, \"15\": {\"In\": 1}, \"16\": {\"O\": 1}, \"17\": {\"O\": 1}, \"18\": {\"O\": 1}, \"19\": {\"O\": 1}, \"20\": {\"O\": 1}, \"21\": {\"O\": 1}, \"22\": {\"O\": 1}, \"23\": {\"O\": 1}, \"24\": {\"O\": 1}, \"25\": {\"O\": 1}, \"26\": {\"O\": 1}, \"27\": {\"O\": 1}, \"28\": {\"O\": 1}, \"29\": {\"O\": 1}, \"30\": {\"O\": 1}, \"31\": {\"O\": 1}, \"32\": {\"O\": 1}, \"33\": {\"O\": 1}, \"34\": {\"O\": 1}, \"35\": {\"O\": 1}, \"36\": {\"O\": 1}, \"37\": {\"O\": 1}, \"38\": {\"O\": 1}, \"39\": {\"O\": 1}}" n_minim_iter=40 energy=-45156.42932106041 stress="0.1150671000731769 -1.9044530591203535e-12 3.604762566258065e-12 -1.9044530591203535e-12 0.11505779662794051 -6.282233244597226e-13 3.604762566258065e-12 -6.282233244597226e-13 0.11496630533541073" free_energy=-45156.42932106041 pbc="T T T"
In       2.65846818       4.09424118       8.12430600        0      -0.00098819       0.00306985       0.00644909
In       0.02667516       3.56496846       6.41117833        1      -0.00098819      -0.00306985      -0.00644909
In       2.60511785       1.54117130      13.67892050        2       0.00098819       0.00306985      -0.00644909
In       5.23691087       1.01189858       0.85656384        3       0.00098819      -0.00306985       0.00644909
In       2.60511785       1.01189858       6.41117833        4       0.00098819      -0.00306985      -0.00644909
In       5.23691087       1.54117130       8.12430600        5       0.00098819       0.00306985       0.00644909
In       2.65846818       3.56496846       0.85656384        6      -0.00098819      -0.00306985       0.00644909
In       0.02667516       4.09424118      13.67892050        7      -0.00098819       0.00306985      -0.00644909
In       2.65058966       3.98231153      11.88280845        8      -0.00389642      -0.00039905      -0.00065840
In       5.28238267       3.67689810       2.65267588        9      -0.00389642       0.00039905       0.00065840
In       2.61299638       1.42924165       9.92041805       10       0.00389642      -0.00039905       0.00065840
In      -0.01879664       1.12382823       4.61506629       11       0.00389642       0.00039905      -0.00065840
In       2.61299638       1.12382823       2.65267588       12       0.00389642       0.00039905       0.00065840
In      -0.01879664       1.42924165      11.88280845       13       0.00389642      -0.00039905      -0.00065840
In       2.65058966       3.67689810       4.61506629       14      -0.00389642       0.00039905      -0.00065840
In       5.28238267       3.98231153       9.92041805       15      -0.00389642      -0.00039905       0.00065840
O        4.62205963       4.50307645      11.72346640       16       0.00148711      -0.00385188      -0.00089986
O        1.99026661       3.15613318       2.81201794       17       0.00148711       0.00385188       0.00089986
O        0.64152640       1.95000658      10.07976010       18      -0.00148711      -0.00385188       0.00089986
O        3.27331942       0.60306330       4.45572423       19      -0.00148711       0.00385188      -0.00089986
O        0.64152640       0.60306330       2.81201794       20      -0.00148711       0.00385188       0.00089986
O        3.27331942       1.95000658      11.72346640       21      -0.00148711      -0.00385188      -0.00089986
O        4.62205963       3.15613318       4.45572423       22       0.00148711       0.00385188      -0.00089986
O        1.99026661       4.50307645      10.07976010       23       0.00148711      -0.00385188       0.00089986
O        3.84966399       2.77752586       8.94906581       24       0.00488777       0.00563964       0.00274117
O        1.21787097       4.88168377       5.58641852       25       0.00488777      -0.00563964      -0.00274117
O        1.41392205       0.22445598      12.85416069       26      -0.00488777       0.00563964      -0.00274117
O        4.04571506       2.32861390       1.68132364       27      -0.00488777      -0.00563964       0.00274117
O        1.41392205       2.32861390       5.58641852       28      -0.00488777      -0.00563964      -0.00274117
O        4.04571506       0.22445598       8.94906581       29      -0.00488777       0.00563964       0.00274117
O        3.84966399       4.88168377       1.68132364       30       0.00488777      -0.00563964       0.00274117
O        1.21787097       2.77752586      12.85416069       31       0.00488777       0.00563964      -0.00274117
O        3.48961538       3.35973825      13.61472991       32      -0.00509630       0.00065323       0.00225207
O        0.85782236       4.29947139       0.92075443       33      -0.00509630      -0.00065323      -0.00225207
O        1.77397066       0.80666837       8.18849659       34       0.00509630       0.00065323      -0.00225207
O        4.40576367       1.74640151       6.34698774       35       0.00509630      -0.00065323       0.00225207
O        1.77397066       1.74640151       0.92075443       36       0.00509630      -0.00065323      -0.00225207
O        4.40576367       0.80666837      13.61472991       37       0.00509630       0.00065323       0.00225207
O        3.48961538       4.29947139       6.34698774       38      -0.00509630      -0.00065323       0.00225207
O        0.85782236       3.35973825       8.18849659       39      -0.00509630       0.00065323      -0.00225207
