40
Lattice="5.453448803004116 -3.4033524652454124e-42 0.0 -6.831916911895885e-42 5.30874719990827 0.0 0.0 0.0 15.742997806490683" Properties=species:S:1:pos:R:3:spacegroup_kinds:I:1:forces:R:3 spacegroup="P 1" unit_cell=conventional occupancy="_JSON {\"0\": {\"In\": 1}, \"1\": {\"In\": 1}, \"2\": {\"In\": 1}, \"3\": {\"In\": 1}, \"4\": {\"In\": 1}, \"5\": {\"In\": 1}, \"6\": {\"In\": 1}, \"7\": {\"In\": 1}, \"8\": {\"In\": 1}, \"9\": {\"In\": 1}, \"10\": {\"In\": 1}, \"11\": {\"In\": 1}, \"12\": {\"In\": 1}, \"13\": {\"In\": 1}, \"14\": {\"In\": 1}, \"15\": {\"In\": 1}, \"16\": {\"O\": 1}, \"17\": {\"O\": 1}, \"18\": {\"O\": 1}, \"19\": {\"O\": 1}, \"20\": {\"O\": 1}, \"21\": {\"O\": 1}, \"22\": {\"O\": 1}, \"23\": {\"O\": 1}, \"24\": {\"O\": 1}, \"25\": {\"O\": 1}, \"26\": {\"O\": 1}, \"27\": {\"O\": 1}, \"28\": {\"O\": 1}, \"29\": {\"O\": 1}, \"30\": {\"O\": 1}, \"31\": {\"O\": 1}, \"32\": {\"O\": 1}, \"33\": {\"O\": 1}, \"34\": {\"O\": 1}, \"35\": {\"O\": 1}, \"36\": {\"O\": 1}, \"37\": {\"O\": 1}, \"38\": {\"O\": 1}, \"39\": {\"O\": 1}}" n_minim_iter=28 energy=-45150.59484701898 stress="0.06378812767380818 -8.581932202064965e-13 -2.635698513742648e-12 -8.581932202064965e-13 0.06356761281281065 8.359672623243808e-13 -2.635698513742648e-12 8.359672623243808e-13 0.0639150737938702" free_energy=-45150.59484701898 pbc="T T T"
In       2.91142881       4.08125237       8.91106790        0      -0.00086557       0.00009193      -0.00179083
In       0.18470441       3.88186843       6.83192991        1      -0.00086557      -0.00009193       0.00179083
In       2.54201999       1.42687877      14.70342881        2       0.00086557       0.00009193       0.00179083
In       5.26874439       1.22749483       1.03956900        3       0.00086557      -0.00009193      -0.00179083
In       2.54201999       1.22749483       6.83192991        4       0.00086557      -0.00009193       0.00179083
In       5.26874439       1.42687877       8.91106790        5       0.00086557       0.00009193      -0.00179083
In       2.91142881       3.88186843       1.03956900        6      -0.00086557      -0.00009193      -0.00179083
In       0.18470441       4.08125237      14.70342881        7      -0.00086557       0.00009193       0.00179083
In       2.89526655       3.97545057      12.86527418        8       0.00149644       0.00124900      -0.00479724
In       5.62199095       3.98767023       2.87772363        9       0.00149644      -0.00124900       0.00479724
In       2.55818225       1.32107697      10.74922253       10      -0.00149644       0.00124900       0.00479724
In      -0.16854215       1.33329663       4.99377528       11      -0.00149644      -0.00124900      -0.00479724
In       2.55818225       1.33329663       2.87772363       12      -0.00149644      -0.00124900       0.00479724
In      -0.16854215       1.32107697      12.86527418       13      -0.00149644       0.00124900      -0.00479724
In       2.89526655       3.98767023       4.99377528       14       0.00149644      -0.00124900      -0.00479724
In       5.62199095       3.97545057      10.74922253       15       0.00149644       0.00124900       0.00479724
O        4.88421174       4.51010563      12.62749289       16       0.00621289       0.00247286      -0.00664680
O        2.15748734       3.45301517       3.11550492       17       0.00621289      -0.00247286       0.00664680
O        0.56923706       1.85573203      10.98700382       18      -0.00621289       0.00247286       0.00664680
O        3.29596146       0.79864157       4.75599399       19      -0.00621289      -0.00247286      -0.00664680
O        0.56923706       0.79864157       3.11550492       20      -0.00621289      -0.00247286       0.00664680
O        3.29596146       1.85573203      12.62749289       21      -0.00621289       0.00247286      -0.00664680
O        4.88421174       3.45301517       4.75599399       22       0.00621289      -0.00247286      -0.00664680
O        2.15748734       4.51010563      10.98700382       23       0.00621289       0.00247286       0.00664680
O        3.94996567       2.68587740       9.96972240       24       0.00132503      -0.00071260      -0.00153634
O        1.22324126       5.27724340       5.77327541       25       0.00132503       0.00071260       0.00153634
O        1.50348314       0.03150380      13.64477431       26      -0.00132503      -0.00071260       0.00153634
O        4.23020754       2.62286980       2.09822349       27      -0.00132503       0.00071260      -0.00153634
O        1.50348314       2.62286980       5.77327541       28      -0.00132503       0.00071260       0.00153634
O        4.23020754       0.03150380       9.96972240       29      -0.00132503      -0.00071260      -0.00153634
O        3.94996567       5.27724340       2.09822349       30       0.00132503       0.00071260      -0.00153634
O        1.22324126       2.68587740      13.64477431       31       0.00132503      -0.00071260       0.00153634
O        3.63822627       3.34486645      14.84978089       32       0.00835251       0.00437985      -0.00272093
O        0.91150187       4.61825435       0.89321692       33       0.00835251      -0.00437985       0.00272093
O        1.81522253       0.69049285       8.76471582       34      -0.00835251       0.00437985       0.00272093
O        4.54194693       1.96388075       6.97828199       35      -0.00835251      -0.00437985      -0.00272093
O        1.81522253       1.96388075       0.89321692       36      -0.00835251      -0.00437985       0.00272093
O        4.54194693       0.69049285      14.84978089       37      -0.00835251       0.00437985      -0.00272093
O        3.63822627       4.61825435       6.97828199       38       0.00835251      -0.00437985      -0.00272093
O        0.91150187       3.34486645       8.76471582       39       0.00835251       0.00437985       0.00272093
