40
Lattice="5.321432269493118 7.818797380378069e-42 -1.0789040342471857e-75 -2.4348509371584318e-42 5.1622556747162145 -4.741170250159947e-34 -5.205596898224131e-77 4.341467015269274e-33 14.695227722906015" Properties=species:S:1:pos:R:3:spacegroup_kinds:I:1:forces:R:3 spacegroup="P 1" unit_cell=conventional occupancy="_JSON {\"0\": {\"In\": 1}, \"1\": {\"In\": 1}, \"2\": {\"In\": 1}, \"3\": {\"In\": 1}, \"4\": {\"In\": 1}, \"5\": {\"In\": 1}, \"6\": {\"In\": 1}, \"7\": {\"In\": 1}, \"8\": {\"In\": 1}, \"9\": {\"In\": 1}, \"10\": {\"In\": 1}, \"11\": {\"In\": 1}, \"12\": {\"In\": 1}, \"13\": {\"In\": 1}, \"14\": {\"In\": 1}, \"15\": {\"In\": 1}, \"16\": {\"O\": 1}, \"17\": {\"O\": 1}, \"18\": {\"O\": 1}, \"19\": {\"O\": 1}, \"20\": {\"O\": 1}, \"21\": {\"O\": 1}, \"22\": {\"O\": 1}, \"23\": {\"O\": 1}, \"24\": {\"O\": 1}, \"25\": {\"O\": 1}, \"26\": {\"O\": 1}, \"27\": {\"O\": 1}, \"28\": {\"O\": 1}, \"29\": {\"O\": 1}, \"30\": {\"O\": 1}, \"31\": {\"O\": 1}, \"32\": {\"O\": 1}, \"33\": {\"O\": 1}, \"34\": {\"O\": 1}, \"35\": {\"O\": 1}, \"36\": {\"O\": 1}, \"37\": {\"O\": 1}, \"38\": {\"O\": 1}, \"39\": {\"O\": 1}}" n_minim_iter=40 energy=-45156.42932106041 stress="0.1150671000731769 -1.9044530591203535e-12 3.604762566258065e-12 -1.9044530591203535e-12 0.11505779662794051 -6.282233244597226e-13 3.604762566258065e-12 -6.282233244597226e-13 0.11496630533541073" free_energy=-45156.42932106041 pbc="T T T"
In       2.68768445       4.13923644       8.21359124        0      -0.00098819       0.00306985       0.00644909
In       0.02696832       3.60414707       6.48163648        1      -0.00098819      -0.00306985      -0.00644909
In       2.63374781       1.55810860      13.82925034        2       0.00098819       0.00306985      -0.00644909
In       5.29446395       1.02301924       0.86597738        3       0.00098819      -0.00306985       0.00644909
In       2.63374781       1.02301924       6.48163648        4       0.00098819      -0.00306985      -0.00644909
In       5.29446395       1.55810860       8.21359124        5       0.00098819       0.00306985       0.00644909
In       2.68768445       3.60414707       0.86597738        6      -0.00098819      -0.00306985       0.00644909
In       0.02696832       4.13923644      13.82925034        7      -0.00098819       0.00306985      -0.00644909
In       2.67971935       4.02607670      12.01339922        8      -0.00389642      -0.00039905      -0.00065840
In       5.34043548       3.71730681       2.68182850        9      -0.00389642       0.00039905       0.00065840
In       2.64171292       1.44494886      10.02944236       10       0.00389642      -0.00039905       0.00065840
In      -0.01900321       1.13617898       4.66578536       11       0.00389642       0.00039905      -0.00065840
In       2.64171292       1.13617898       2.68182850       12       0.00389642       0.00039905       0.00065840
In      -0.01900321       1.44494886      12.01339922       13       0.00389642      -0.00039905      -0.00065840
In       2.67971935       3.71730681       4.66578536       14      -0.00389642       0.00039905      -0.00065840
In       5.34043548       4.02607670      10.02944236       15      -0.00389642      -0.00039905       0.00065840
O        4.67285556       4.55256477      11.85230602       16       0.00148711      -0.00385188      -0.00089986
O        2.01213943       3.19081874       2.84292171       17       0.00148711       0.00385188       0.00089986
O        0.64857671       1.97143693      10.19053557       18      -0.00148711      -0.00385188       0.00089986
O        3.30929284       0.60969090       4.50469215       19      -0.00148711       0.00385188      -0.00089986
O        0.64857671       0.60969090       2.84292171       20      -0.00148711       0.00385188       0.00089986
O        3.30929284       1.97143693      11.85230602       21      -0.00148711      -0.00385188      -0.00089986
O        4.67285556       3.19081874       4.50469215       22       0.00148711       0.00385188      -0.00089986
O        2.01213943       4.55256477      10.19053557       23       0.00148711      -0.00385188       0.00089986
O        3.89197137       2.80805057       9.04741507       24       0.00488777       0.00563964       0.00274117
O        1.23125524       4.93533295       5.64781265       25       0.00488777      -0.00563964      -0.00274117
O        1.42946090       0.22692273      12.99542651       26      -0.00488777       0.00563964      -0.00274117
O        4.09017703       2.35420511       1.69980121       27      -0.00488777      -0.00563964       0.00274117
O        1.42946090       2.35420511       5.64781265       28      -0.00488777      -0.00563964      -0.00274117
O        4.09017703       0.22692273       9.04741507       29      -0.00488777       0.00563964       0.00274117
O        3.89197137       4.93533295       1.69980121       30       0.00488777      -0.00563964       0.00274117
O        1.23125524       2.80805057      12.99542651       31       0.00488777       0.00563964      -0.00274117
O        3.52796587       3.39666140      13.76435431       32      -0.00509630       0.00065323       0.00225207
O        0.86724973       4.34672211       0.93087342       33      -0.00509630      -0.00065323      -0.00225207
O        1.79346640       0.81553357       8.27848728       34       0.00509630       0.00065323      -0.00225207
O        4.45418254       1.76559427       6.41674044       35       0.00509630      -0.00065323       0.00225207
O        1.79346640       1.76559427       0.93087342       36       0.00509630      -0.00065323      -0.00225207
O        4.45418254       0.81553357      13.76435431       37       0.00509630       0.00065323       0.00225207
O        3.52796587       4.34672211       6.41674044       38      -0.00509630      -0.00065323       0.00225207
O        0.86724973       3.39666140       8.27848728       39      -0.00509630       0.00065323      -0.00225207
