40
Lattice="5.62835592343019 7.200617463514182e-42 0.0 -1.8114984781656594e-42 5.802221057283269 0.0 0.0 0.0 16.348981724862934" Properties=species:S:1:pos:R:3:spacegroup_kinds:I:1:forces:R:3 spacegroup="P 1" unit_cell=conventional occupancy="_JSON {\"0\": {\"In\": 1}, \"1\": {\"In\": 1}, \"2\": {\"In\": 1}, \"3\": {\"In\": 1}, \"4\": {\"In\": 1}, \"5\": {\"In\": 1}, \"6\": {\"In\": 1}, \"7\": {\"In\": 1}, \"8\": {\"In\": 1}, \"9\": {\"In\": 1}, \"10\": {\"In\": 1}, \"11\": {\"In\": 1}, \"12\": {\"In\": 1}, \"13\": {\"In\": 1}, \"14\": {\"In\": 1}, \"15\": {\"In\": 1}, \"16\": {\"O\": 1}, \"17\": {\"O\": 1}, \"18\": {\"O\": 1}, \"19\": {\"O\": 1}, \"20\": {\"O\": 1}, \"21\": {\"O\": 1}, \"22\": {\"O\": 1}, \"23\": {\"O\": 1}, \"24\": {\"O\": 1}, \"25\": {\"O\": 1}, \"26\": {\"O\": 1}, \"27\": {\"O\": 1}, \"28\": {\"O\": 1}, \"29\": {\"O\": 1}, \"30\": {\"O\": 1}, \"31\": {\"O\": 1}, \"32\": {\"O\": 1}, \"33\": {\"O\": 1}, \"34\": {\"O\": 1}, \"35\": {\"O\": 1}, \"36\": {\"O\": 1}, \"37\": {\"O\": 1}, \"38\": {\"O\": 1}, \"39\": {\"O\": 1}}" n_minim_iter=19 energy=-45150.211813547445 stress="0.014757796639320942 -2.8973901124906107e-12 4.021134241262376e-13 -2.8973901124906107e-12 0.014834009940067476 5.074171194850072e-14 4.021134241262376e-13 5.074171194850072e-14 0.014954316212689575" free_energy=-45150.211813547445 pbc="T T T"
In       2.81436714       4.66472619       9.33812786        0       0.00106290       0.00408666      -0.00027284
In       0.00018917       4.03860540       7.01085387        1       0.00106290      -0.00408666       0.00027284
In       2.81398879       1.76361566      15.18534473        2      -0.00106290       0.00408666       0.00027284
In       5.62816675       1.13749487       1.16363699        3      -0.00106290      -0.00408666      -0.00027284
In       2.81398879       1.13749487       7.01085387        4      -0.00106290      -0.00408666       0.00027284
In       5.62816675       1.76361566       9.33812786        5      -0.00106290       0.00408666      -0.00027284
In       2.81436714       4.03860540       1.16363699        6       0.00106290      -0.00408666      -0.00027284
In       0.00018917       4.66472619      15.18534473        7       0.00106290       0.00408666       0.00027284
In       2.80078303       4.36193208      13.38770502        8       0.00007315       0.00163560      -0.00720845
In       5.61496099       4.34139950       2.96127671        9       0.00007315      -0.00163560       0.00720845
In       2.82757289       1.46082155      11.13576757       10      -0.00007315       0.00163560       0.00720845
In       0.01339493       1.44028898       5.21321415       11      -0.00007315      -0.00163560      -0.00720845
In       2.82757289       1.44028898       2.96127671       12      -0.00007315      -0.00163560       0.00720845
In       0.01339493       1.46082155      13.38770502       13      -0.00007315       0.00163560      -0.00720845
In       2.80078303       4.34139950       5.21321415       14       0.00007315      -0.00163560      -0.00720845
In       5.61496099       4.36193208      11.13576757       15       0.00007315       0.00163560       0.00720845
O        4.84139373       5.13634147      13.03629234       16      -0.00114215      -0.00599677      -0.00029931
O        2.02721576       3.56699011       3.31268939       17      -0.00114215       0.00599677       0.00029931
O        0.78696220       2.23523094      11.48718025       18       0.00114215      -0.00599677       0.00029931
O        3.60114016       0.66587959       4.86180147       19       0.00114215       0.00599677      -0.00029931
O        0.78696220       0.66587959       3.31268939       20       0.00114215       0.00599677       0.00029931
O        3.60114016       2.23523094      13.03629234       21       0.00114215      -0.00599677      -0.00029931
O        4.84139373       3.56699011       4.86180147       22      -0.00114215       0.00599677      -0.00029931
O        2.02721576       5.13634147      11.48718025       23      -0.00114215      -0.00599677       0.00029931
O        3.97126506       3.07840955      10.19157253       24       0.00610303      -0.00518533      -0.00586866
O        1.15708710       5.62492203       6.15740920       25       0.00610303       0.00518533       0.00586866
O        1.65709087       0.17729902      14.33190006       26      -0.00610303      -0.00518533       0.00586866
O        4.47126883       2.72381151       2.01708166       27      -0.00610303       0.00518533      -0.00586866
O        1.65709087       2.72381151       6.15740920       28      -0.00610303       0.00518533       0.00586866
O        4.47126883       0.17729902      10.19157253       29      -0.00610303      -0.00518533      -0.00586866
O        3.97126506       5.62492203       2.01708166       30       0.00610303       0.00518533      -0.00586866
O        1.15708710       3.07840955      14.33190006       31       0.00610303      -0.00518533       0.00586866
O        3.64707641       3.85743399      15.49839235       32       0.00155610       0.00531549      -0.00365411
O        0.83289845       4.84589760       0.85058937       33       0.00155611      -0.00531549       0.00365411
O        1.98127951       0.95632346       9.02508024       34      -0.00155610       0.00531549       0.00365411
O        4.79545747       1.94478707       7.32390149       35      -0.00155611      -0.00531549      -0.00365411
O        1.98127951       1.94478707       0.85058937       36      -0.00155611      -0.00531549       0.00365411
O        4.79545747       0.95632346      15.49839235       37      -0.00155611       0.00531549      -0.00365411
O        3.64707641       4.84589760       7.32390149       38       0.00155611      -0.00531549      -0.00365411
O        0.83289845       3.85743399       9.02508024       39       0.00155611       0.00531549       0.00365411
