40
Lattice="5.506123640736873 2.2784723045966243e-42 0.0 -1.2328801671507016e-42 5.678303778542227 0.0 0.0 0.0 15.827112538428057" Properties=species:S:1:pos:R:3:spacegroup_kinds:I:1:forces:R:3 spacegroup="P 1" unit_cell=conventional occupancy="_JSON {\"0\": {\"In\": 1}, \"1\": {\"In\": 1}, \"2\": {\"In\": 1}, \"3\": {\"In\": 1}, \"4\": {\"In\": 1}, \"5\": {\"In\": 1}, \"6\": {\"In\": 1}, \"7\": {\"In\": 1}, \"8\": {\"In\": 1}, \"9\": {\"In\": 1}, \"10\": {\"In\": 1}, \"11\": {\"In\": 1}, \"12\": {\"In\": 1}, \"13\": {\"In\": 1}, \"14\": {\"In\": 1}, \"15\": {\"In\": 1}, \"16\": {\"O\": 1}, \"17\": {\"O\": 1}, \"18\": {\"O\": 1}, \"19\": {\"O\": 1}, \"20\": {\"O\": 1}, \"21\": {\"O\": 1}, \"22\": {\"O\": 1}, \"23\": {\"O\": 1}, \"24\": {\"O\": 1}, \"25\": {\"O\": 1}, \"26\": {\"O\": 1}, \"27\": {\"O\": 1}, \"28\": {\"O\": 1}, \"29\": {\"O\": 1}, \"30\": {\"O\": 1}, \"31\": {\"O\": 1}, \"32\": {\"O\": 1}, \"33\": {\"O\": 1}, \"34\": {\"O\": 1}, \"35\": {\"O\": 1}, \"36\": {\"O\": 1}, \"37\": {\"O\": 1}, \"38\": {\"O\": 1}, \"39\": {\"O\": 1}}" n_minim_iter=8 energy=-45150.175820298384 stress="-0.01655577129633766 -2.6102758511528924e-12 -1.3180047725800944e-12 -2.6102758511528924e-12 -0.016560943105820267 -4.478200638409102e-12 -1.3180047725800944e-12 -4.478200638409102e-12 -0.016628645053472762" free_energy=-45150.175820298384 pbc="T T T"
In       2.75362727       4.52363185       9.02728752        0       0.00626410       0.00048110       0.00406454
In       0.00056545       3.99382381       6.79982502        1       0.00626410      -0.00048110      -0.00406454
In       2.75249637       1.68447996      14.71338129        2      -0.00626409       0.00048110      -0.00406454
In       5.50555819       1.15467193       1.11373125        3      -0.00626410      -0.00048110       0.00406454
In       2.75249637       1.15467193       6.79982502        4      -0.00626410      -0.00048110      -0.00406454
In       5.50555819       1.68447996       9.02728752        5      -0.00626410       0.00048110       0.00406454
In       2.75362727       3.99382381       1.11373125        6       0.00626410      -0.00048110       0.00406454
In       0.00056545       4.52363185      14.71338129        7       0.00626409       0.00048110      -0.00406454
In       2.74023856       4.23964355      12.93962569        8      -0.00026483      -0.00284256      -0.00191315
In       5.49330038       4.27781212       2.88748685        9      -0.00026483       0.00284256       0.00191315
In       2.76588508       1.40049166      10.80104312       10       0.00026483      -0.00284256       0.00191315
In       0.01282326       1.43866023       5.02606942       11       0.00026483       0.00284256      -0.00191315
In       2.76588508       1.43866023       2.88748685       12       0.00026483       0.00284256       0.00191315
In       0.01282326       1.40049166      12.93962569       13       0.00026483      -0.00284256      -0.00191315
In       2.74023856       4.27781212       5.02606942       14      -0.00026483       0.00284256      -0.00191315
In       5.49330038       4.23964355      10.80104312       15      -0.00026483      -0.00284256       0.00191315
O        4.73245620       5.00486709      12.64571762       16      -0.00131098       0.00375072       0.00163189
O        1.97939438       3.51258857       3.18139492       17      -0.00131098      -0.00375072      -0.00163189
O        0.77366744       2.16571521      11.09495119       18       0.00131098       0.00375072      -0.00163189
O        3.52672926       0.67343668       4.73216135       19       0.00131098      -0.00375072       0.00163189
O        0.77366744       0.67343668       3.18139492       20       0.00131098      -0.00375072      -0.00163189
O        3.52672926       2.16571521      12.64571762       21       0.00131098       0.00375072       0.00163189
O        4.73245620       3.51258857       4.73216135       22      -0.00131098      -0.00375072       0.00163189
O        1.97939438       5.00486709      11.09495119       23      -0.00131098       0.00375072      -0.00163189
O        3.90215098       2.98488099       9.89117365       24       0.00197514       0.00118006      -0.00080978
O        1.14908916       5.53257467       5.93593888       25       0.00197514      -0.00118006       0.00080978
O        1.60397266       0.14572910      13.84949515       26      -0.00197514       0.00118006       0.00080978
O        4.35703448       2.69342278       1.97761738       27      -0.00197514      -0.00118006      -0.00080978
O        1.60397266       2.69342278       5.93593888       28      -0.00197514      -0.00118006       0.00080978
O        4.35703448       0.14572910       9.89117365       29      -0.00197514       0.00118006      -0.00080978
O        3.90215098       5.53257467       1.97761738       30       0.00197514      -0.00118006      -0.00080978
O        1.14908916       2.98488099      13.84949515       31       0.00197514       0.00118006       0.00080978
O        3.55609823       3.73390357      14.98619689       32       0.00019598      -0.00059919       0.00238417
O        0.80303641       4.78355210       0.84091565       33       0.00019598       0.00059919      -0.00238417
O        1.95002541       0.89475168       8.75447192       34      -0.00019598      -0.00059919      -0.00238417
O        4.70308723       1.94440021       7.07264062       35      -0.00019598       0.00059919       0.00238417
O        1.95002541       1.94440021       0.84091565       36      -0.00019598       0.00059919      -0.00238417
O        4.70308723       0.89475168      14.98619689       37      -0.00019598      -0.00059919       0.00238417
O        3.55609823       4.78355210       7.07264062       38       0.00019598       0.00059919       0.00238417
O        0.80303641       3.73390357       8.75447192       39       0.00019598      -0.00059919      -0.00238417
