40
Lattice="5.51147973067821 7.970998564169102e-43 0.0 6.1761525416354e-42 5.674024957500374 0.0 0.0 0.0 15.8236553880243" Properties=species:S:1:pos:R:3:spacegroup_kinds:I:1:forces:R:3 spacegroup="P 1" unit_cell=conventional occupancy="_JSON {\"0\": {\"In\": 1}, \"1\": {\"In\": 1}, \"2\": {\"In\": 1}, \"3\": {\"In\": 1}, \"4\": {\"In\": 1}, \"5\": {\"In\": 1}, \"6\": {\"In\": 1}, \"7\": {\"In\": 1}, \"8\": {\"In\": 1}, \"9\": {\"In\": 1}, \"10\": {\"In\": 1}, \"11\": {\"In\": 1}, \"12\": {\"In\": 1}, \"13\": {\"In\": 1}, \"14\": {\"In\": 1}, \"15\": {\"In\": 1}, \"16\": {\"O\": 1}, \"17\": {\"O\": 1}, \"18\": {\"O\": 1}, \"19\": {\"O\": 1}, \"20\": {\"O\": 1}, \"21\": {\"O\": 1}, \"22\": {\"O\": 1}, \"23\": {\"O\": 1}, \"24\": {\"O\": 1}, \"25\": {\"O\": 1}, \"26\": {\"O\": 1}, \"27\": {\"O\": 1}, \"28\": {\"O\": 1}, \"29\": {\"O\": 1}, \"30\": {\"O\": 1}, \"31\": {\"O\": 1}, \"32\": {\"O\": 1}, \"33\": {\"O\": 1}, \"34\": {\"O\": 1}, \"35\": {\"O\": 1}, \"36\": {\"O\": 1}, \"37\": {\"O\": 1}, \"38\": {\"O\": 1}, \"39\": {\"O\": 1}}" n_minim_iter=17 energy=-45149.90128097131 stress="-0.023256869508269603 1.6388473142170336e-12 -1.2974436750641476e-12 1.6388473142170336e-12 -0.023208036616864054 -1.018613827535233e-12 -1.2974436750641476e-12 -1.018613827535233e-12 -0.0234377144880225" free_energy=-45149.90128097131 pbc="T T T"
In       2.75836205       4.50957367       9.02365413        0      -0.00170289      -0.00061990       0.00378535
In       0.00262218       4.00146376       6.80000125        1      -0.00170289       0.00061990      -0.00378535
In       2.75311768       1.67256119      14.71182895        2       0.00170289      -0.00061990      -0.00378535
In       5.50885755       1.16445129       1.11182644        3       0.00170289       0.00061990       0.00378535
In       2.75311768       1.16445129       6.80000125        4       0.00170289       0.00061990      -0.00378535
In       5.50885755       1.67256119       9.02365413        5       0.00170289      -0.00061990       0.00378535
In       2.75836205       4.00146376       1.11182644        6      -0.00170289       0.00061990       0.00378535
In       0.00262218       4.50957367      14.71182895        7      -0.00170289      -0.00061990      -0.00378535
In       2.73668818       4.24791254      12.92206120        8       0.00461871       0.00316603      -0.00024903
In       5.49242804       4.26312490       2.90159419        9       0.00461871      -0.00316603       0.00024903
In       2.77479155       1.41090006      10.81342188       10      -0.00461871       0.00316603       0.00024904
In       0.01905169       1.42611242       5.01023351       11      -0.00461871      -0.00316603      -0.00024904
In       2.77479155       1.42611242       2.90159419       12      -0.00461871      -0.00316603       0.00024904
In       0.01905169       1.41090006      12.92206120       13      -0.00461871       0.00316603      -0.00024903
In       2.73668818       4.26312490       5.01023351       14       0.00461871      -0.00316603      -0.00024904
In       5.49242804       4.24791254      10.81342188       15       0.00461871       0.00316603       0.00024903
O        4.73245644       5.02191784      12.66203224       16       0.00341204       0.00393798       0.00321098
O        1.97671658       3.48911960       3.16162315       17       0.00341204      -0.00393798      -0.00321098
O        0.77902329       2.18490536      11.07345084       18      -0.00341204       0.00393798      -0.00321098
O        3.53476315       0.65210712       4.75020455       19      -0.00341204      -0.00393798       0.00321098
O        0.77902329       0.65210712       3.16162315       20      -0.00341203      -0.00393798      -0.00321098
O        3.53476315       2.18490536      12.66203224       21      -0.00341204       0.00393798       0.00321098
O        4.73245644       3.48911960       4.75020455       22       0.00341203      -0.00393798       0.00321098
O        1.97671658       5.02191784      11.07345084       23       0.00341203       0.00393798      -0.00321098
O        3.92897427       2.98479991       9.90139513       24       0.00136044       0.00270849      -0.00562730
O        1.17323441       5.52623752       5.92226026       25       0.00136044      -0.00270849       0.00562730
O        1.58250546       0.14778744      13.83408795       26      -0.00136044       0.00270849       0.00562730
O        4.33824533       2.68922504       1.98956743       27      -0.00136044      -0.00270849      -0.00562730
O        1.58250546       2.68922504       5.92226026       28      -0.00136044      -0.00270849       0.00562730
O        4.33824533       0.14778744       9.90139513       29      -0.00136044       0.00270849      -0.00562730
O        3.92897427       5.52623752       1.98956743       30       0.00136044      -0.00270849      -0.00562730
O        1.17323441       2.98479991      13.83408795       31       0.00136044       0.00270849       0.00562730
O        3.55001348       3.73212234      14.97357021       32      -0.00202002      -0.00365887       0.00515838
O        0.79427361       4.77891509       0.85008518       33      -0.00202002       0.00365887      -0.00515838
O        1.96146625       0.89510986       8.76191287       34       0.00202002      -0.00365887      -0.00515838
O        4.71720612       1.94190262       7.06174252       35       0.00202002       0.00365887       0.00515838
O        1.96146625       1.94190262       0.85008518       36       0.00202002       0.00365887      -0.00515838
O        4.71720612       0.89510986      14.97357021       37       0.00202002      -0.00365887       0.00515838
O        3.55001348       4.77891509       7.06174252       38      -0.00202002       0.00365887       0.00515838
O        0.79427361       3.73212234       8.76191287       39      -0.00202002      -0.00365887      -0.00515838
