40
Lattice="5.394513367795803 6.895552888651551e-42 -4.881939428128978e-81 -6.754048509338924e-42 5.283811981245652 3.8599210238020937e-39 2.7721981877452826e-80 -1.1013568323361483e-38 15.076376926987795" Properties=species:S:1:pos:R:3:spacegroup_kinds:I:1:forces:R:3 spacegroup="P 1" unit_cell=conventional occupancy="_JSON {\"0\": {\"In\": 1}, \"1\": {\"In\": 1}, \"2\": {\"In\": 1}, \"3\": {\"In\": 1}, \"4\": {\"In\": 1}, \"5\": {\"In\": 1}, \"6\": {\"In\": 1}, \"7\": {\"In\": 1}, \"8\": {\"In\": 1}, \"9\": {\"In\": 1}, \"10\": {\"In\": 1}, \"11\": {\"In\": 1}, \"12\": {\"In\": 1}, \"13\": {\"In\": 1}, \"14\": {\"In\": 1}, \"15\": {\"In\": 1}, \"16\": {\"O\": 1}, \"17\": {\"O\": 1}, \"18\": {\"O\": 1}, \"19\": {\"O\": 1}, \"20\": {\"O\": 1}, \"21\": {\"O\": 1}, \"22\": {\"O\": 1}, \"23\": {\"O\": 1}, \"24\": {\"O\": 1}, \"25\": {\"O\": 1}, \"26\": {\"O\": 1}, \"27\": {\"O\": 1}, \"28\": {\"O\": 1}, \"29\": {\"O\": 1}, \"30\": {\"O\": 1}, \"31\": {\"O\": 1}, \"32\": {\"O\": 1}, \"33\": {\"O\": 1}, \"34\": {\"O\": 1}, \"35\": {\"O\": 1}, \"36\": {\"O\": 1}, \"37\": {\"O\": 1}, \"38\": {\"O\": 1}, \"39\": {\"O\": 1}}" n_minim_iter=1 energy=-45153.703926716546 stress="0.059362243110514745 -1.6648250681913298e-12 9.823559366512165e-13 -1.6648250681913298e-12 0.06482659034475394 2.0739410937907802e-12 9.823559366512165e-13 2.0739410937907802e-12 0.07580345809404082" free_energy=-45153.703926716546 pbc="T T T"
In       2.86715787       4.02730841       8.48572419        0      -0.27531027       0.01734174       0.11262861
In       0.16990118       3.89840957       6.59065274        1      -0.27531027      -0.01734174      -0.11262861
In       2.52735550       1.38540242      14.12884120        2       0.27531027       0.01734174      -0.11262861
In       5.22461218       1.25650358       0.94753572        3       0.27531027      -0.01734174       0.11262861
In       2.52735550       1.25650358       6.59065274        4       0.27531027      -0.01734174      -0.11262861
In       5.22461218       1.38540242       8.48572419        5       0.27531027       0.01734174       0.11262861
In       2.86715787       3.89840957       0.94753572        6      -0.27531027      -0.01734174       0.11262861
In       0.16990118       4.02730841      14.12884120        7      -0.27531027       0.01734174      -0.11262861
In       2.83382088       3.89303847      12.26796835        8      -0.16028139      -0.12771567      -0.02785868
In       5.53107756       4.03267950       2.80840858        9      -0.16028138       0.12771567       0.02785868
In       2.56069249       1.25113248      10.34659704       10       0.16028139      -0.12771567       0.02785868
In      -0.13656419       1.39077351       4.72977989       11       0.16028138       0.12771567      -0.02785868
In       2.56069249       1.39077351       2.80840858       12       0.16028139       0.12771567       0.02785868
In      -0.13656419       1.25113248      12.26796835       13       0.16028139      -0.12771567      -0.02785868
In       2.83382088       4.03267950       4.72977989       14      -0.16028139       0.12771567      -0.02785868
In       5.53107756       3.89303847      10.34659704       15      -0.16028139      -0.12771567       0.02785868
O        4.79558610       4.46704283      12.13814968       16      -0.13092754       0.09241073       0.09289921
O        2.09832941       3.45867514       2.93822724       17      -0.13092754      -0.09241073      -0.09289921
O        0.59892727       1.82513684      10.47641571       18       0.13092754       0.09241073      -0.09289921
O        3.29618395       0.81676915       4.59996122       19       0.13092754      -0.09241073       0.09289921
O        0.59892727       0.81676915       2.93822724       20       0.13092754      -0.09241073      -0.09289921
O        3.29618395       1.82513684      12.13814968       21       0.13092754       0.09241073       0.09289921
O        4.79558610       3.45867514       4.59996122       22      -0.13092755      -0.09241073       0.09289921
O        2.09832941       4.46704283      10.47641571       23      -0.13092754       0.09241073      -0.09289921
O        3.89878905       2.65059097       9.53350944       24      -0.00726779       0.03009897       0.01928696
O        1.20153237       5.27512701       5.54286749       25      -0.00726779      -0.03009897      -0.01928696
O        1.49572432       0.00868497      13.08105595       26       0.00726779       0.03009897      -0.01928696
O        4.19298100       2.63322102       1.99532098       27       0.00726779      -0.03009897       0.01928696
O        1.49572432       2.63322102       5.54286749       28       0.00726779      -0.03009897      -0.01928696
O        4.19298100       0.00868497       9.53350944       29       0.00726779       0.03009897       0.01928696
O        3.89878905       5.27512701       1.99532098       30      -0.00726779      -0.03009897       0.01928696
O        1.20153237       2.65059097      13.08105595       31      -0.00726779       0.03009897      -0.01928696
O        3.59054794       3.30899461      14.16816521       32      -0.07901692      -0.05077786      -0.15965133
O        0.89329126       4.61672336       0.90821172       33      -0.07901692       0.05077786       0.15965133
O        1.80396543       0.66708862       8.44640018       34       0.07901692      -0.05077786       0.15965133
O        4.50122211       1.97481737       6.62997674       35       0.07901692       0.05077786      -0.15965133
O        1.80396543       1.97481737       0.90821172       36       0.07901692       0.05077786       0.15965133
O        4.50122211       0.66708862      14.16816521       37       0.07901692      -0.05077786      -0.15965133
O        3.59054794       4.61672336       6.62997674       38      -0.07901692       0.05077786      -0.15965133
O        0.89329126       3.30899461       8.44640018       39      -0.07901692      -0.05077786       0.15965133
40
Lattice="5.413975160747646 6.915482625262414e-42 -7.156481868284015e-79 -6.764912001985648e-42 5.28860256370244 -5.265075295820444e-37 2.089277603877066e-80 -1.4589487588657644e-36 15.008573819368705" Properties=species:S:1:pos:R:3:spacegroup_kinds:I:1:forces:R:3 spacegroup="P 1" unit_cell=conventional occupancy="_JSON {\"0\": {\"In\": 1}, \"1\": {\"In\": 1}, \"2\": {\"In\": 1}, \"3\": {\"In\": 1}, \"4\": {\"In\": 1}, \"5\": {\"In\": 1}, \"6\": {\"In\": 1}, \"7\": {\"In\": 1}, \"8\": {\"In\": 1}, \"9\": {\"In\": 1}, \"10\": {\"In\": 1}, \"11\": {\"In\": 1}, \"12\": {\"In\": 1}, \"13\": {\"In\": 1}, \"14\": {\"In\": 1}, \"15\": {\"In\": 1}, \"16\": {\"O\": 1}, \"17\": {\"O\": 1}, \"18\": {\"O\": 1}, \"19\": {\"O\": 1}, \"20\": {\"O\": 1}, \"21\": {\"O\": 1}, \"22\": {\"O\": 1}, \"23\": {\"O\": 1}, \"24\": {\"O\": 1}, \"25\": {\"O\": 1}, \"26\": {\"O\": 1}, \"27\": {\"O\": 1}, \"28\": {\"O\": 1}, \"29\": {\"O\": 1}, \"30\": {\"O\": 1}, \"31\": {\"O\": 1}, \"32\": {\"O\": 1}, \"33\": {\"O\": 1}, \"34\": {\"O\": 1}, \"35\": {\"O\": 1}, \"36\": {\"O\": 1}, \"37\": {\"O\": 1}, \"38\": {\"O\": 1}, \"39\": {\"O\": 1}}" n_minim_iter=2 energy=-45153.72147850141 stress="0.06990961915424393 -2.2245743636115827e-12 5.607515761263814e-13 -2.2245743636115827e-12 0.06677456597805373 1.0838512936241258e-12 5.607515761263814e-13 1.0838512936241258e-12 0.0699375523153635" free_energy=-45153.72147850141 pbc="T T T"
In       2.87718461       4.03097970       8.44768995        0      -0.27807181      -0.01022583       0.12885339
In       0.17019703       3.90192415       6.56088387        1      -0.27807181       0.01022583      -0.12885339
In       2.53679055       1.38667841      14.06517078        2       0.27807181      -0.01022583      -0.12885339
In       5.24377813       1.25762287       0.94340304        3       0.27807181       0.01022583       0.12885339
In       2.53679055       1.25762287       6.56088387        4       0.27807181       0.01022583      -0.12885339
In       5.24377813       1.38667841       8.44768995        5       0.27807181      -0.01022583       0.12885339
In       2.87718461       3.90192415       0.94340304        6      -0.27807181       0.01022583       0.12885339
In       0.17019703       4.03097970      14.06517078        7      -0.27807181      -0.01022583      -0.12885339
In       2.84385984       3.89642140      12.21276369        8      -0.08963548      -0.13747297      -0.01050354
In       5.55084742       4.03648245       2.79581013        9      -0.08963548       0.13747297       0.01050354
In       2.57011532       1.25212012      10.30009704       10       0.08963548      -0.13747297       0.01050354
In      -0.13687226       1.39218116       4.70847678       11       0.08963548       0.13747297      -0.01050354
In       2.57011532       1.39218116       2.79581013       12       0.08963548       0.13747297       0.01050354
In      -0.13687226       1.25212012      12.21276369       13       0.08963548      -0.13747297      -0.01050354
In       2.84385984       4.03648245       4.70847678       14      -0.08963548       0.13747297      -0.01050354
In       5.55084742       3.89642140      10.30009704       15      -0.08963548      -0.13747297       0.01050354
O        4.81273634       4.47119904      12.08366683       16      -0.18061735       0.10381111       0.09507338
O        2.10574876       3.46170480       2.92490699       17      -0.18061735      -0.10381111      -0.09507338
O        0.60123882       1.82689776      10.42919390       18       0.18061735       0.10381111      -0.09507338
O        3.30822640       0.81740352       4.57937992       19       0.18061735      -0.10381111       0.09507338
O        0.60123882       0.81740352       2.92490699       20       0.18061735      -0.10381111      -0.09507338
O        3.30822640       1.82689776      12.08366683       21       0.18061735       0.10381111       0.09507338
O        4.81273634       3.46170480       4.57937992       22      -0.18061735      -0.10381111       0.09507338
O        2.10574876       4.47119904      10.42919390       23      -0.18061735       0.10381111      -0.09507338
O        3.91284635       2.65302871       9.49065635       24      -0.01701245       0.02186753       0.02093163
O        1.20585877       5.27987514       5.51791747       25      -0.01701245      -0.02186753      -0.02093163
O        1.50112881       0.00872742      13.02220438       26       0.01701245       0.02186753      -0.02093163
O        4.20811639       2.63557386       1.98636944       27       0.01701245      -0.02186753       0.02093163
O        1.50112881       2.63557386       5.51791747       28       0.01701245      -0.02186753      -0.02093163
O        4.20811639       0.00872742       9.49065635       29       0.01701245       0.02186753       0.02093163
O        3.91284635       5.27987514       1.98636944       30      -0.01701245      -0.02186753       0.02093163
O        1.20585877       2.65302871      13.02220438       31      -0.01701245       0.02186753      -0.02093163
O        3.60341055       3.31193639      14.10426420       32      -0.03526578      -0.01622135      -0.17323539
O        0.89642297       4.62096746       0.90430962       33      -0.03526578       0.01622135       0.17323539
O        1.81056461       0.66763511       8.40859653       34       0.03526578      -0.01622134       0.17323539
O        4.51755219       1.97666617       6.59997729       35       0.03526578       0.01622135      -0.17323539
O        1.81056461       1.97666617       0.90430962       36       0.03526578       0.01622135       0.17323539
O        4.51755219       0.66763511      14.10426420       37       0.03526578      -0.01622135      -0.17323539
O        3.60341055       4.62096746       6.59997729       38      -0.03526578       0.01622135      -0.17323539
O        0.89642297       3.31193639       8.40859653       39      -0.03526578      -0.01622135       0.17323539
40
Lattice="5.407726225081001 6.915596772753457e-42 -8.025514511909225e-79 -6.774808271814263e-42 5.302663896865466 -5.9291318396402104e-37 2.0074942313529344e-80 -1.6504066359026282e-36 14.986072122163295" Properties=species:S:1:pos:R:3:spacegroup_kinds:I:1:forces:R:3 spacegroup="P 1" unit_cell=conventional occupancy="_JSON {\"0\": {\"In\": 1}, \"1\": {\"In\": 1}, \"2\": {\"In\": 1}, \"3\": {\"In\": 1}, \"4\": {\"In\": 1}, \"5\": {\"In\": 1}, \"6\": {\"In\": 1}, \"7\": {\"In\": 1}, \"8\": {\"In\": 1}, \"9\": {\"In\": 1}, \"10\": {\"In\": 1}, \"11\": {\"In\": 1}, \"12\": {\"In\": 1}, \"13\": {\"In\": 1}, \"14\": {\"In\": 1}, \"15\": {\"In\": 1}, \"16\": {\"O\": 1}, \"17\": {\"O\": 1}, \"18\": {\"O\": 1}, \"19\": {\"O\": 1}, \"20\": {\"O\": 1}, \"21\": {\"O\": 1}, \"22\": {\"O\": 1}, \"23\": {\"O\": 1}, \"24\": {\"O\": 1}, \"25\": {\"O\": 1}, \"26\": {\"O\": 1}, \"27\": {\"O\": 1}, \"28\": {\"O\": 1}, \"29\": {\"O\": 1}, \"30\": {\"O\": 1}, \"31\": {\"O\": 1}, \"32\": {\"O\": 1}, \"33\": {\"O\": 1}, \"34\": {\"O\": 1}, \"35\": {\"O\": 1}, \"36\": {\"O\": 1}, \"37\": {\"O\": 1}, \"38\": {\"O\": 1}, \"39\": {\"O\": 1}}" n_minim_iter=3 energy=-45153.726075541796 stress="0.0668058858538257 2.34625587877309e-12 -5.5641501663040146e-12 2.34625587877309e-12 0.07094511802489566 -2.0827398240417476e-12 -5.5641501663040146e-12 -2.0827398240417476e-12 0.06771339740852476" free_energy=-45153.726075541796 pbc="T T T"
In       2.87303893       4.04166819       8.43540000        0      -0.25120086      -0.03200354       0.12075418
In       0.16917582       3.91232765       6.55067212        1      -0.25120086       0.03200354      -0.12075418
In       2.53468730       1.39033624      14.04370818        2       0.25120086      -0.03200354      -0.12075418
In       5.23855041       1.26099571       0.94236394        3       0.25120086       0.03200354       0.12075418
In       2.53468730       1.26099571       6.55067212        4       0.25120086       0.03200354      -0.12075418
In       5.23855041       1.39033624       8.43540000        5       0.25120086      -0.03200354       0.12075418
In       2.87303893       3.91232765       0.94236394        6      -0.25120086       0.03200354       0.12075418
In       0.16917582       4.04166819      14.04370818        7      -0.25120086      -0.03200354      -0.12075418
In       2.84030838       3.90637445      12.19442222        8      -0.10107758      -0.17801455       0.00118290
In       5.54417149       4.04762139       2.79164990        9      -0.10107758       0.17801455      -0.00118290
In       2.56741785       1.25504250      10.28468596       10       0.10107758      -0.17801455      -0.00118290
In      -0.13644527       1.39628945       4.70138616       11       0.10107758       0.17801455       0.00118290
In       2.56741785       1.39628945       2.79164990       12       0.10107758       0.17801455      -0.00118290
In      -0.13644527       1.25504250      12.19442222       13       0.10107758      -0.17801455       0.00118290
In       2.84030838       4.04762139       4.70138616       14      -0.10107758       0.17801455       0.00118290
In       5.54417149       3.90637445      10.28468596       15      -0.10107758      -0.17801455      -0.00118290
O        4.80664776       4.48339404      12.06582765       16      -0.18241938       0.13814512       0.09634429
O        2.10278465       3.47060181       2.92024447       17      -0.18241938      -0.13814512      -0.09634429
O        0.60107847       1.83206209      10.41328053       18       0.18241938       0.13814512      -0.09634429
O        3.30494158       0.81926986       4.57279159       19       0.18241938      -0.13814512       0.09634429
O        0.60107847       0.81926986       2.92024447       20       0.18241938      -0.13814512      -0.09634429
O        3.30494158       1.83206209      12.06582765       21       0.18241938       0.13814512       0.09634429
O        4.80664776       3.47060181       4.57279159       22      -0.18241938      -0.13814512       0.09634429
O        2.10278465       4.48339404      10.41328053       23      -0.18241938       0.13814512      -0.09634429
O        3.90828001       2.66014771       9.47648843       24      -0.01909411       0.04397478      -0.00024795
O        1.20441690       5.29384814       5.50958369       25      -0.01909411      -0.04397478       0.00024795
O        1.49944621       0.00881576      13.00261975       26       0.01909411       0.04397478       0.00024795
O        4.20330933       2.64251619       1.98345237       27       0.01909411      -0.04397478      -0.00024795
O        1.49944621       2.64251619       5.50958369       28       0.01909411      -0.04397478       0.00024795
O        4.20330933       0.00881576       9.47648843       29       0.01909411       0.04397478      -0.00024795
O        3.90828001       5.29384814       1.98345237       30      -0.01909411      -0.04397478      -0.00024795
O        1.20441690       2.66014771      13.00261975       31      -0.01909411       0.04397478       0.00024795
O        3.59914487       3.32069259      14.08261337       32      -0.05349060      -0.00827476      -0.17613934
O        0.89528176       4.63330325       0.90345875       33      -0.05349060       0.00827476       0.17613934
O        1.80858135       0.66936064       8.39649481       34       0.05349060      -0.00827476       0.17613934
O        4.51244447       1.98197130       6.58957731       35       0.05349060       0.00827476      -0.17613934
O        1.80858135       1.98197130       0.90345875       36       0.05349060       0.00827476       0.17613934
O        4.51244447       0.66936064      14.08261337       37       0.05349060      -0.00827476      -0.17613934
O        3.59914487       4.63330325       6.58957731       38      -0.05349060       0.00827476      -0.17613934
O        0.89528176       3.32069259       8.39649481       39      -0.05349060      -0.00827476       0.17613934
40
Lattice="5.411661750754403 6.921112249382441e-42 -7.843130159761841e-79 -6.781020879540753e-42 5.307895379847213 -5.787193513514083e-37 1.956882296555941e-80 -1.614687956384414e-36 14.960414201536677" Properties=species:S:1:pos:R:3:spacegroup_kinds:I:1:forces:R:3 spacegroup="P 1" unit_cell=conventional occupancy="_JSON {\"0\": {\"In\": 1}, \"1\": {\"In\": 1}, \"2\": {\"In\": 1}, \"3\": {\"In\": 1}, \"4\": {\"In\": 1}, \"5\": {\"In\": 1}, \"6\": {\"In\": 1}, \"7\": {\"In\": 1}, \"8\": {\"In\": 1}, \"9\": {\"In\": 1}, \"10\": {\"In\": 1}, \"11\": {\"In\": 1}, \"12\": {\"In\": 1}, \"13\": {\"In\": 1}, \"14\": {\"In\": 1}, \"15\": {\"In\": 1}, \"16\": {\"O\": 1}, \"17\": {\"O\": 1}, \"18\": {\"O\": 1}, \"19\": {\"O\": 1}, \"20\": {\"O\": 1}, \"21\": {\"O\": 1}, \"22\": {\"O\": 1}, \"23\": {\"O\": 1}, \"24\": {\"O\": 1}, \"25\": {\"O\": 1}, \"26\": {\"O\": 1}, \"27\": {\"O\": 1}, \"28\": {\"O\": 1}, \"29\": {\"O\": 1}, \"30\": {\"O\": 1}, \"31\": {\"O\": 1}, \"32\": {\"O\": 1}, \"33\": {\"O\": 1}, \"34\": {\"O\": 1}, \"35\": {\"O\": 1}, \"36\": {\"O\": 1}, \"37\": {\"O\": 1}, \"38\": {\"O\": 1}, \"39\": {\"O\": 1}}" n_minim_iter=4 energy=-45153.76643868844 stress="0.0740744891891707 1.253954114826298e-12 -3.1931706099166376e-12 1.253954114826298e-12 0.07471925261369079 -1.4497151412582273e-12 -3.1931706099166376e-12 -1.4497151412582273e-12 0.0708057404346528" free_energy=-45153.76643868844 pbc="T T T"
In       2.86567649       4.04492993       8.42533055        0      -0.07634953       0.01006922      -0.02836225
In       0.15984561       3.91691314       6.53508365        1      -0.07634953      -0.01006922       0.02836225
In       2.54598526       1.39098224      14.01529075        2       0.07634953       0.01006922       0.02836225
In       5.25181614       1.26296545       0.94512345        3       0.07634953      -0.01006922      -0.02836224
In       2.54598526       1.26296545       6.53508365        4       0.07634953      -0.01006922       0.02836225
In       5.25181614       1.39098224       8.42533055        5       0.07634953       0.01006922      -0.02836225
In       2.86567649       3.91691314       0.94512345        6      -0.07634953      -0.01006922      -0.02836225
In       0.15984561       4.04492993      14.01529075        7      -0.07634953       0.01006922       0.02836225
In       2.83904910       3.90469195      12.17336963        8      -0.14184853      -0.09283912      -0.07267317
In       5.54487998       4.05715112       2.78704457        9      -0.14184853       0.09283912       0.07267317
In       2.57261265       1.25074426      10.26725167       10       0.14184853      -0.09283912       0.07267317
In      -0.13321823       1.40320343       4.69316253       11       0.14184853       0.09283912      -0.07267317
In       2.57261265       1.40320343       2.78704457       12       0.14184853       0.09283912       0.07267317
In      -0.13321823       1.25074426      12.17336963       13       0.14184853      -0.09283912      -0.07267317
In       2.83904910       4.05715112       4.69316253       14      -0.14184853       0.09283912      -0.07267317
In       5.54487998       3.90469195      10.26725167       15      -0.14184853      -0.09283912       0.07267317
O        4.80367282       4.49205952      12.04850353       16      -0.15812621       0.06854935      -0.06752523
O        2.09784194       3.46978355       2.91191068       17      -0.15812621      -0.06854935       0.06752523
O        0.60798893       1.83811183      10.39211778       18       0.15812621       0.06854935       0.06752523
O        3.31381981       0.81583586       4.56829643       19       0.15812621      -0.06854935      -0.06752523
O        0.60798893       0.81583586       2.91191068       20       0.15812621      -0.06854935       0.06752523
O        3.31381981       1.83811183      12.04850353       21       0.15812621       0.06854935      -0.06752523
O        4.80367282       3.46978355       4.56829643       22      -0.15812621      -0.06854935      -0.06752523
O        2.09784194       4.49205952      10.39211778       23      -0.15812621       0.06854935       0.06752523
O        3.91048139       2.66389663       9.46066393       24      -0.02933475       0.02676604      -0.01745240
O        1.20465051       5.29794644       5.49975027       25      -0.02933475      -0.02676604       0.01745240
O        1.50118036       0.00994894      12.97995737       26       0.02933475       0.02676604       0.01745240
O        4.20701124       2.64399875       1.98045683       27       0.02933475      -0.02676604      -0.01745240
O        1.50118036       2.64399875       5.49975027       28       0.02933475      -0.02676604       0.01745240
O        4.20701124       0.00994894       9.46066393       29       0.02933475       0.02676604      -0.01745240
O        3.91048139       5.29794644       1.98045683       30      -0.02933475      -0.02676604      -0.01745240
O        1.20465051       2.66389663      12.97995737       31      -0.02933475       0.02676604       0.01745240
O        3.60024649       3.32353823      14.05241282       32      -0.09073742       0.01749862      -0.02260031
O        0.89441562       4.63830484       0.90800138       33      -0.09073742      -0.01749862       0.02260031
O        1.81141526       0.66959054       8.38820848       34       0.09073742       0.01749862       0.02260031
O        4.51724613       1.98435715       6.57220572       35       0.09073742      -0.01749862      -0.02260031
O        1.81141526       1.98435715       0.90800138       36       0.09073742      -0.01749862       0.02260031
O        4.51724613       0.66959054      14.05241282       37       0.09073742       0.01749862      -0.02260031
O        3.60024649       4.63830484       6.57220572       38      -0.09073742      -0.01749862      -0.02260031
O        0.89441562       3.32353823       8.38820848       39      -0.09073742       0.01749862       0.02260031
40
Lattice="5.407554595643417 6.916292087941138e-42 -7.847533391322777e-79 -6.782093487156735e-42 5.309061881961664 -5.7845270509007215e-37 1.94247784701478e-80 -1.613352298456755e-36 14.968487376066594" Properties=species:S:1:pos:R:3:spacegroup_kinds:I:1:forces:R:3 spacegroup="P 1" unit_cell=conventional occupancy="_JSON {\"0\": {\"In\": 1}, \"1\": {\"In\": 1}, \"2\": {\"In\": 1}, \"3\": {\"In\": 1}, \"4\": {\"In\": 1}, \"5\": {\"In\": 1}, \"6\": {\"In\": 1}, \"7\": {\"In\": 1}, \"8\": {\"In\": 1}, \"9\": {\"In\": 1}, \"10\": {\"In\": 1}, \"11\": {\"In\": 1}, \"12\": {\"In\": 1}, \"13\": {\"In\": 1}, \"14\": {\"In\": 1}, \"15\": {\"In\": 1}, \"16\": {\"O\": 1}, \"17\": {\"O\": 1}, \"18\": {\"O\": 1}, \"19\": {\"O\": 1}, \"20\": {\"O\": 1}, \"21\": {\"O\": 1}, \"22\": {\"O\": 1}, \"23\": {\"O\": 1}, \"24\": {\"O\": 1}, \"25\": {\"O\": 1}, \"26\": {\"O\": 1}, \"27\": {\"O\": 1}, \"28\": {\"O\": 1}, \"29\": {\"O\": 1}, \"30\": {\"O\": 1}, \"31\": {\"O\": 1}, \"32\": {\"O\": 1}, \"33\": {\"O\": 1}, \"34\": {\"O\": 1}, \"35\": {\"O\": 1}, \"36\": {\"O\": 1}, \"37\": {\"O\": 1}, \"38\": {\"O\": 1}, \"39\": {\"O\": 1}}" n_minim_iter=5 energy=-45153.78799513692 stress="0.0770186432179888 -2.5303907590375873e-12 -8.352403698358384e-12 -2.5303907590375873e-12 0.07732909740866001 1.4078729251316998e-12 -8.352403698358384e-12 1.4078729251316998e-12 0.07643420786606094" free_energy=-45153.78799513692 pbc="T T T"
In       2.85576984       4.04588350       8.43195155        0       0.03940020       0.03796434      -0.09473724
In       0.15199254       3.91770933       6.53653582        1       0.03940020      -0.03796434       0.09473724
In       2.55178475       1.39135256      14.02077951        2      -0.03940020       0.03796434       0.09473723
In       5.25556205       1.26317839       0.94770787        3      -0.03940020      -0.03796434      -0.09473724
In       2.55178475       1.26317839       6.53653582        4      -0.03940020      -0.03796434       0.09473724
In       5.25556205       1.39135256       8.43195155        5      -0.03940020       0.03796434      -0.09473724
In       2.85576984       3.91770933       0.94770787        6       0.03940020      -0.03796434      -0.09473724
In       0.15199254       4.04588350      14.02077951        7       0.03940020       0.03796434       0.09473723
In       2.83144102       3.90039652      12.17807587        8      -0.14943203      -0.01842238      -0.09530064
In       5.53521832       4.06319631       2.79041150        9      -0.14943203       0.01842238       0.09530064
In       2.57611357       1.24586557      10.27465519       10       0.14943203      -0.01842238       0.09530064
In      -0.12766373       1.40866537       4.69383218       11       0.14943203       0.01842238      -0.09530064
In       2.57611357       1.40866537       2.79041150       12       0.14943203       0.01842238       0.09530064
In      -0.12766373       1.24586557      12.17807587       13       0.14943203      -0.01842238      -0.09530064
In       2.83144102       4.06319631       4.69383218       14      -0.14943203       0.01842238      -0.09530064
In       5.53521832       3.90039652      10.27465519       15      -0.14943203      -0.01842238       0.09530064
O        4.79272964       4.49689545      12.05557099       16      -0.10950503       0.01008899      -0.10001238
O        2.08895234       3.46669737       2.91291638       17      -0.10950503      -0.01008899       0.10001238
O        0.61482496       1.84236451      10.39716007       18       0.10950503       0.01008899       0.10001238
O        3.31860225       0.81216643       4.57132731       19       0.10950503      -0.01008899      -0.10001238
O        0.61482496       0.81216643       2.91291638       20       0.10950503      -0.01008899       0.10001238
O        3.31860225       1.84236451      12.05557099       21       0.10950503       0.01008899      -0.10001238
O        4.79272964       3.46669737       4.57132731       22      -0.10950503      -0.01008899      -0.10001238
O        2.08895234       4.49689545      10.39716007       23      -0.10950503       0.01008899       0.10001238
O        3.90651958       2.66564744       9.46578396       24      -0.02428790       0.01400241      -0.01499545
O        1.20274229       5.29794538       5.50270342       25      -0.02428790      -0.01400241       0.01499545
O        1.50103501       0.01111650      12.98694710       26       0.02428790       0.01400241       0.01499545
O        4.20481231       2.64341444       1.98154027       27       0.02428790      -0.01400241      -0.01499545
O        1.50103501       2.64341444       5.50270342       28       0.02428790      -0.01400241       0.01499545
O        4.20481231       0.01111650       9.46578396       29       0.02428790       0.01400241      -0.01499545
O        3.90651958       5.29794538       1.98154027       30      -0.02428790      -0.01400241      -0.01499545
O        1.20274229       2.66564744      12.98694710       31      -0.02428790       0.01400241       0.01499545
O        3.59449049       3.32418203      14.05581193       32      -0.11510540       0.01784250       0.04200136
O        0.89071320       4.63941079       0.91267544       33      -0.11510540      -0.01784250      -0.04200136
O        1.81306410       0.66965109       8.39691913       34       0.11510540       0.01784250      -0.04200136
O        4.51684140       1.98487985       6.57156825       35       0.11510540      -0.01784250       0.04200136
O        1.81306410       1.98487985       0.91267544       36       0.11510540      -0.01784250      -0.04200136
O        4.51684140       0.66965109      14.05581193       37       0.11510540       0.01784250       0.04200136
O        3.59449049       4.63941079       6.57156825       38      -0.11510540      -0.01784250       0.04200136
O        0.89071320       3.32418203       8.39691913       39      -0.11510540       0.01784250      -0.04200136
40