40
Lattice="5.554005380097751 2.298286101770106e-42 0.0 -1.2436014023932152e-42 5.727682811647204 0.0 0.0 0.0 15.964746512317332" Properties=species:S:1:pos:R:3:spacegroup_kinds:I:1:forces:R:3 spacegroup="P 1" unit_cell=conventional occupancy="_JSON {\"0\": {\"In\": 1}, \"1\": {\"In\": 1}, \"2\": {\"In\": 1}, \"3\": {\"In\": 1}, \"4\": {\"In\": 1}, \"5\": {\"In\": 1}, \"6\": {\"In\": 1}, \"7\": {\"In\": 1}, \"8\": {\"In\": 1}, \"9\": {\"In\": 1}, \"10\": {\"In\": 1}, \"11\": {\"In\": 1}, \"12\": {\"In\": 1}, \"13\": {\"In\": 1}, \"14\": {\"In\": 1}, \"15\": {\"In\": 1}, \"16\": {\"O\": 1}, \"17\": {\"O\": 1}, \"18\": {\"O\": 1}, \"19\": {\"O\": 1}, \"20\": {\"O\": 1}, \"21\": {\"O\": 1}, \"22\": {\"O\": 1}, \"23\": {\"O\": 1}, \"24\": {\"O\": 1}, \"25\": {\"O\": 1}, \"26\": {\"O\": 1}, \"27\": {\"O\": 1}, \"28\": {\"O\": 1}, \"29\": {\"O\": 1}, \"30\": {\"O\": 1}, \"31\": {\"O\": 1}, \"32\": {\"O\": 1}, \"33\": {\"O\": 1}, \"34\": {\"O\": 1}, \"35\": {\"O\": 1}, \"36\": {\"O\": 1}, \"37\": {\"O\": 1}, \"38\": {\"O\": 1}, \"39\": {\"O\": 1}}" n_minim_iter=8 energy=-45150.175820298384 stress="-0.01655577129633766 -2.6102758511528924e-12 -1.3180047725800944e-12 -2.6102758511528924e-12 -0.016560943105820267 -4.478200638409102e-12 -1.3180047725800944e-12 -4.478200638409102e-12 -0.016628645053472762" free_energy=-45150.175820298384 pbc="T T T"
In       2.77757305       4.56296976       9.10578961        0       0.00626410       0.00048110       0.00406454
In       0.00057036       4.02855446       6.85895690        1       0.00626410      -0.00048110      -0.00406454
In       2.77643233       1.69912835      14.84133016        2      -0.00626409       0.00048110      -0.00406454
In       5.55343502       1.16471305       1.12341635        3      -0.00626410      -0.00048110       0.00406454
In       2.77643233       1.16471305       6.85895690        4      -0.00626410      -0.00048110      -0.00406454
In       5.55343502       1.69912835       9.10578961        5      -0.00626410       0.00048110       0.00406454
In       2.77757305       4.02855446       1.12341635        6       0.00626410      -0.00048110       0.00406454
In       0.00057036       4.56296976      14.84133016        7       0.00626409       0.00048110      -0.00406454
In       2.76406791       4.27651186      13.05214982        8      -0.00026483      -0.00284256      -0.00191315
In       5.54107060       4.31501235       2.91259669        9      -0.00026483       0.00284256       0.00191315
In       2.78993747       1.41267046      10.89496995       10       0.00026483      -0.00284256       0.00191315
In       0.01293478       1.45117095       5.06977656       11       0.00026483       0.00284256      -0.00191315
In       2.78993747       1.45117095       2.91259669       12       0.00026483       0.00284256       0.00191315
In       0.01293478       1.41267046      13.05214982       13       0.00026483      -0.00284256      -0.00191315
In       2.76406791       4.31501235       5.06977656       14      -0.00026483       0.00284256      -0.00191315
In       5.54107060       4.27651186      10.89496995       15      -0.00026483      -0.00284256       0.00191315
O        4.77361006       5.04838986      12.75568590       16      -0.00131098       0.00375072       0.00163189
O        1.99660736       3.54313435       3.20906062       17      -0.00131098      -0.00375072      -0.00163189
O        0.78039533       2.18454846      11.19143387       18       0.00131098       0.00375072      -0.00163189
O        3.55739802       0.67929295       4.77331264       19       0.00131098      -0.00375072       0.00163189
O        0.78039533       0.67929295       3.20906062       20       0.00131098      -0.00375072      -0.00163189
O        3.55739802       2.18454846      12.75568590       21       0.00131098       0.00375072       0.00163189
O        4.77361006       3.54313435       4.77331264       22      -0.00131098      -0.00375072       0.00163189
O        1.99660736       5.04838986      11.19143387       23      -0.00131098       0.00375072      -0.00163189
O        3.93608443       3.01083778       9.97718818       24       0.00197514       0.00118006      -0.00080978
O        1.15908174       5.58068643       5.98755834       25       0.00197514      -0.00118006       0.00080978
O        1.61792095       0.14699638      13.96993159       26      -0.00197514       0.00118006       0.00080978
O        4.39492364       2.71684503       1.99481492       27      -0.00197514      -0.00118006      -0.00080978
O        1.61792095       2.71684503       5.98755834       28      -0.00197514      -0.00118006       0.00080978
O        4.39492364       0.14699638       9.97718818       29      -0.00197514       0.00118006      -0.00080978
O        3.93608443       5.58068643       1.99481492       30       0.00197514      -0.00118006      -0.00080978
O        1.15908174       3.01083778      13.96993159       31       0.00197514       0.00118006       0.00080978
O        3.58702238       3.76637393      15.11651819       32       0.00019598      -0.00059919       0.00238417
O        0.81001969       4.82515029       0.84822832       33       0.00019598       0.00059919      -0.00238417
O        1.96698300       0.90253252       8.83060158       34      -0.00019598      -0.00059919      -0.00238417
O        4.74398569       1.96130888       7.13414493       35      -0.00019598       0.00059919       0.00238417
O        1.96698300       1.96130888       0.84822832       36      -0.00019598       0.00059919      -0.00238417
O        4.74398569       0.90253252      15.11651819       37      -0.00019598      -0.00059919       0.00238417
O        3.58702238       4.82515029       7.13414493       38       0.00019598       0.00059919       0.00238417
O        0.81001969       3.76637393       8.83060158       39       0.00019598      -0.00059919      -0.00238417
