40
Lattice="5.802669690264398 -1.6089125126061389e-41 0.0 2.281615972696465e-41 6.30966478067657 0.0 0.0 0.0 16.716540216900903" Properties=species:S:1:pos:R:3:spacegroup_kinds:I:1:forces:R:3 spacegroup="P 1" unit_cell=conventional occupancy="_JSON {\"0\": {\"In\": 1}, \"1\": {\"In\": 1}, \"2\": {\"In\": 1}, \"3\": {\"In\": 1}, \"4\": {\"In\": 1}, \"5\": {\"In\": 1}, \"6\": {\"In\": 1}, \"7\": {\"In\": 1}, \"8\": {\"In\": 1}, \"9\": {\"In\": 1}, \"10\": {\"In\": 1}, \"11\": {\"In\": 1}, \"12\": {\"In\": 1}, \"13\": {\"In\": 1}, \"14\": {\"In\": 1}, \"15\": {\"In\": 1}, \"16\": {\"O\": 1}, \"17\": {\"O\": 1}, \"18\": {\"O\": 1}, \"19\": {\"O\": 1}, \"20\": {\"O\": 1}, \"21\": {\"O\": 1}, \"22\": {\"O\": 1}, \"23\": {\"O\": 1}, \"24\": {\"O\": 1}, \"25\": {\"O\": 1}, \"26\": {\"O\": 1}, \"27\": {\"O\": 1}, \"28\": {\"O\": 1}, \"29\": {\"O\": 1}, \"30\": {\"O\": 1}, \"31\": {\"O\": 1}, \"32\": {\"O\": 1}, \"33\": {\"O\": 1}, \"34\": {\"O\": 1}, \"35\": {\"O\": 1}, \"36\": {\"O\": 1}, \"37\": {\"O\": 1}, \"38\": {\"O\": 1}, \"39\": {\"O\": 1}}" n_minim_iter=17 energy=-45146.867182557275 stress="0.04055415423282173 -1.2893334848004396e-12 1.277701231606372e-12 -1.2893334848004396e-12 0.04055886876789938 -5.636581827533823e-13 1.277701231606372e-12 -5.636581827533823e-13 0.040571916471303184" free_energy=-45146.867182557275 pbc="T T T"
In       2.64973325       5.16842553       9.58567335        0      -0.00576774      -0.00163348      -0.00236452
In      -0.25160159       4.29607164       7.13086687        1      -0.00576774       0.00163348       0.00236452
In       3.15293644       2.01359314      15.48913698        2       0.00576774      -0.00163348       0.00236452
In       6.05427128       1.14123925       1.22740324        3       0.00576774       0.00163348      -0.00236452
In       3.15293644       1.14123925       7.13086687        4       0.00576774       0.00163348       0.00236452
In       6.05427128       2.01359314       9.58567335        5       0.00576774      -0.00163348      -0.00236452
In       2.64973325       4.29607164       1.22740324        6      -0.00576774       0.00163348      -0.00236452
In      -0.25160159       5.16842553      15.48913698        7      -0.00576774      -0.00163348       0.00236452
In       2.66787022       5.05096896      13.66082124        8      -0.00534237      -0.00717452       0.00161259
In       5.56920507       4.41352821       3.05571898        9      -0.00534237       0.00717452      -0.00161259
In       3.13479947       1.89613657      11.41398909       10       0.00534237      -0.00717452      -0.00161259
In       0.23346462       1.25869582       5.30255113       11       0.00534237       0.00717452       0.00161259
In       3.13479947       1.25869582       3.05571898       12       0.00534237       0.00717452      -0.00161259
In       0.23346462       1.89613657      13.66082124       13       0.00534237      -0.00717452       0.00161259
In       2.66787022       4.41352821       5.30255113       14      -0.00534237       0.00717452       0.00161259
In       5.56920507       5.05096896      11.41398909       15      -0.00534237      -0.00717452      -0.00161259
O        4.78873858       5.57958239      13.41835675       16       0.00221015       0.00225885       0.00050513
O        1.88740373       3.88491478       3.29818347       17       0.00221015      -0.00225885      -0.00050513
O        1.01393111       2.42475000      11.65645357       18      -0.00221015       0.00225885      -0.00050513
O        3.91526596       0.73008239       5.06008664       19      -0.00221015      -0.00225885       0.00050513
O        1.01393111       0.73008239       3.29818347       20      -0.00221015      -0.00225885      -0.00050513
O        3.91526596       2.42475000      13.41835675       21      -0.00221015       0.00225885       0.00050513
O        4.78873858       3.88491478       5.06008664       22       0.00221015      -0.00225885       0.00050513
O        1.88740373       5.57958239      11.65645357       23       0.00221015       0.00225885      -0.00050513
O        4.05491495       3.74420977      10.56102150       24       0.00469344       0.00194006       0.00155390
O        1.15358010       5.72028740       6.15551872       25       0.00469344      -0.00194006      -0.00155390
O        1.74775474       0.58937738      14.51378883       26      -0.00469344       0.00194006      -0.00155390
O        4.64908959       2.56545501       2.20275139       27      -0.00469344      -0.00194006       0.00155390
O        1.74775474       2.56545501       6.15551872       28      -0.00469344      -0.00194006      -0.00155390
O        4.64908959       0.58937738      10.56102150       29      -0.00469344       0.00194006       0.00155390
O        4.05491495       5.72028740       2.20275139       30       0.00469344      -0.00194006       0.00155390
O        1.15358010       3.74420977      14.51378883       31       0.00469344       0.00194006      -0.00155390
O        3.79900975       4.02597716      16.10406417       32      -0.00725855      -0.00117597      -0.00081224
O        0.89767490       5.43852001       0.61247605       33      -0.00725855       0.00117597       0.00081224
O        2.00365994       0.87114477       8.97074616       34       0.00725855      -0.00117597       0.00081224
O        4.90499479       2.28368762       7.74579406       35       0.00725855       0.00117597      -0.00081224
O        2.00365994       2.28368762       0.61247605       36       0.00725855       0.00117597       0.00081224
O        4.90499479       0.87114477      16.10406417       37       0.00725855      -0.00117597      -0.00081224
O        3.79900975       5.43852001       7.74579406       38      -0.00725855       0.00117597      -0.00081224
O        0.89767490       4.02597716       8.97074616       39      -0.00725855      -0.00117597       0.00081224
