40
Lattice="5.8084741976051 -8.532113671882302e-42 0.0 9.652087887417819e-44 6.008527993699496 0.0 0.0 0.0 16.79055440417677" Properties=species:S:1:pos:R:3:spacegroup_kinds:I:1:forces:R:3 spacegroup="P 1" unit_cell=conventional occupancy="_JSON {\"0\": {\"In\": 1}, \"1\": {\"In\": 1}, \"2\": {\"In\": 1}, \"3\": {\"In\": 1}, \"4\": {\"In\": 1}, \"5\": {\"In\": 1}, \"6\": {\"In\": 1}, \"7\": {\"In\": 1}, \"8\": {\"In\": 1}, \"9\": {\"In\": 1}, \"10\": {\"In\": 1}, \"11\": {\"In\": 1}, \"12\": {\"In\": 1}, \"13\": {\"In\": 1}, \"14\": {\"In\": 1}, \"15\": {\"In\": 1}, \"16\": {\"O\": 1}, \"17\": {\"O\": 1}, \"18\": {\"O\": 1}, \"19\": {\"O\": 1}, \"20\": {\"O\": 1}, \"21\": {\"O\": 1}, \"22\": {\"O\": 1}, \"23\": {\"O\": 1}, \"24\": {\"O\": 1}, \"25\": {\"O\": 1}, \"26\": {\"O\": 1}, \"27\": {\"O\": 1}, \"28\": {\"O\": 1}, \"29\": {\"O\": 1}, \"30\": {\"O\": 1}, \"31\": {\"O\": 1}, \"32\": {\"O\": 1}, \"33\": {\"O\": 1}, \"34\": {\"O\": 1}, \"35\": {\"O\": 1}, \"36\": {\"O\": 1}, \"37\": {\"O\": 1}, \"38\": {\"O\": 1}, \"39\": {\"O\": 1}}" n_minim_iter=21 energy=-45147.688145484346 stress="0.08120546614355965 4.722373470444791e-12 -2.2983881156983794e-12 4.722373470444791e-12 0.08125970774792447 2.0865268235148968e-12 -2.2983881156983794e-12 2.0865268235148968e-12 0.0811708763538866" free_energy=-45147.688145484346 pbc="T T T"
In       2.89899906       4.84827563       9.60435960        0       0.00216019      -0.00607012      -0.00561647
In      -0.00523804       4.16451636       7.18619481        1       0.00216019       0.00607012       0.00561647
In       2.90947514       1.84401163      15.58147201        2      -0.00216019      -0.00607012       0.00561647
In       5.81371224       1.16025237       1.20908239        3      -0.00216019       0.00607012      -0.00561647
In       2.90947514       1.16025237       7.18619481        4      -0.00216019       0.00607012       0.00561647
In       5.81371224       1.84401163       9.60435960        5      -0.00216019      -0.00607012      -0.00561647
In       2.89899906       4.16451636       1.20908239        6       0.00216019       0.00607012      -0.00561647
In      -0.00523804       4.84827563      15.58147201        7       0.00216019      -0.00607012       0.00561647
In       2.86828662       4.44725760      13.72946641        8       0.00597573       0.00100018       0.00131658
In       5.77252372       4.56553439       3.06108799        9       0.00597573      -0.00100018      -0.00131658
In       2.94018758       1.44299360      11.45636520       10      -0.00597573       0.00100018      -0.00131658
In       0.03595048       1.56127039       5.33418921       11      -0.00597573      -0.00100018       0.00131658
In       2.94018758       1.56127039       3.06108799       12      -0.00597573      -0.00100018      -0.00131658
In       0.03595048       1.44299360      13.72946641       13      -0.00597573       0.00100018       0.00131658
In       2.86828662       4.56553439       5.33418921       14       0.00597573      -0.00100018       0.00131658
In       5.77252372       4.44725760      11.45636520       15       0.00597573       0.00100018      -0.00131658
O        4.97684538       5.18995384      13.41345506       16       0.00043432       0.00433674      -0.00811262
O        2.07260828       3.82283815       3.37709935       17       0.00043432      -0.00433674       0.00811262
O        0.83162882       2.18568984      11.77237655       18      -0.00043432       0.00433674       0.00811262
O        3.73586592       0.81857416       5.01817785       19      -0.00043432      -0.00433674      -0.00811262
O        0.83162882       0.81857416       3.37709935       20      -0.00043432      -0.00433674       0.00811262
O        3.73586592       2.18568984      13.41345506       21      -0.00043432       0.00433674      -0.00811262
O        4.97684538       3.82283815       5.01817785       22       0.00043432      -0.00433674      -0.00811262
O        2.07260828       5.18995384      11.77237655       23       0.00043432       0.00433674       0.00811262
O        4.06691839       3.17254580      10.48925018       24      -0.00020783      -0.00052494       0.00363321
O        1.16268129       5.84024619       6.30130422       25      -0.00020783       0.00052494      -0.00363321
O        1.74155581       0.16828180      14.69658142       26       0.00020783      -0.00052494      -0.00363321
O        4.64579291       2.83598219       2.09397298       27       0.00020783       0.00052494       0.00363321
O        1.74155581       2.83598219       6.30130422       28       0.00020783       0.00052494      -0.00363321
O        4.64579291       0.16828180      10.48925018       29       0.00020783      -0.00052494       0.00363321
O        4.06691839       5.84024619       2.09397298       30      -0.00020783       0.00052494       0.00363321
O        1.16268129       3.17254580      14.69658142       31      -0.00020783      -0.00052494      -0.00363321
O        3.77807940       3.96876916      15.94216923       32      -0.00535399      -0.00553044       0.00216403
O        0.87384230       5.04402283       0.84838517       33      -0.00535400       0.00553044      -0.00216403
O        2.03039480       0.96450516       9.24366237       34       0.00535399      -0.00553044      -0.00216403
O        4.93463190       2.03975884       7.54689203       35       0.00535399       0.00553044       0.00216403
O        2.03039480       2.03975884       0.84838517       36       0.00535399       0.00553044      -0.00216403
O        4.93463190       0.96450516      15.94216923       37       0.00535399      -0.00553044       0.00216403
O        3.77807940       5.04402283       7.54689203       38      -0.00535400       0.00553044       0.00216403
O        0.87384230       3.96876916       9.24366237       39      -0.00535400      -0.00553044      -0.00216403
