40
Lattice="5.843534907715555 -1.6202432557290585e-41 0.0 2.2976842202172065e-41 6.354100503726404 0.0 0.0 0.0 16.83426620984184" Properties=species:S:1:pos:R:3:spacegroup_kinds:I:1:forces:R:3 spacegroup="P 1" unit_cell=conventional occupancy="_JSON {\"0\": {\"In\": 1}, \"1\": {\"In\": 1}, \"2\": {\"In\": 1}, \"3\": {\"In\": 1}, \"4\": {\"In\": 1}, \"5\": {\"In\": 1}, \"6\": {\"In\": 1}, \"7\": {\"In\": 1}, \"8\": {\"In\": 1}, \"9\": {\"In\": 1}, \"10\": {\"In\": 1}, \"11\": {\"In\": 1}, \"12\": {\"In\": 1}, \"13\": {\"In\": 1}, \"14\": {\"In\": 1}, \"15\": {\"In\": 1}, \"16\": {\"O\": 1}, \"17\": {\"O\": 1}, \"18\": {\"O\": 1}, \"19\": {\"O\": 1}, \"20\": {\"O\": 1}, \"21\": {\"O\": 1}, \"22\": {\"O\": 1}, \"23\": {\"O\": 1}, \"24\": {\"O\": 1}, \"25\": {\"O\": 1}, \"26\": {\"O\": 1}, \"27\": {\"O\": 1}, \"28\": {\"O\": 1}, \"29\": {\"O\": 1}, \"30\": {\"O\": 1}, \"31\": {\"O\": 1}, \"32\": {\"O\": 1}, \"33\": {\"O\": 1}, \"34\": {\"O\": 1}, \"35\": {\"O\": 1}, \"36\": {\"O\": 1}, \"37\": {\"O\": 1}, \"38\": {\"O\": 1}, \"39\": {\"O\": 1}}" n_minim_iter=17 energy=-45146.867182557275 stress="0.04055415423282173 -1.2893334848004396e-12 1.277701231606372e-12 -1.2893334848004396e-12 0.04055886876789938 -5.636581827533823e-13 1.277701231606372e-12 -5.636581827533823e-13 0.040571916471303184" free_energy=-45146.867182557275 pbc="T T T"
In       2.66839396       5.20482409       9.65318031        0      -0.00576774      -0.00163348      -0.00236452
In      -0.25337349       4.32632666       7.18108590        1      -0.00576774       0.00163348       0.00236452
In       3.17514094       2.02777384      15.59821900        2       0.00576774      -0.00163348       0.00236452
In       6.09690840       1.14927641       1.23604721        3       0.00576774       0.00163348      -0.00236452
In       3.17514094       1.14927641       7.18108590        4       0.00576774       0.00163348       0.00236452
In       6.09690840       2.02777384       9.65318031        5       0.00576774      -0.00163348      -0.00236452
In       2.66839396       4.32632666       1.23604721        6      -0.00576774       0.00163348      -0.00236452
In      -0.25337349       5.20482409      15.59821900        7      -0.00576774      -0.00163348       0.00236452
In       2.68665866       5.08654033      13.75702737        8      -0.00534237      -0.00717452       0.00161259
In       5.60842612       4.44461042       3.07723884        9      -0.00534237       0.00717452      -0.00161259
In       3.15687625       1.90949008      11.49437194       10       0.00534237      -0.00717452      -0.00161259
In       0.23510879       1.26756017       5.33989427       11       0.00534237       0.00717452       0.00161259
In       3.15687625       1.26756017       3.07723884       12       0.00534237       0.00717452      -0.00161259
In       0.23510879       1.90949008      13.75702737       13       0.00534237      -0.00717452       0.00161259
In       2.68665866       4.44461042       5.33989427       14      -0.00534237       0.00717452       0.00161259
In       5.60842612       5.08654033      11.49437194       15      -0.00534237      -0.00717452      -0.00161259
O        4.82246320       5.61887652      13.51285533       16       0.00221015       0.00225885       0.00050513
O        1.90069575       3.91227424       3.32141087       17       0.00221015      -0.00225885      -0.00050513
O        1.02107171       2.44182627      11.73854398       18      -0.00221015       0.00225885      -0.00050513
O        3.94283916       0.73522399       5.09572223       19      -0.00221015      -0.00225885       0.00050513
O        1.02107171       0.73522399       3.32141087       20      -0.00221015      -0.00225885      -0.00050513
O        3.94283916       2.44182627      13.51285533       21      -0.00221015       0.00225885       0.00050513
O        4.82246320       3.91227424       5.09572223       22       0.00221015      -0.00225885       0.00050513
O        1.90069575       5.61887652      11.73854398       23       0.00221015       0.00225885      -0.00050513
O        4.08347163       3.77057832      10.63539734       24       0.00469344       0.00194006       0.00155390
O        1.16170417       5.76057244       6.19886887       25       0.00469344      -0.00194006      -0.00155390
O        1.76006328       0.59352806      14.61600197       26      -0.00469344       0.00194006      -0.00155390
O        4.68183074       2.58352219       2.21826424       27      -0.00469344      -0.00194006       0.00155390
O        1.76006328       2.58352219       6.19886887       28      -0.00469344      -0.00194006      -0.00155390
O        4.68183074       0.59352806      10.63539734       29      -0.00469344       0.00194006       0.00155390
O        4.08347163       5.76057244       2.21826424       30       0.00469344      -0.00194006       0.00155390
O        1.16170417       3.77057832      14.61600197       31       0.00469344       0.00194006      -0.00155390
O        3.82576422       4.05433005      16.21747681       32      -0.00725855      -0.00117597      -0.00081224
O        0.90399676       5.47682071       0.61678940       33      -0.00725855       0.00117597       0.00081224
O        2.01777069       0.87727979       9.03392251       34       0.00725855      -0.00117597       0.00081224
O        4.93953814       2.29977046       7.80034370       35       0.00725855       0.00117597      -0.00081224
O        2.01777069       2.29977046       0.61678940       36       0.00725855       0.00117597       0.00081224
O        4.93953814       0.87727979      16.21747681       37       0.00725855      -0.00117597      -0.00081224
O        3.82576422       5.47682071       7.80034370       38      -0.00725855       0.00117597      -0.00081224
O        0.90399676       4.05433005       9.03392251       39      -0.00725855      -0.00117597       0.00081224
