80
Lattice="11.758812762970885 0.0 0.0 6.452317444010323 9.830426094342354 0.0 6.452317444010323 3.4829815090918417 9.192720870539437" Properties=species:S:1:pos:R:3:initial_magmoms:R:1:forces:R:3 uid=supercell-003.xyz_R3c type=Bulk energy=-90301.4942376544 stress="0.002216432631157927 -0.0008428687470600567 -0.000588539070659582 -0.0008428687470600567 0.0032842500089693056 -0.0003094191369926352 -0.000588539070659582 -0.0003094191369926352 0.0035569428389005003" virial="-2.085809515918755e-06 7.931951680254419e-07 5.538541423794208e-07 7.931951680254419e-07 -3.0906962048224462e-06 2.9118384708559254e-07 5.538541423794208e-07 2.9118384708559254e-07 -3.3473181709483243e-06" pbc="T T T"
In      10.57093864       5.70622635       3.94006911      10.00000000       0.00174167       0.00112614       0.00092637
In      16.45034502       5.70622635       3.94006911      10.00000000       0.00372116       0.00192087       0.00121562
In      13.79709736      10.62143940       3.94006911      10.00000000       0.00527179       0.00269323       0.00195558
In      19.67650374      10.62143940       3.94006911      10.00000000       0.00163882       0.00114594       0.00156632
In      13.79709736       7.44771711       8.53642955      10.00000000       0.01594341       0.01746293      -0.00222272
In      19.67650374       7.44771711       8.53642955      10.00000000       0.00006068       0.00363528      -0.00026431
In      17.02325608      12.36293015       8.53642955      10.00000000       0.00055921      -0.00426238      -0.00178357
In      22.90266246      12.36293015       8.53642955      10.00000000       0.00393610       0.00104644       0.00124004
In       7.92664710       4.27882935       2.95447155      10.00000000      -0.00472003      -0.00121330      -0.00538620
In      13.80605348       4.27882935       2.95447155      10.00000000      -0.00262458      -0.00054765      -0.00052630
In      11.15280582       9.19404240       2.95447155      10.00000000      -0.00196304      -0.00407340       0.00315500
In      17.03221221       9.19404240       2.95447155      10.00000000      -0.00345145      -0.00213813      -0.00119453
In      11.15280582       6.02032010       7.55083198      10.00000000       0.00466758       0.00700086      -0.00073199
In      17.03221221       6.02032010       7.55083198      10.00000000      -0.00607860      -0.00142748       0.00111149
In      14.37896455      10.93553315       7.55083198      10.00000000      -0.00412302      -0.00321594      -0.00071322
In      20.25837093      10.93553315       7.55083198      10.00000000      -0.00159434      -0.00249526      -0.00100736
In       4.40507673       2.37787445       1.64188889      10.00000000       0.01931490       0.00837974      -0.01107117
In      10.28448311       2.37787445       1.64188889      10.00000000       0.00019360       0.00236619      -0.00113797
In       7.63123545       7.29308750       1.64188889      10.00000000       0.00097085      -0.00328767       0.00051345
In      13.51064183       7.29308750       1.64188889      10.00000000       0.00372579      -0.00029131       0.00058287
In       7.63123545       4.11936520       6.23824933      10.00000000       0.00158303       0.00171853      -0.00002263
In      13.51064183       4.11936520       6.23824933      10.00000000       0.00468738       0.00447783      -0.00042860
In      10.85739417       9.03457825       6.23824933      10.00000000       0.00421764       0.00033630       0.00498151
In      16.73680055       9.03457825       6.23824933      10.00000000       0.00216513       0.00033347       0.00135034
In       1.76078518       0.95047746       0.65629133      10.00000000      -0.00746828      -0.00138582      -0.00131872
In       7.64019156       0.95047746       0.65629133      10.00000000      -0.00094539       0.00905980      -0.00298634
In       4.98694390       5.86569050       0.65629133      10.00000000       0.00077185      -0.00424206      -0.00276316
In      10.86635028       5.86569050       0.65629133      10.00000000      -0.00382889      -0.00305987      -0.00108501
In       4.98694390       2.69196821       5.25265176      10.00000000      -0.00241247       0.00021829       0.00097753
In      10.86635028       2.69196821       5.25265176      10.00000000      -0.00359003      -0.00250117      -0.00356458
In       8.21310263       7.60718126       5.25265176      10.00000000      -0.00286575      -0.00231554      -0.00112152
In      14.09250901       7.60718126       5.25265176      10.00000000      -0.00312106      -0.00268835       0.00122796
O        6.02844157       2.31817494       0.21474656       4.00000000      -0.05530726      -0.04782149       0.01239452
O       11.90204053       2.30932705       0.21474656       4.00000000       0.00327353       0.00909862      -0.01334351
O        9.24879287       7.22454010       0.21474656       4.00000000       0.00177972       0.01126298      -0.01391404
O       15.12819925       7.22454010       0.21474656       4.00000000      -0.00122667       0.01000468      -0.01341833
O        9.24879287       4.05081780       4.81110699       4.00000000       0.00080013       0.00893150      -0.01232947
O       15.12819925       4.05081780       4.81110699       4.00000000      -0.00006788       0.00862965      -0.01371709
O       12.47495159       8.96603085       4.81110699       4.00000000      -0.00018692       0.01030498      -0.01534974
O       18.35435798       8.96603085       4.81110699       4.00000000       0.00036098       0.00968637      -0.01355100
O        7.09636398       5.12094207       1.14909010       4.00000000      -0.00503962       0.02620134       0.00628455
O       12.97577036       5.12094207       1.14909010       4.00000000      -0.00752408       0.01418195      -0.00022883
O       10.32252270      10.03615511       1.14909010       4.00000000       0.00012316       0.02262854      -0.00259142
O       16.20192908      10.03615511       1.14909010       4.00000000      -0.00788429       0.01346178       0.00027639
O       10.32252270       6.86243282       5.74545054       4.00000000      -0.00829746       0.01373252      -0.00022703
O       16.20192908       6.86243282       5.74545054       4.00000000      -0.00739244       0.01450771      -0.00073765
O       13.54868142      11.77764587       5.74545054       4.00000000      -0.00806375       0.01451953      -0.00022189
O       19.42808780      11.77764587       5.74545054       4.00000000      -0.00827535       0.01509161       0.00044223
O        8.17506304       2.18091283       2.51292678       4.00000000       0.00894307      -0.00733124      -0.00997871
O       14.05446942       2.18091283       2.51292678       4.00000000       0.00855252      -0.00592999      -0.01437015
O       11.40122176       7.09612588       2.51292678       4.00000000       0.00816300      -0.00368876      -0.01395852
O       17.28062814       7.09612588       2.51292678       4.00000000       0.00683759      -0.00406517      -0.01270305
O       11.40122176       3.92240358       7.10928721       4.00000000       0.00895181      -0.00066103      -0.00582972
O       17.28062814       3.92240358       7.10928721       4.00000000       0.00815528      -0.00582843      -0.01383074
O       14.62738048       8.83761663       7.10928721       4.00000000       0.00853221      -0.00395410      -0.01457379
O       20.50678687       8.83761663       7.10928721       4.00000000       0.00683862      -0.00534404      -0.01335997
O        4.15666079       4.47579097       2.08343366       4.00000000      -0.00972186       0.00361471       0.01429688
O       10.03606717       4.47579097       2.08343366       4.00000000      -0.00663576       0.00591508       0.01416498
O        7.38281951       9.39100402       2.08343366       4.00000000      -0.00632620       0.00595750       0.01302829
O       13.26222589       9.39100402       2.08343366       4.00000000      -0.00971414       0.00827664       0.01025793
O        7.38281951       6.21728172       6.67979410       4.00000000      -0.00704997       0.00509156       0.01421229
O       13.26222589       6.21728172       6.67979410       4.00000000      -0.00862914       0.00177997       0.00565154
O       10.60897823      11.13249477       6.67979410       4.00000000      -0.00833089       0.00616371       0.01285834
O       16.48838462      11.13249477       6.67979410       4.00000000      -0.00705948       0.00662239       0.01358108
O        6.30908968       4.34737676       4.38161388       4.00000000      -0.00038824      -0.00981802       0.01433930
O       12.18849606       4.34737676       4.38161388       4.00000000      -0.00039672      -0.01008695       0.01388884
O        9.53524840       9.26258981       4.38161388       4.00000000       0.00051396      -0.00865793       0.01241329
O       15.41465478       9.26258981       4.38161388       4.00000000      -0.00029156      -0.00913976       0.01316842
O        9.53524840       6.08886751       8.97797431       4.00000000       0.00843759      -0.01363688       0.01569967
O       15.41465478       6.08886751       8.97797431       4.00000000       0.01282004      -0.01208393       0.01204896
O       12.76140712      11.00408056       8.97797431       4.00000000      -0.00002160      -0.00780278       0.01275756
O       18.64081350      11.00408056       8.97797431       4.00000000      -0.00032010      -0.00803470       0.01362273
O        5.23535984       1.53576173       3.44727032       4.00000000       0.00692989      -0.01498850      -0.00487018
O       11.11476623       1.53576173       3.44727032       4.00000000       0.00847487      -0.01454653       0.00039492
O        8.46151857       6.45097478       3.44727032       4.00000000       0.00874201      -0.01357131       0.00156400
O       14.34092495       6.45097478       3.44727032       4.00000000       0.00732662      -0.01422309      -0.00096314
O        8.46151857       3.27725249       8.04363076       4.00000000       0.00919221      -0.01371504       0.00116060
O       14.34092495       3.27725249       8.04363076       4.00000000       0.00512652      -0.01380040       0.00123130
O       11.68767729       8.19246553       8.04363076       4.00000000       0.00018409      -0.00715281      -0.00724383
O       17.56708367       8.19246553       8.04363076       4.00000000       0.00870807      -0.01355820       0.00009924
