
     Program PWSCF v.6.5 starts on  7Jul2021 at 15:38:37 

     This program is part of the open-source Quantum ESPRESSO suite
     for quantum simulation of materials; please cite
         "P. Giannozzi et al., J. Phys.:Condens. Matter 21 395502 (2009);
         "P. Giannozzi et al., J. Phys.:Condens. Matter 29 465901 (2017);
          URL http://www.quantum-espresso.org", 
     in publications or presentations arising from this work. More details at
     http://www.quantum-espresso.org/quote

     Parallel version (MPI), running on    40 processors

     MPI processes distributed on     1 nodes
     R & G space division:  proc/nbgrp/npool/nimage =      40
     Reading input from pw.inp

     Current dimensions of program PWSCF are:
     Max number of different atomic species (ntypx) = 10
     Max number of k-points (npk) =  40000
     Max angular momentum in pseudopotentials (lmaxx) =  3
     Message from routine cell_base_init:
     DEPRECATED: use true lattice parameter, not A to a.u. conversion factor
     Message from routine read_upf::
     Pseudo file In.UPF has been fixed on the fly.
To avoid this message in the future, permanently fix 
 your pseudo files following these instructions: 
https://gitlab.com/QEF/q-e/blob/master/upftools/how_to_fix_upf.md
     Message from routine read_upf::
     Pseudo file O.UPF has been fixed on the fly.
To avoid this message in the future, permanently fix 
 your pseudo files following these instructions: 
https://gitlab.com/QEF/q-e/blob/master/upftools/how_to_fix_upf.md

     IMPORTANT: XC functional enforced from input :
     Exchange-correlation= PBE
                           (   1   4   3   4   0   0   0)
     Any further DFT definition will be discarded
     Please, verify this is what you really want

               file In.UPF: wavefunction(s)  5S renormalized
               file O.UPF: wavefunction(s)  2P renormalized

     Subspace diagonalization in iterative solution of the eigenvalue problem:
     a serial algorithm will be used

 
     Parallelization info
     --------------------
     sticks:   dense  smooth     PW     G-vecs:    dense   smooth      PW
     Min         426     213     56                35896    12693    1724
     Max         427     214     57                35900    12695    1728
     Sum       17077    8543   2257              1435947   507749   69037
 


     bravais-lattice index     =            0
     lattice parameter (alat)  =       1.8897  a.u.
     unit-cell volume          =    7170.9467 (a.u.)^3
     number of atoms/cell      =           80
     number of atomic types    =            2
     number of electrons       =       704.00
     number of Kohn-Sham states=          372
     kinetic-energy cutoff     =      65.0000  Ry
     charge density cutoff     =     520.0000  Ry
     convergence threshold     =      7.3E-09
     mixing beta               =       0.5000
     number of iterations used =           10  plain     mixing
     Exchange-correlation= PBE
                           (   1   4   3   4   0   0   0)

     celldm(1)=   1.889726  celldm(2)=   0.000000  celldm(3)=   0.000000
     celldm(4)=   0.000000  celldm(5)=   0.000000  celldm(6)=   0.000000

     crystal axes: (cart. coord. in units of alat)
               a(1) = (  11.758813   0.000000   0.000000 )  
               a(2) = (   6.452317   9.830426   0.000000 )  
               a(3) = (   6.452317   3.482982   9.192721 )  

     reciprocal axes: (cart. coord. in units 2 pi/alat)
               b(1) = (  0.085043 -0.055819 -0.038542 )  
               b(2) = (  0.000000  0.101725 -0.038542 )  
               b(3) = (  0.000000  0.000000  0.108782 )  


     PseudoPot. # 1 for In read from file:
     /gpfs/nobackup/projects/quantumchemistry/rom_cq/SOAPML/data/In2O3/espresso_calculations/psp_copy/In.UPF
     MD5 check sum: b236236d7d320b3bac520569a9051741
     Pseudo is Ultrasoft + core correction, Zval = 13.0
     Generated using "atomic" code by A. Dal Corso v.5.0.99 svn rev. 10869
     Using radial grid of 1241 points,  6 beta functions with: 
                l(1) =   0
                l(2) =   0
                l(3) =   1
                l(4) =   1
                l(5) =   2
                l(6) =   2
     Q(r) pseudized with 0 coefficients 


     PseudoPot. # 2 for O  read from file:
     /gpfs/nobackup/projects/quantumchemistry/rom_cq/SOAPML/data/In2O3/espresso_calculations/psp_copy/O.UPF
     MD5 check sum: 3f94a2996a3169367d6eb21d9b593f20
     Pseudo is Projector augmented-wave + core cor, Zval =  6.0
     Generated using "atomic" code by A. Dal Corso v.5.0.99 svn rev. 10869
     Shape of augmentation charge: BESSEL
     Using radial grid of 1095 points,  4 beta functions with: 
                l(1) =   0
                l(2) =   0
                l(3) =   1
                l(4) =   1
     Q(r) pseudized with 0 coefficients 


     atomic species   valence    mass     pseudopotential
        In1           13.00   114.81800     In( 1.00)
        O1             6.00    15.99900     O ( 1.00)

     Starting magnetic structure 
     atomic species   magnetization
        In1          0.769
        O1           0.667

     No symmetry found



   Cartesian axes

     site n.     atom                  positions (alat units)
         1           In1 tau(   1) = (  10.5709386   5.7062263   3.9400691  )
         2           In1 tau(   2) = (  16.4503450   5.7062263   3.9400691  )
         3           In1 tau(   3) = (  13.7970974  10.6214394   3.9400691  )
         4           In1 tau(   4) = (  19.6765037  10.6214394   3.9400691  )
         5           In1 tau(   5) = (  13.7970974   7.4477171   8.5364296  )
         6           In1 tau(   6) = (  19.6765037   7.4477171   8.5364296  )
         7           In1 tau(   7) = (  17.0232561  12.3629302   8.5364296  )
         8           In1 tau(   8) = (  22.9026625  12.3629302   8.5364296  )
         9           In1 tau(   9) = (   7.9266471   4.2788294   2.9544716  )
        10           In1 tau(  10) = (  13.8060535   4.2788294   2.9544716  )
        11           In1 tau(  11) = (  11.1528058   9.1940424   2.9544716  )
        12           In1 tau(  12) = (  17.0322122   9.1940424   2.9544716  )
        13           In1 tau(  13) = (  11.1528058   6.0203201   7.5508320  )
        14           In1 tau(  14) = (  17.0322122   6.0203201   7.5508320  )
        15           In1 tau(  15) = (  14.3789645  10.9355332   7.5508320  )
        16           In1 tau(  16) = (  20.2583709  10.9355332   7.5508320  )
        17           In1 tau(  17) = (   4.4050767   2.3778745   1.6418889  )
        18           In1 tau(  18) = (  10.2844831   2.3778745   1.6418889  )
        19           In1 tau(  19) = (   7.6312354   7.2930875   1.6418889  )
        20           In1 tau(  20) = (  13.5106418   7.2930875   1.6418889  )
        21           In1 tau(  21) = (   7.6312354   4.1193652   6.2382493  )
        22           In1 tau(  22) = (  13.5106418   4.1193652   6.2382493  )
        23           In1 tau(  23) = (  10.8573942   9.0345782   6.2382493  )
        24           In1 tau(  24) = (  16.7368005   9.0345782   6.2382493  )
        25           In1 tau(  25) = (   1.7607852   0.9504775   0.6562913  )
        26           In1 tau(  26) = (   7.6401916   0.9504775   0.6562913  )
        27           In1 tau(  27) = (   4.9869439   5.8656905   0.6562913  )
        28           In1 tau(  28) = (  10.8663503   5.8656905   0.6562913  )
        29           In1 tau(  29) = (   4.9869439   2.6919682   5.2526518  )
        30           In1 tau(  30) = (  10.8663503   2.6919682   5.2526518  )
        31           In1 tau(  31) = (   8.2131026   7.6071813   5.2526518  )
        32           In1 tau(  32) = (  14.0925090   7.6071813   5.2526518  )
        33           O1  tau(  33) = (   6.0332177   2.3093270   0.2147466  )
        34           O1  tau(  34) = (  11.9020405   2.3093270   0.2147466  )
        35           O1  tau(  35) = (   9.2487929   7.2245401   0.2147466  )
        36           O1  tau(  36) = (  15.1281992   7.2245401   0.2147466  )
        37           O1  tau(  37) = (   9.2487929   4.0508178   4.8111070  )
        38           O1  tau(  38) = (  15.1281992   4.0508178   4.8111070  )
        39           O1  tau(  39) = (  12.4749516   8.9660308   4.8111070  )
        40           O1  tau(  40) = (  18.3543580   8.9660308   4.8111070  )
        41           O1  tau(  41) = (   7.0963640   5.1209421   1.1490901  )
        42           O1  tau(  42) = (  12.9757704   5.1209421   1.1490901  )
        43           O1  tau(  43) = (  10.3225227  10.0361551   1.1490901  )
        44           O1  tau(  44) = (  16.2019291  10.0361551   1.1490901  )
        45           O1  tau(  45) = (  10.3225227   6.8624328   5.7454505  )
        46           O1  tau(  46) = (  16.2019291   6.8624328   5.7454505  )
        47           O1  tau(  47) = (  13.5486814  11.7776459   5.7454505  )
        48           O1  tau(  48) = (  19.4280878  11.7776459   5.7454505  )
        49           O1  tau(  49) = (   8.1750630   2.1809128   2.5129268  )
        50           O1  tau(  50) = (  14.0544694   2.1809128   2.5129268  )
        51           O1  tau(  51) = (  11.4012218   7.0961259   2.5129268  )
        52           O1  tau(  52) = (  17.2806281   7.0961259   2.5129268  )
        53           O1  tau(  53) = (  11.4012218   3.9224036   7.1092872  )
        54           O1  tau(  54) = (  17.2806281   3.9224036   7.1092872  )
        55           O1  tau(  55) = (  14.6273805   8.8376166   7.1092872  )
        56           O1  tau(  56) = (  20.5067869   8.8376166   7.1092872  )
        57           O1  tau(  57) = (   4.1566608   4.4757910   2.0834337  )
        58           O1  tau(  58) = (  10.0360672   4.4757910   2.0834337  )
        59           O1  tau(  59) = (   7.3828195   9.3910040   2.0834337  )
        60           O1  tau(  60) = (  13.2622259   9.3910040   2.0834337  )
        61           O1  tau(  61) = (   7.3828195   6.2172817   6.6797941  )
        62           O1  tau(  62) = (  13.2622259   6.2172817   6.6797941  )
        63           O1  tau(  63) = (  10.6089782  11.1324948   6.6797941  )
        64           O1  tau(  64) = (  16.4883846  11.1324948   6.6797941  )
        65           O1  tau(  65) = (   6.3090897   4.3473768   4.3816139  )
        66           O1  tau(  66) = (  12.1884961   4.3473768   4.3816139  )
        67           O1  tau(  67) = (   9.5352484   9.2625898   4.3816139  )
        68           O1  tau(  68) = (  15.4146548   9.2625898   4.3816139  )
        69           O1  tau(  69) = (   9.5352484   6.0888675   8.9779743  )
        70           O1  tau(  70) = (  15.4146548   6.0888675   8.9779743  )
        71           O1  tau(  71) = (  12.7614071  11.0040806   8.9779743  )
        72           O1  tau(  72) = (  18.6408135  11.0040806   8.9779743  )
        73           O1  tau(  73) = (   5.2353598   1.5357617   3.4472703  )
        74           O1  tau(  74) = (  11.1147662   1.5357617   3.4472703  )
        75           O1  tau(  75) = (   8.4615186   6.4509748   3.4472703  )
        76           O1  tau(  76) = (  14.3409250   6.4509748   3.4472703  )
        77           O1  tau(  77) = (   8.4615186   3.2772525   8.0436308  )
        78           O1  tau(  78) = (  14.3409249   3.2772525   8.0436308  )
        79           O1  tau(  79) = (  11.6876773   8.1924655   8.0436308  )
        80           O1  tau(  80) = (  17.5670837   8.1924655   8.0436308  )

     number of k points=    14  Gaussian smearing, width (Ry)=  0.0073
                       cart. coord. in units 2pi/alat
        k(    1) = (   0.0000000   0.0000000   0.0000000), wk =   0.0370370
        k(    2) = (   0.0000000   0.0000000   0.0362606), wk =   0.0740741
        k(    3) = (   0.0000000   0.0339083  -0.0128473), wk =   0.0740741
        k(    4) = (   0.0000000   0.0339083   0.0234132), wk =   0.0740741
        k(    5) = (   0.0000000   0.0339083  -0.0491079), wk =   0.0740741
        k(    6) = (   0.0283475  -0.0186062  -0.0128473), wk =   0.0740741
        k(    7) = (   0.0283475  -0.0186062   0.0234132), wk =   0.0740741
        k(    8) = (   0.0283475  -0.0186062  -0.0491079), wk =   0.0740741
        k(    9) = (   0.0283475   0.0153021  -0.0256947), wk =   0.0740741
        k(   10) = (   0.0283475   0.0153021   0.0105659), wk =   0.0740741
        k(   11) = (   0.0283475   0.0153021  -0.0619553), wk =   0.0740741
        k(   12) = (   0.0283475  -0.0525146   0.0000000), wk =   0.0740741
        k(   13) = (   0.0283475  -0.0525146   0.0362606), wk =   0.0740741
        k(   14) = (   0.0283475  -0.0525146  -0.0362606), wk =   0.0740741

     Dense  grid:  1435947 G-vectors     FFT dimensions: ( 162, 162, 162)

     Smooth grid:   507749 G-vectors     FFT dimensions: ( 120, 120, 120)

     Estimated max dynamical RAM per process >     564.05 MB

     Estimated total dynamical RAM >      22.03 GB
     Generating pointlists ...
     new r_m :   0.8870 (alat units)  1.6762 (a.u.) for type    1
     new r_m :   0.8870 (alat units)  1.6762 (a.u.) for type    2

     Initial potential from superposition of free atoms

     starting charge  703.88090, renormalised to  704.00000
     Starting wfcs are  480 randomized atomic wfcs
     Checking if some PAW data can be deallocated... 

     total cpu time spent up to now is       43.1 secs

     Self-consistent Calculation

     iteration #  1     ecut=    65.00 Ry     beta= 0.50
     Davidson diagonalization with overlap
     ethr =  1.00E-02,  avg # of iterations =  2.0

     total cpu time spent up to now is      146.7 secs

     total energy              =   -6615.14917515 Ry
     Harris-Foulkes estimate   =   -6585.53665825 Ry
     estimated scf accuracy    <      75.38070833 Ry

     total magnetization       =    11.95 Bohr mag/cell
     absolute magnetization    =    29.06 Bohr mag/cell

     iteration #  2     ecut=    65.00 Ry     beta= 0.50
     Davidson diagonalization with overlap
     ethr =  1.00E-02,  avg # of iterations =  2.1

     total cpu time spent up to now is      261.9 secs

     total energy              =   -6630.79043236 Ry
     Harris-Foulkes estimate   =   -6623.52779841 Ry
     estimated scf accuracy    <      20.67087267 Ry

     total magnetization       =     4.40 Bohr mag/cell
     absolute magnetization    =    16.99 Bohr mag/cell

     iteration #  3     ecut=    65.00 Ry     beta= 0.50
     Davidson diagonalization with overlap
     ethr =  2.94E-03,  avg # of iterations =  2.0

     total cpu time spent up to now is      379.8 secs

     total energy              =   -6636.30842935 Ry
     Harris-Foulkes estimate   =   -6633.86488016 Ry
     estimated scf accuracy    <       6.32263310 Ry

     total magnetization       =     0.07 Bohr mag/cell
     absolute magnetization    =    11.26 Bohr mag/cell

     iteration #  4     ecut=    65.00 Ry     beta= 0.50
     Davidson diagonalization with overlap
     ethr =  8.98E-04,  avg # of iterations =  2.0

     total cpu time spent up to now is      490.4 secs

     total energy              =   -6636.90504293 Ry
     Harris-Foulkes estimate   =   -6636.98437513 Ry
     estimated scf accuracy    <       0.24342213 Ry

     total magnetization       =     0.00 Bohr mag/cell
     absolute magnetization    =     3.72 Bohr mag/cell

     iteration #  5     ecut=    65.00 Ry     beta= 0.50
     Davidson diagonalization with overlap
     ethr =  3.46E-05,  avg # of iterations =  8.3

     total cpu time spent up to now is      842.2 secs

     total energy              =   -6637.01948309 Ry
     Harris-Foulkes estimate   =   -6637.01057311 Ry
     estimated scf accuracy    <       0.03498192 Ry

     total magnetization       =     0.00 Bohr mag/cell
     absolute magnetization    =     3.15 Bohr mag/cell

     iteration #  6     ecut=    65.00 Ry     beta= 0.50
     Davidson diagonalization with overlap
     ethr =  4.97E-06,  avg # of iterations = 10.0

     total cpu time spent up to now is     1155.9 secs

     total energy              =   -6637.03419992 Ry
     Harris-Foulkes estimate   =   -6637.03056044 Ry
     estimated scf accuracy    <       0.00749751 Ry

     total magnetization       =     0.00 Bohr mag/cell
     absolute magnetization    =     1.63 Bohr mag/cell

     iteration #  7     ecut=    65.00 Ry     beta= 0.50
     Davidson diagonalization with overlap
     ethr =  1.06E-06,  avg # of iterations =  5.5

     total cpu time spent up to now is     1361.3 secs

     total energy              =   -6637.03661964 Ry
     Harris-Foulkes estimate   =   -6637.03652530 Ry
     estimated scf accuracy    <       0.00248583 Ry

     total magnetization       =     0.00 Bohr mag/cell
     absolute magnetization    =     0.70 Bohr mag/cell

     iteration #  8     ecut=    65.00 Ry     beta= 0.50
     Davidson diagonalization with overlap
     ethr =  3.53E-07,  avg # of iterations =  2.5

     total cpu time spent up to now is     1492.9 secs

     total energy              =   -6637.03730532 Ry
     Harris-Foulkes estimate   =   -6637.03727970 Ry
     estimated scf accuracy    <       0.00018232 Ry

     total magnetization       =     0.00 Bohr mag/cell
     absolute magnetization    =     0.27 Bohr mag/cell

     iteration #  9     ecut=    65.00 Ry     beta= 0.50
     Davidson diagonalization with overlap
     ethr =  2.59E-08,  avg # of iterations =  3.6

     total cpu time spent up to now is     1717.8 secs

     total energy              =   -6637.03742024 Ry
     Harris-Foulkes estimate   =   -6637.03741611 Ry
     estimated scf accuracy    <       0.00002657 Ry

     total magnetization       =     0.00 Bohr mag/cell
     absolute magnetization    =     0.08 Bohr mag/cell

     iteration # 10     ecut=    65.00 Ry     beta= 0.50
     Davidson diagonalization with overlap
     ethr =  3.77E-09,  avg # of iterations =  3.0

     total cpu time spent up to now is     1867.9 secs

     total energy              =   -6637.03742970 Ry
     Harris-Foulkes estimate   =   -6637.03742969 Ry
     estimated scf accuracy    <       0.00001031 Ry

     total magnetization       =     0.00 Bohr mag/cell
     absolute magnetization    =     0.04 Bohr mag/cell

     iteration # 11     ecut=    65.00 Ry     beta= 0.50
     Davidson diagonalization with overlap
     ethr =  1.47E-09,  avg # of iterations =  3.0

     total cpu time spent up to now is     2002.9 secs

     total energy              =   -6637.03743314 Ry
     Harris-Foulkes estimate   =   -6637.03743217 Ry
     estimated scf accuracy    <       0.00000137 Ry

     total magnetization       =     0.00 Bohr mag/cell
     absolute magnetization    =     0.02 Bohr mag/cell

     iteration # 12     ecut=    65.00 Ry     beta= 0.50
     Davidson diagonalization with overlap
     ethr =  1.95E-10,  avg # of iterations =  3.0

     total cpu time spent up to now is     2192.5 secs

     total energy              =   -6637.03743391 Ry
     Harris-Foulkes estimate   =   -6637.03743383 Ry
     estimated scf accuracy    <       0.00000010 Ry

     total magnetization       =     0.00 Bohr mag/cell
     absolute magnetization    =     0.01 Bohr mag/cell

     iteration # 13     ecut=    65.00 Ry     beta= 0.50
     Davidson diagonalization with overlap
     ethr =  1.48E-11,  avg # of iterations =  3.0

     total cpu time spent up to now is     2366.1 secs

     total energy              =   -6637.03743399 Ry
     Harris-Foulkes estimate   =   -6637.03743396 Ry
     estimated scf accuracy    <       0.00000003 Ry

     total magnetization       =     0.00 Bohr mag/cell
     absolute magnetization    =     0.00 Bohr mag/cell

     iteration # 14     ecut=    65.00 Ry     beta= 0.50
     Davidson diagonalization with overlap
     ethr =  3.69E-12,  avg # of iterations =  3.0
 
     Magnetic moment per site:
     atom:    1    charge:    9.3755    magn:    0.0000    constr:    0.0000
     atom:    2    charge:    9.3755    magn:    0.0000    constr:    0.0000
     atom:    3    charge:    9.3755    magn:    0.0000    constr:    0.0000
     atom:    4    charge:    9.3755    magn:    0.0000    constr:    0.0000
     atom:    5    charge:    9.3757    magn:    0.0000    constr:    0.0000
     atom:    6    charge:    9.3755    magn:    0.0000    constr:    0.0000
     atom:    7    charge:    9.3755    magn:    0.0000    constr:    0.0000
     atom:    8    charge:    9.3755    magn:    0.0000    constr:    0.0000
     atom:    9    charge:    9.3754    magn:    0.0000    constr:    0.0000
     atom:   10    charge:    9.3754    magn:    0.0000    constr:    0.0000
     atom:   11    charge:    9.3754    magn:    0.0000    constr:    0.0000
     atom:   12    charge:    9.3754    magn:    0.0000    constr:    0.0000
     atom:   13    charge:    9.3752    magn:    0.0000    constr:    0.0000
     atom:   14    charge:    9.3754    magn:    0.0000    constr:    0.0000
     atom:   15    charge:    9.3754    magn:    0.0000    constr:    0.0000
     atom:   16    charge:    9.3754    magn:    0.0000    constr:    0.0000
     atom:   17    charge:    9.3749    magn:    0.0000    constr:    0.0000
     atom:   18    charge:    9.3754    magn:    0.0000    constr:    0.0000
     atom:   19    charge:    9.3754    magn:    0.0000    constr:    0.0000
     atom:   20    charge:    9.3754    magn:    0.0000    constr:    0.0000
     atom:   21    charge:    9.3754    magn:    0.0000    constr:    0.0000
     atom:   22    charge:    9.3754    magn:    0.0000    constr:    0.0000
     atom:   23    charge:    9.3754    magn:    0.0000    constr:    0.0000
     atom:   24    charge:    9.3754    magn:    0.0000    constr:    0.0000
     atom:   25    charge:    9.3755    magn:    0.0000    constr:    0.0000
     atom:   26    charge:    9.3760    magn:    0.0000    constr:    0.0000
     atom:   27    charge:    9.3755    magn:    0.0000    constr:    0.0000
     atom:   28    charge:    9.3755    magn:    0.0000    constr:    0.0000
     atom:   29    charge:    9.3755    magn:    0.0000    constr:    0.0000
     atom:   30    charge:    9.3755    magn:    0.0000    constr:    0.0000
     atom:   31    charge:    9.3755    magn:    0.0000    constr:    0.0000
     atom:   32    charge:    9.3755    magn:    0.0000    constr:    0.0000
     atom:   33    charge:    5.7866    magn:    0.0000    constr:    0.0000
     atom:   34    charge:    5.7865    magn:    0.0000    constr:    0.0000
     atom:   35    charge:    5.7865    magn:    0.0000    constr:    0.0000
     atom:   36    charge:    5.7865    magn:    0.0000    constr:    0.0000
     atom:   37    charge:    5.7865    magn:    0.0000    constr:    0.0000
     atom:   38    charge:    5.7865    magn:    0.0000    constr:    0.0000
     atom:   39    charge:    5.7865    magn:    0.0000    constr:    0.0000
     atom:   40    charge:    5.7865    magn:    0.0000    constr:    0.0000
     atom:   41    charge:    5.7866    magn:    0.0000    constr:    0.0000
     atom:   42    charge:    5.7865    magn:    0.0000    constr:    0.0000
     atom:   43    charge:    5.7864    magn:    0.0000    constr:    0.0000
     atom:   44    charge:    5.7865    magn:    0.0000    constr:    0.0000
     atom:   45    charge:    5.7865    magn:    0.0000    constr:    0.0000
     atom:   46    charge:    5.7865    magn:    0.0000    constr:    0.0000
     atom:   47    charge:    5.7865    magn:    0.0000    constr:    0.0000
     atom:   48    charge:    5.7865    magn:    0.0000    constr:    0.0000
     atom:   49    charge:    5.7866    magn:    0.0000    constr:    0.0000
     atom:   50    charge:    5.7866    magn:    0.0000    constr:    0.0000
     atom:   51    charge:    5.7865    magn:    0.0000    constr:    0.0000
     atom:   52    charge:    5.7865    magn:    0.0000    constr:    0.0000
     atom:   53    charge:    5.7865    magn:    0.0000    constr:    0.0000
     atom:   54    charge:    5.7865    magn:    0.0000    constr:    0.0000
     atom:   55    charge:    5.7865    magn:    0.0000    constr:    0.0000
     atom:   56    charge:    5.7865    magn:    0.0000    constr:    0.0000
     atom:   57    charge:    5.7864    magn:    0.0000    constr:    0.0000
     atom:   58    charge:    5.7865    magn:    0.0000    constr:    0.0000
     atom:   59    charge:    5.7865    magn:    0.0000    constr:    0.0000
     atom:   60    charge:    5.7866    magn:    0.0000    constr:    0.0000
     atom:   61    charge:    5.7865    magn:    0.0000    constr:    0.0000
     atom:   62    charge:    5.7865    magn:    0.0000    constr:    0.0000
     atom:   63    charge:    5.7865    magn:    0.0000    constr:    0.0000
     atom:   64    charge:    5.7865    magn:    0.0000    constr:    0.0000
     atom:   65    charge:    5.7865    magn:    0.0000    constr:    0.0000
     atom:   66    charge:    5.7865    magn:    0.0000    constr:    0.0000
     atom:   67    charge:    5.7865    magn:    0.0000    constr:    0.0000
     atom:   68    charge:    5.7865    magn:    0.0000    constr:    0.0000
     atom:   69    charge:    5.7863    magn:    0.0000    constr:    0.0000
     atom:   70    charge:    5.7867    magn:    0.0000    constr:    0.0000
     atom:   71    charge:    5.7865    magn:    0.0000    constr:    0.0000
     atom:   72    charge:    5.7865    magn:    0.0000    constr:    0.0000
     atom:   73    charge:    5.7865    magn:    0.0000    constr:    0.0000
     atom:   74    charge:    5.7865    magn:    0.0000    constr:    0.0000
     atom:   75    charge:    5.7865    magn:    0.0000    constr:    0.0000
     atom:   76    charge:    5.7865    magn:    0.0000    constr:    0.0000
     atom:   77    charge:    5.7865    magn:    0.0000    constr:    0.0000
     atom:   78    charge:    5.7866    magn:    0.0000    constr:    0.0000
     atom:   79    charge:    5.7865    magn:    0.0000    constr:    0.0000
     atom:   80    charge:    5.7865    magn:    0.0000    constr:    0.0000

     total cpu time spent up to now is     2505.8 secs

     End of self-consistent calculation

 ------ SPIN UP ------------


          k = 0.0000 0.0000 0.0000 ( 63431 PWs)   bands (ev):

    -9.2349  -8.8502  -8.8499  -8.8496  -8.7306  -8.7299  -8.7291  -8.7290
    -8.7289  -8.7287  -8.7279  -8.7274  -8.6133  -8.6131  -8.6129  -8.4661
    -8.4659  -8.4655  -8.4469  -8.4467  -8.3633  -8.3627  -8.3623  -8.3622
    -8.3618  -8.3615  -8.3517  -8.3515  -8.3514  -8.3513  -8.3341  -8.3336
    -8.3335  -8.3290  -8.3287  -8.3283  -8.3229  -8.3225  -8.3221  -8.3217
    -8.3213  -8.3207  -8.2515  -8.2512  -8.1625  -8.1615  -8.1613  -8.1610
    -4.3191  -4.3190  -4.2876  -4.2873  -4.2869  -4.2706  -4.2705  -4.2700
    -4.2696  -4.2692  -4.2690  -4.2478  -4.2476  -4.2474  -4.2331  -4.2328
    -4.2206  -4.2205  -4.2202  -4.2184  -4.2183  -4.2180  -4.2180  -4.1959
    -4.1898  -4.1896  -4.1893  -4.1851  -4.1850  -4.1807  -4.1805  -4.1802
    -4.1606  -4.1602  -4.1600  -4.1597  -4.1596  -4.1591  -4.1425  -4.1422
    -4.1420  -4.1292  -4.1289  -4.1286  -4.1263  -4.1263  -4.1261  -4.1192
    -4.1189  -4.1185  -4.1180  -4.1175  -4.1173  -4.0988  -4.0984  -4.0982
    -4.0977  -4.0975  -4.0971  -4.0800  -4.0798  -4.0797  -4.0737  -4.0735
    -4.0733  -4.0732  -4.0674  -4.0542  -4.0542  -4.0200  -4.0193  -4.0185
    -4.0184  -4.0181  -4.0177  -4.0174  -4.0167  -3.9790  -3.9790  -3.9696
    -3.9694  -3.9691  -3.9682  -3.9681  -3.9678  -3.9676  -3.9672  -3.9670
    -3.9537  -3.9534  -3.9530  -3.9368  -3.9364  -3.9361  -3.9320  -3.9317
    -3.9314  -3.8919  -3.8918  -3.8915  -3.8915  -3.8792  -3.8791  -3.8776
    -3.8698  -3.8696  -3.8691  -3.8689  -3.8683  -3.8682  -3.8643  -3.8634
    -3.8630  -3.8625  -3.8622  -3.8615  -3.8611  -3.8504  -3.8502  -3.8499
    -3.8350  -3.8348  -3.8345  -3.7970  -3.7965  -3.7961  -3.7869  -3.7863
    -3.7355  -3.7351  -3.7347  -3.6925  -3.6923  -3.6922  -3.6035  -3.6034
    -3.4811  -3.4805  -3.4797  -3.4797  -3.4790  -3.4783  -3.3562  -3.3558
    -3.3552  -3.3549  -3.3215  -3.3210  -3.3204  -3.3089  -3.3087  -3.3079
    -3.3076  -3.3068  -3.3063  -2.9666  -2.9665  -2.8519  -2.8514  -2.8508
     2.6321   3.0017   3.1884   3.1887   3.1889   3.1892   3.1893   3.1897
     3.2073   3.2081   3.2090   3.2849   3.2862   3.7034   3.7041   3.7047
     3.9298   3.9309   3.9311   3.9314   3.9316   3.9327   4.2662   4.2664
     4.4409   4.4415   4.4422   4.4485   4.4492   4.4499   4.5725   4.5729
     4.8950   4.8954   4.8959   4.9670   5.2028   5.3147   5.3149   5.3151
     5.3153   5.3603   5.3610   5.3617   5.3801   5.3806   5.3811   5.4437
     5.4442   5.4446   5.4448   5.4453   5.4457   5.5922   5.5922   5.8005
     5.9222   5.9224   5.9232   5.9232   5.9237   5.9241   5.9311   5.9316
     5.9326   6.0342   6.0346   6.0350   6.2285   6.2288   6.2290   6.2303
     6.2308   6.6518   6.6529   6.6531   6.6533   6.6535   6.6546   7.0615
     7.0621   7.0622   7.0628   7.0651   7.0655   7.0658   7.1496   7.1499
     7.1500   7.1696   7.1700   7.1703   7.1705   7.1708   7.1709   7.1720
     7.1727   7.1736   7.2593   7.2606   7.2611   7.2611   7.2617   7.2629
     7.3040   7.3042   7.3044   7.3663   7.3671   7.3713   7.3716   7.3720
     7.3722   7.3727   7.3730   7.5626   7.5626   7.5627   7.6608   7.7388
     7.7391   7.7395   7.7469   7.7471   7.8527   7.8527   7.8963   7.8965
     7.8965   7.8967   7.9875   7.9878   7.9881   7.9965   7.9967   8.0251
     8.0255   8.0264   8.0264   8.0273   8.0278   8.0399   8.0401   8.0404
     9.0252  12.1629  12.1637  12.6844  12.6869  12.6878  12.6880  12.6889
    12.6913  12.8656  12.8675  12.8696  13.2425  13.2438  13.2450  13.4055
    13.6022  13.6049  13.6069  13.6076

          k = 0.0000 0.0000 0.0363 ( 63479 PWs)   bands (ev):

    -9.1660  -8.9792  -8.8433  -8.8425  -8.8421  -8.8075  -8.8060  -8.8055
    -8.6436  -8.6434  -8.6430  -8.6130  -8.6116  -8.6113  -8.4863  -8.4522
    -8.4515  -8.4471  -8.4380  -8.4326  -8.4137  -8.4124  -8.4068  -8.4036
    -8.3909  -8.3872  -8.3689  -8.3676  -8.3604  -8.3533  -8.3524  -8.3262
    -8.3256  -8.3251  -8.3242  -8.3235  -8.3229  -8.3111  -8.3059  -8.2691
    -8.2659  -8.2541  -8.2535  -8.2494  -8.1926  -8.1886  -8.1876  -8.1869
    -4.3027  -4.2929  -4.2885  -4.2840  -4.2836  -4.2824  -4.2814  -4.2809
    -4.2672  -4.2581  -4.2577  -4.2524  -4.2516  -4.2511  -4.2298  -4.2272
    -4.2261  -4.2254  -4.2187  -4.2184  -4.2134  -4.2100  -4.2038  -4.2013
    -4.2006  -4.1975  -4.1972  -4.1895  -4.1835  -4.1811  -4.1690  -4.1647
    -4.1644  -4.1642  -4.1638  -4.1578  -4.1570  -4.1566  -4.1532  -4.1522
    -4.1495  -4.1468  -4.1465  -4.1445  -4.1398  -4.1251  -4.1247  -4.1214
    -4.1203  -4.1196  -4.1068  -4.1045  -4.1040  -4.1017  -4.0958  -4.0955
    -4.0887  -4.0865  -4.0863  -4.0763  -4.0719  -4.0692  -4.0598  -4.0592
    -4.0497  -4.0462  -4.0401  -4.0346  -4.0307  -4.0302  -4.0298  -4.0257
    -4.0244  -4.0220  -4.0205  -4.0091  -4.0082  -3.9915  -3.9909  -3.9907
    -3.9902  -3.9855  -3.9747  -3.9738  -3.9724  -3.9714  -3.9631  -3.9624
    -3.9570  -3.9561  -3.9475  -3.9467  -3.9407  -3.9344  -3.9300  -3.9273
    -3.9131  -3.9060  -3.9044  -3.9041  -3.9032  -3.8983  -3.8975  -3.8968
    -3.8923  -3.8854  -3.8769  -3.8739  -3.8719  -3.8704  -3.8632  -3.8625
    -3.8617  -3.8609  -3.8480  -3.8475  -3.8436  -3.8427  -3.8342  -3.8261
    -3.8246  -3.8098  -3.8090  -3.7997  -3.7957  -3.7953  -3.7755  -3.7536
    -3.7310  -3.6987  -3.6930  -3.6921  -3.6677  -3.6291  -3.6277  -3.6273
    -3.5992  -3.5889  -3.5727  -3.5723  -3.5631  -3.5455  -3.5109  -3.5102
    -3.3691  -3.3677  -3.3305  -3.3296  -3.2681  -3.2227  -3.2032  -3.1253
    -3.1240  -3.1183  -3.0787  -3.0664  -2.9996  -2.9352  -2.9343  -2.9084
     2.7456   2.9938   3.0004   3.2030   3.2093   3.2138   3.3036   3.3044
     3.3087   3.3095   3.3839   3.3846   3.4941   3.5239   3.5744   3.5753
     3.6334   3.6338   3.7993   3.9332   3.9580   3.9587   3.9619   4.1327
     4.2487   4.2497   4.5225   4.5233   4.6125   4.6221   4.6311   4.6906
     4.7748   4.9830   4.9833   5.0967   5.1081   5.1248   5.1816   5.2819
     5.3099   5.3104   5.3203   5.3209   5.3636   5.3641   5.3931   5.4329
     5.5085   5.6185   5.6191   5.6546   5.6801   5.6875   5.8112   5.8119
     5.8418   5.8442   5.9702   5.9707   5.9712   6.0234   6.0242   6.1282
     6.1292   6.1615   6.1711   6.2012   6.2229   6.2495   6.2501   6.2637
     6.4130   6.4140   6.4811   6.5286   6.5380   6.5850   6.6400   6.6865
     6.6873   6.7788   6.7799   6.8995   6.9273   6.9344   6.9619   6.9634
     7.0074   7.0481   7.0486   7.1169   7.1173   7.1788   7.2045   7.2053
     7.2271   7.2279   7.2541   7.2561   7.2653   7.3003   7.3033   7.4325
     7.4364   7.4381   7.4707   7.4933   7.5337   7.5565   7.5575   7.5792
     7.5803   7.5810   7.6156   7.6260   7.6283   7.6548   7.6604   7.6622
     7.6710   7.7188   7.7199   7.7203   7.7853   7.7857   7.7995   7.8005
     7.8575   7.8825   7.9093   7.9097   7.9135   7.9151   7.9165   7.9176
     7.9297   7.9592   7.9603   7.9643   8.0094   8.0105   8.0379   8.0870
     9.9452  11.3430  12.1317  12.3739  12.3756  12.4895  12.5318  12.5338
    12.7593  13.2079  13.2107  13.4280  13.4308  13.5742  13.5960  13.6639
    13.6669  13.6694  13.7223  13.7381

          k = 0.0000 0.0339-0.0128 ( 63479 PWs)   bands (ev):

    -9.1660  -8.9792  -8.8431  -8.8427  -8.8422  -8.8074  -8.8061  -8.8057
    -8.6437  -8.6432  -8.6430  -8.6133  -8.6113  -8.6111  -8.4862  -8.4523
    -8.4515  -8.4470  -8.4378  -8.4328  -8.4138  -8.4125  -8.4067  -8.4034
    -8.3911  -8.3873  -8.3690  -8.3677  -8.3603  -8.3535  -8.3525  -8.3266
    -8.3254  -8.3250  -8.3246  -8.3233  -8.3227  -8.3112  -8.3057  -8.2688
    -8.2656  -8.2541  -8.2534  -8.2496  -8.1922  -8.1888  -8.1876  -8.1872
    -4.3027  -4.2929  -4.2885  -4.2841  -4.2836  -4.2823  -4.2814  -4.2810
    -4.2671  -4.2581  -4.2577  -4.2524  -4.2517  -4.2511  -4.2299  -4.2270
    -4.2261  -4.2256  -4.2186  -4.2183  -4.2133  -4.2099  -4.2037  -4.2014
    -4.2007  -4.1974  -4.1972  -4.1896  -4.1834  -4.1812  -4.1690  -4.1647
    -4.1645  -4.1639  -4.1638  -4.1577  -4.1572  -4.1566  -4.1532  -4.1521
    -4.1496  -4.1469  -4.1465  -4.1443  -4.1399  -4.1250  -4.1246  -4.1214
    -4.1204  -4.1197  -4.1068  -4.1046  -4.1041  -4.1018  -4.0956  -4.0952
    -4.0887  -4.0864  -4.0861  -4.0763  -4.0720  -4.0693  -4.0601  -4.0592
    -4.0498  -4.0462  -4.0401  -4.0346  -4.0306  -4.0301  -4.0297  -4.0256
    -4.0245  -4.0221  -4.0205  -4.0091  -4.0082  -3.9915  -3.9908  -3.9906
    -3.9903  -3.9856  -3.9746  -3.9739  -3.9723  -3.9714  -3.9630  -3.9624
    -3.9570  -3.9561  -3.9475  -3.9466  -3.9407  -3.9345  -3.9300  -3.9273
    -3.9131  -3.9060  -3.9047  -3.9038  -3.9033  -3.8982  -3.8977  -3.8967
    -3.8922  -3.8854  -3.8769  -3.8738  -3.8719  -3.8704  -3.8634  -3.8623
    -3.8617  -3.8611  -3.8480  -3.8475  -3.8436  -3.8426  -3.8342  -3.8261
    -3.8246  -3.8097  -3.8091  -3.7997  -3.7956  -3.7954  -3.7755  -3.7537
    -3.7310  -3.6986  -3.6931  -3.6922  -3.6678  -3.6289  -3.6276  -3.6271
    -3.5991  -3.5890  -3.5728  -3.5724  -3.5632  -3.5455  -3.5108  -3.5101
    -3.3692  -3.3678  -3.3307  -3.3297  -3.2681  -3.2225  -3.2030  -3.1252
    -3.1240  -3.1182  -3.0788  -3.0664  -2.9996  -2.9351  -2.9342  -2.9086
     2.7453   2.9941   3.0009   3.2044   3.2101   3.2133   3.3028   3.3040
     3.3082   3.3087   3.3842   3.3849   3.4945   3.5234   3.5746   3.5754
     3.6332   3.6336   3.7987   3.9332   3.9578   3.9586   3.9613   4.1324
     4.2492   4.2503   4.5231   4.5239   4.6125   4.6221   4.6310   4.6907
     4.7750   4.9828   4.9832   5.0969   5.1086   5.1250   5.1815   5.2823
     5.3092   5.3097   5.3200   5.3206   5.3641   5.3646   5.3927   5.4330
     5.5078   5.6180   5.6186   5.6538   5.6798   5.6879   5.8110   5.8117
     5.8418   5.8452   5.9706   5.9710   5.9718   6.0241   6.0249   6.1284
     6.1294   6.1609   6.1717   6.2013   6.2232   6.2500   6.2506   6.2623
     6.4138   6.4148   6.4813   6.5290   6.5376   6.5839   6.6401   6.6859
     6.6867   6.7784   6.7796   6.8991   6.9266   6.9352   6.9613   6.9627
     7.0073   7.0481   7.0487   7.1167   7.1170   7.1791   7.2045   7.2053
     7.2273   7.2280   7.2537   7.2564   7.2653   7.3009   7.3038   7.4325
     7.4362   7.4378   7.4709   7.4929   7.5336   7.5568   7.5578   7.5795
     7.5805   7.5813   7.6154   7.6256   7.6281   7.6548   7.6600   7.6617
     7.6715   7.7188   7.7196   7.7203   7.7855   7.7859   7.7995   7.8005
     7.8575   7.8826   7.9094   7.9099   7.9136   7.9150   7.9168   7.9179
     7.9296   7.9591   7.9602   7.9645   8.0091   8.0102   8.0380   8.0870
     9.9452  11.3431  12.1315  12.3739  12.3755  12.4895  12.5317  12.5337
    12.7596  13.2079  13.2107  13.4277  13.4305  13.5742  13.5963  13.6636
    13.6661  13.6695  13.7227  13.7370

          k = 0.0000 0.0339 0.0234 ( 63480 PWs)   bands (ev):

    -9.1481  -8.9571  -8.8762  -8.8748  -8.8640  -8.8639  -8.7806  -8.7802
    -8.6532  -8.6527  -8.5916  -8.5915  -8.5737  -8.5721  -8.5520  -8.4640
    -8.4573  -8.4572  -8.4396  -8.4395  -8.4272  -8.4252  -8.4239  -8.4083
    -8.3926  -8.3924  -8.3606  -8.3552  -8.3472  -8.3385  -8.3384  -8.3284
    -8.3243  -8.3158  -8.3068  -8.3014  -8.3013  -8.2867  -8.2862  -8.2850
    -8.2736  -8.2735  -8.2642  -8.2379  -8.2155  -8.2010  -8.2005  -8.1942
    -4.3121  -4.2963  -4.2862  -4.2814  -4.2779  -4.2775  -4.2766  -4.2762
    -4.2739  -4.2543  -4.2539  -4.2516  -4.2513  -4.2407  -4.2379  -4.2336
    -4.2285  -4.2190  -4.2159  -4.2141  -4.2138  -4.2093  -4.2049  -4.2048
    -4.2022  -4.1895  -4.1854  -4.1849  -4.1844  -4.1808  -4.1787  -4.1739
    -4.1721  -4.1717  -4.1692  -4.1609  -4.1606  -4.1509  -4.1507  -4.1505
    -4.1494  -4.1490  -4.1461  -4.1459  -4.1345  -4.1304  -4.1219  -4.1218
    -4.1176  -4.1091  -4.1087  -4.1040  -4.1023  -4.1020  -4.1001  -4.0995
    -4.0849  -4.0843  -4.0838  -4.0837  -4.0831  -4.0795  -4.0654  -4.0545
    -4.0512  -4.0381  -4.0371  -4.0357  -4.0356  -4.0334  -4.0221  -4.0174
    -4.0082  -4.0076  -4.0075  -4.0045  -4.0038  -3.9949  -3.9948  -3.9828
    -3.9819  -3.9814  -3.9807  -3.9773  -3.9770  -3.9748  -3.9633  -3.9627
    -3.9623  -3.9614  -3.9609  -3.9446  -3.9445  -3.9394  -3.9337  -3.9307
    -3.9226  -3.9112  -3.9066  -3.9056  -3.9052  -3.9040  -3.9036  -3.8935
    -3.8906  -3.8801  -3.8721  -3.8711  -3.8634  -3.8619  -3.8591  -3.8585
    -3.8558  -3.8551  -3.8518  -3.8505  -3.8501  -3.8487  -3.8482  -3.8161
    -3.8082  -3.8078  -3.7920  -3.7888  -3.7880  -3.7691  -3.7687  -3.7588
    -3.7492  -3.7489  -3.7209  -3.7203  -3.6937  -3.6770  -3.6737  -3.6544
    -3.6432  -3.6431  -3.5569  -3.5239  -3.5229  -3.5084  -3.4090  -3.4090
    -3.3843  -3.3132  -3.3103  -3.3099  -3.2603  -3.2296  -3.2295  -3.2044
    -3.2040  -3.1478  -3.0470  -3.0278  -2.9701  -2.9698  -2.9492  -2.8915
     2.7515   3.0182   3.0716   3.1338   3.1348   3.1611   3.3350   3.3775
     3.3779   3.3793   3.3939   3.3948   3.4030   3.4197   3.5299   3.6166
     3.6167   3.7403   3.7409   3.8927   4.0152   4.0426   4.0565   4.0572
     4.2111   4.2112   4.3968   4.3970   4.5584   4.6194   4.7922   4.8345
     4.9068   4.9377   5.0436   5.0719   5.0723   5.1762   5.1765   5.2201
     5.2225   5.2232   5.2778   5.2781   5.2893   5.3792   5.3793   5.3970
     5.4599   5.5368   5.6512   5.6520   5.7237   5.7384   5.7387   5.7834
     5.7894   5.7910   5.8793   5.9615   6.0582   6.0935   6.0941   6.1485
     6.1624   6.1776   6.2458   6.2500   6.2509   6.4252   6.4262   6.4310
     6.4513   6.4907   6.4915   6.4939   6.5135   6.7009   6.7173   6.7390
     6.7392   6.7894   6.7894   6.8506   6.9521   6.9523   6.9701   6.9752
     6.9782   7.0173   7.0175   7.0456   7.0458   7.0525   7.0778   7.0874
     7.1074   7.2341   7.2345   7.2354   7.2358   7.3021   7.3031   7.3042
     7.3855   7.3998   7.4322   7.4558   7.4562   7.4938   7.5183   7.5184
     7.5540   7.5958   7.6005   7.6236   7.6616   7.6620   7.6794   7.7072
     7.7090   7.7608   7.7632   7.7638   7.8012   7.8037   7.8076   7.8255
     7.8257   7.8964   7.8964   7.9042   7.9107   7.9313   7.9587   7.9588
     7.9716   7.9756   7.9758   7.9939   8.0060   8.0117   8.0547   8.0547
    10.1424  11.7302  11.7869  11.9633  12.0620  12.0622  13.0100  13.0553
    13.0555  13.3112  13.3134  13.3555  13.3565  13.5106  13.5140  13.5784
    13.6373  13.6532  13.6793  13.6800

          k = 0.0000 0.0339-0.0491 ( 63475 PWs)   bands (ev):

    -9.0600  -9.0131  -9.0131  -8.8857  -8.8856  -8.7277  -8.7178  -8.7172
    -8.7165  -8.7160  -8.7033  -8.5734  -8.5729  -8.4954  -8.4953  -8.4587
    -8.4499  -8.4282  -8.4224  -8.4223  -8.4206  -8.4205  -8.4155  -8.4145
    -8.3978  -8.3976  -8.3883  -8.3875  -8.3765  -8.3708  -8.3707  -8.3642
    -8.3127  -8.3121  -8.3064  -8.3061  -8.3012  -8.2630  -8.2619  -8.2609
    -8.2553  -8.2549  -8.2305  -8.2298  -8.2292  -8.2287  -8.2219  -8.2217
    -4.2947  -4.2944  -4.2851  -4.2841  -4.2797  -4.2777  -4.2721  -4.2717
    -4.2701  -4.2588  -4.2557  -4.2556  -4.2444  -4.2441  -4.2341  -4.2338
    -4.2284  -4.2279  -4.2241  -4.2233  -4.2230  -4.2166  -4.2097  -4.2091
    -4.1951  -4.1948  -4.1945  -4.1858  -4.1853  -4.1765  -4.1759  -4.1753
    -4.1662  -4.1656  -4.1638  -4.1604  -4.1599  -4.1593  -4.1564  -4.1561
    -4.1543  -4.1542  -4.1356  -4.1352  -4.1337  -4.1330  -4.1197  -4.1190
    -4.1144  -4.1142  -4.0990  -4.0987  -4.0973  -4.0966  -4.0956  -4.0943
    -4.0937  -4.0868  -4.0700  -4.0695  -4.0641  -4.0636  -4.0617  -4.0546
    -4.0474  -4.0315  -4.0309  -4.0302  -4.0297  -4.0229  -4.0223  -4.0146
    -4.0122  -4.0089  -4.0085  -4.0070  -4.0063  -4.0055  -4.0031  -4.0024
    -3.9885  -3.9876  -3.9870  -3.9842  -3.9774  -3.9773  -3.9680  -3.9677
    -3.9659  -3.9566  -3.9565  -3.9552  -3.9432  -3.9429  -3.9424  -3.9414
    -3.9287  -3.9282  -3.9242  -3.9239  -3.9220  -3.8911  -3.8907  -3.8859
    -3.8843  -3.8841  -3.8746  -3.8733  -3.8596  -3.8592  -3.8559  -3.8557
    -3.8508  -3.8501  -3.8418  -3.8386  -3.8373  -3.8366  -3.8336  -3.8333
    -3.7887  -3.7853  -3.7845  -3.7806  -3.7803  -3.7789  -3.7619  -3.7615
    -3.7458  -3.7455  -3.7200  -3.7193  -3.6915  -3.6830  -3.6829  -3.6634
    -3.6261  -3.6251  -3.6081  -3.6065  -3.5836  -3.4928  -3.4556  -3.4554
    -3.3641  -3.3636  -3.2802  -3.2543  -3.2531  -3.1854  -3.1849  -3.1518
    -3.1257  -3.1033  -3.0691  -3.0687  -2.9773  -2.9768  -2.9612  -2.9607
     2.9158   3.0049   3.0054   3.0309   3.1858   3.1863   3.2261   3.2275
     3.4620   3.4633   3.4951   3.5496   3.5501   3.5531   3.5542   3.6125
     3.7050   3.7061   3.7283   3.7290   3.7701   3.8878   3.9006   3.9017
     3.9294   4.2381   4.2386   4.6820   4.7773   4.7774   4.8906   4.8909
     4.9936   4.9942   5.0372   5.0490   5.0493   5.1478   5.1484   5.1753
     5.1757   5.1901   5.2677   5.3491   5.3493   5.3633   5.3640   5.3895
     5.5065   5.6313   5.6327   5.6788   5.6793   5.7567   5.7570   5.7671
     5.7678   5.8075   5.9019   5.9029   5.9446   5.9453   6.1449   6.1617
     6.1759   6.1767   6.2330   6.3349   6.3360   6.4191   6.4193   6.4774
     6.5136   6.5144   6.5156   6.5176   6.5189   6.5514   6.7051   6.7058
     6.7115   6.8661   6.8663   6.8806   6.8811   6.8855   6.8856   6.9157
     6.9158   7.0380   7.0415   7.0480   7.0494   7.1023   7.1033   7.1480
     7.1885   7.2024   7.2035   7.2140   7.2150   7.3479   7.3483   7.3530
     7.3535   7.3583   7.3596   7.3704   7.4099   7.4586   7.4590   7.5675
     7.5749   7.5759   7.6014   7.6019   7.6094   7.6519   7.7011   7.7022
     7.7150   7.7154   7.8185   7.8190   7.8243   7.8248   7.8270   7.8686
     7.8691   7.8785   7.8787   7.8959   7.8964   7.9205   7.9400   7.9418
     7.9426   7.9534   7.9553   7.9560   7.9992   8.0337   8.0339   8.0895
    10.8384  11.1921  11.1925  11.9924  11.9945  12.8850  12.8867  12.9122
    13.0024  13.0044  13.2680  13.2713  13.5427  13.5590  13.5607  13.6360
    13.6385  13.6716  13.6740  13.8468

          k = 0.0283-0.0186-0.0128 ( 63479 PWs)   bands (ev):

    -9.1660  -8.9792  -8.8432  -8.8425  -8.8422  -8.8075  -8.8059  -8.8058
    -8.6438  -8.6433  -8.6429  -8.6132  -8.6115  -8.6111  -8.4863  -8.4520
    -8.4518  -8.4470  -8.4379  -8.4327  -8.4133  -8.4131  -8.4066  -8.4035
    -8.3909  -8.3873  -8.3683  -8.3683  -8.3604  -8.3530  -8.3528  -8.3264
    -8.3257  -8.3249  -8.3244  -8.3235  -8.3226  -8.3112  -8.3058  -8.2690
    -8.2656  -8.2540  -8.2536  -8.2494  -8.1924  -8.1888  -8.1875  -8.1870
    -4.3027  -4.2929  -4.2885  -4.2840  -4.2836  -4.2825  -4.2813  -4.2808
    -4.2671  -4.2580  -4.2578  -4.2521  -4.2516  -4.2513  -4.2301  -4.2274
    -4.2260  -4.2250  -4.2186  -4.2185  -4.2134  -4.2100  -4.2037  -4.2012
    -4.2009  -4.1975  -4.1971  -4.1896  -4.1834  -4.1811  -4.1690  -4.1646
    -4.1645  -4.1641  -4.1638  -4.1578  -4.1570  -4.1566  -4.1530  -4.1523
    -4.1496  -4.1466  -4.1465  -4.1445  -4.1399  -4.1250  -4.1247  -4.1214
    -4.1201  -4.1200  -4.1068  -4.1044  -4.1042  -4.1018  -4.0957  -4.0953
    -4.0887  -4.0865  -4.0861  -4.0762  -4.0720  -4.0693  -4.0600  -4.0592
    -4.0497  -4.0462  -4.0401  -4.0346  -4.0304  -4.0302  -4.0301  -4.0253
    -4.0247  -4.0221  -4.0204  -4.0087  -4.0086  -3.9913  -3.9910  -3.9906
    -3.9904  -3.9856  -3.9746  -3.9738  -3.9719  -3.9718  -3.9628  -3.9627
    -3.9571  -3.9561  -3.9472  -3.9470  -3.9407  -3.9345  -3.9299  -3.9274
    -3.9131  -3.9059  -3.9044  -3.9040  -3.9033  -3.8979  -3.8977  -3.8971
    -3.8922  -3.8854  -3.8770  -3.8740  -3.8718  -3.8701  -3.8633  -3.8624
    -3.8618  -3.8610  -3.8479  -3.8475  -3.8433  -3.8429  -3.8341  -3.8257
    -3.8251  -3.8096  -3.8091  -3.7998  -3.7963  -3.7947  -3.7754  -3.7537
    -3.7311  -3.6986  -3.6927  -3.6925  -3.6677  -3.6290  -3.6276  -3.6273
    -3.5992  -3.5889  -3.5726  -3.5725  -3.5631  -3.5455  -3.5108  -3.5102
    -3.3690  -3.3680  -3.3303  -3.3299  -3.2681  -3.2226  -3.2031  -3.1248
    -3.1244  -3.1182  -3.0788  -3.0663  -2.9996  -2.9349  -2.9346  -2.9085
     2.7455   2.9939   3.0007   3.2038   3.2096   3.2135   3.3031   3.3046
     3.3083   3.3089   3.3843   3.3846   3.4943   3.5237   3.5747   3.5752
     3.6330   3.6339   3.7990   3.9332   3.9580   3.9585   3.9617   4.1326
     4.2493   4.2496   4.5231   4.5233   4.6125   4.6221   4.6310   4.6906
     4.7749   4.9829   4.9832   5.0968   5.1084   5.1249   5.1815   5.2821
     5.3096   5.3100   5.3203   5.3207   5.3640   5.3642   5.3929   5.4330
     5.5082   5.6185   5.6186   5.6542   5.6799   5.6878   5.8113   5.8115
     5.8418   5.8447   5.9708   5.9709   5.9710   6.0238   6.0245   6.1287
     6.1289   6.1612   6.1714   6.2012   6.2231   6.2497   6.2504   6.2630
     6.4139   6.4139   6.4812   6.5288   6.5378   6.5845   6.6400   6.6864
     6.6868   6.7791   6.7792   6.8994   6.9270   6.9348   6.9622   6.9624
     7.0074   7.0483   7.0484   7.1169   7.1170   7.1790   7.2045   7.2053
     7.2273   7.2280   7.2539   7.2563   7.2653   7.3006   7.3035   7.4325
     7.4370   7.4372   7.4708   7.4931   7.5336   7.5569   7.5575   7.5791
     7.5804   7.5813   7.6155   7.6259   7.6281   7.6548   7.6610   7.6612
     7.6713   7.7194   7.7195   7.7200   7.7855   7.7857   7.7997   7.8003
     7.8575   7.8825   7.9095   7.9096   7.9138   7.9150   7.9171   7.9172
     7.9297   7.9597   7.9598   7.9643   8.0098   8.0099   8.0380   8.0870
     9.9452  11.3431  12.1316  12.3743  12.3751  12.4895  12.5325  12.5330
    12.7595  13.2084  13.2102  13.4279  13.4306  13.5740  13.5963  13.6640
    13.6657  13.6702  13.7229  13.7374

          k = 0.0283-0.0186 0.0234 ( 63480 PWs)   bands (ev):

    -9.1481  -8.9570  -8.8762  -8.8748  -8.8642  -8.8639  -8.7807  -8.7802
    -8.6533  -8.6525  -8.5917  -8.5910  -8.5736  -8.5720  -8.5521  -8.4639
    -8.4578  -8.4568  -8.4400  -8.4391  -8.4272  -8.4254  -8.4238  -8.4084
    -8.3929  -8.3920  -8.3604  -8.3551  -8.3474  -8.3393  -8.3375  -8.3284
    -8.3244  -8.3156  -8.3068  -8.3018  -8.3010  -8.2869  -8.2863  -8.2850
    -8.2739  -8.2731  -8.2644  -8.2378  -8.2154  -8.2010  -8.2006  -8.1940
    -4.3121  -4.2963  -4.2861  -4.2815  -4.2782  -4.2769  -4.2767  -4.2763
    -4.2738  -4.2541  -4.2539  -4.2518  -4.2514  -4.2406  -4.2379  -4.2336
    -4.2286  -4.2190  -4.2158  -4.2142  -4.2137  -4.2092  -4.2052  -4.2045
    -4.2022  -4.1895  -4.1854  -4.1852  -4.1840  -4.1809  -4.1788  -4.1740
    -4.1721  -4.1717  -4.1691  -4.1611  -4.1602  -4.1515  -4.1507  -4.1502
    -4.1495  -4.1488  -4.1464  -4.1457  -4.1345  -4.1303  -4.1218  -4.1217
    -4.1176  -4.1092  -4.1087  -4.1040  -4.1026  -4.1019  -4.1001  -4.0994
    -4.0851  -4.0843  -4.0839  -4.0835  -4.0830  -4.0795  -4.0654  -4.0545
    -4.0513  -4.0380  -4.0372  -4.0361  -4.0352  -4.0336  -4.0222  -4.0175
    -4.0085  -4.0080  -4.0067  -4.0044  -4.0037  -3.9954  -3.9943  -3.9823
    -3.9822  -3.9816  -3.9804  -3.9776  -3.9766  -3.9749  -3.9633  -3.9629
    -3.9624  -3.9615  -3.9605  -3.9451  -3.9440  -3.9395  -3.9336  -3.9309
    -3.9226  -3.9112  -3.9066  -3.9059  -3.9051  -3.9041  -3.9033  -3.8935
    -3.8905  -3.8800  -3.8724  -3.8708  -3.8632  -3.8624  -3.8593  -3.8581
    -3.8561  -3.8550  -3.8519  -3.8505  -3.8501  -3.8487  -3.8481  -3.8162
    -3.8084  -3.8076  -3.7919  -3.7889  -3.7880  -3.7696  -3.7682  -3.7588
    -3.7492  -3.7489  -3.7207  -3.7204  -3.6938  -3.6771  -3.6737  -3.6544
    -3.6437  -3.6425  -3.5569  -3.5236  -3.5230  -3.5084  -3.4097  -3.4085
    -3.3842  -3.3131  -3.3110  -3.3094  -3.2603  -3.2299  -3.2289  -3.2046
    -3.2039  -3.1478  -3.0470  -3.0278  -2.9703  -2.9695  -2.9493  -2.8915
     2.7517   3.0188   3.0715   3.1340   3.1347   3.1608   3.3354   3.3770
     3.3783   3.3788   3.3936   3.3950   3.4028   3.4194   3.5303   3.6159
     3.6172   3.7399   3.7410   3.8928   4.0150   4.0425   4.0568   4.0574
     4.2112   4.2115   4.3966   4.3979   4.5584   4.6192   4.7920   4.8345
     4.9067   4.9376   5.0438   5.0719   5.0722   5.1757   5.1770   5.2199
     5.2225   5.2233   5.2776   5.2781   5.2890   5.3790   5.3794   5.3971
     5.4600   5.5371   5.6507   5.6521   5.7235   5.7382   5.7390   5.7836
     5.7897   5.7906   5.8791   5.9619   6.0583   6.0935   6.0944   6.1485
     6.1621   6.1775   6.2456   6.2503   6.2511   6.4255   6.4264   6.4305
     6.4514   6.4910   6.4917   6.4941   6.5135   6.7010   6.7173   6.7385
     6.7397   6.7883   6.7897   6.8506   6.9513   6.9526   6.9702   6.9753
     6.9785   7.0169   7.0180   7.0455   7.0463   7.0523   7.0780   7.0875
     7.1073   7.2336   7.2349   7.2351   7.2357   7.3023   7.3032   7.3042
     7.3854   7.3997   7.4321   7.4557   7.4563   7.4934   7.5182   7.5189
     7.5544   7.5957   7.6002   7.6237   7.6614   7.6622   7.6797   7.7071
     7.7088   7.7608   7.7633   7.7638   7.8013   7.8036   7.8075   7.8255
     7.8257   7.8963   7.8965   7.9043   7.9105   7.9312   7.9584   7.9592
     7.9719   7.9757   7.9759   7.9939   8.0061   8.0117   8.0537   8.0554
    10.1424  11.7302  11.7869  11.9635  12.0614  12.0628  13.0098  13.0539
    13.0567  13.3108  13.3141  13.3546  13.3572  13.5103  13.5138  13.5786
    13.6377  13.6532  13.6785  13.6810

          k = 0.0283-0.0186-0.0491 ( 63475 PWs)   bands (ev):

    -9.0601  -9.0137  -9.0124  -8.8859  -8.8856  -8.7276  -8.7180  -8.7174
    -8.7162  -8.7160  -8.7033  -8.5731  -8.5729  -8.4962  -8.4947  -8.4588
    -8.4499  -8.4279  -8.4229  -8.4225  -8.4206  -8.4201  -8.4151  -8.4147
    -8.3978  -8.3976  -8.3880  -8.3878  -8.3765  -8.3717  -8.3702  -8.3641
    -8.3127  -8.3119  -8.3065  -8.3059  -8.3014  -8.2632  -8.2620  -8.2609
    -8.2551  -8.2549  -8.2304  -8.2300  -8.2296  -8.2283  -8.2225  -8.2210
    -4.2950  -4.2941  -4.2849  -4.2843  -4.2799  -4.2774  -4.2719  -4.2716
    -4.2705  -4.2587  -4.2558  -4.2557  -4.2445  -4.2440  -4.2343  -4.2337
    -4.2283  -4.2277  -4.2246  -4.2234  -4.2228  -4.2165  -4.2097  -4.2092
    -4.1955  -4.1947  -4.1941  -4.1858  -4.1853  -4.1765  -4.1759  -4.1752
    -4.1662  -4.1657  -4.1638  -4.1601  -4.1600  -4.1595  -4.1564  -4.1560
    -4.1543  -4.1542  -4.1356  -4.1353  -4.1337  -4.1329  -4.1198  -4.1191
    -4.1144  -4.1140  -4.0990  -4.0987  -4.0973  -4.0964  -4.0957  -4.0942
    -4.0938  -4.0868  -4.0700  -4.0695  -4.0643  -4.0635  -4.0617  -4.0545
    -4.0474  -4.0315  -4.0309  -4.0304  -4.0298  -4.0228  -4.0222  -4.0146
    -4.0122  -4.0088  -4.0085  -4.0068  -4.0063  -4.0057  -4.0031  -4.0024
    -3.9885  -3.9876  -3.9870  -3.9841  -3.9775  -3.9773  -3.9679  -3.9676
    -3.9661  -3.9570  -3.9564  -3.9549  -3.9434  -3.9432  -3.9420  -3.9415
    -3.9286  -3.9281  -3.9244  -3.9239  -3.9219  -3.8912  -3.8906  -3.8860
    -3.8843  -3.8841  -3.8742  -3.8737  -3.8597  -3.8591  -3.8561  -3.8554
    -3.8508  -3.8501  -3.8417  -3.8386  -3.8374  -3.8367  -3.8338  -3.8332
    -3.7888  -3.7852  -3.7845  -3.7805  -3.7803  -3.7787  -3.7619  -3.7615
    -3.7460  -3.7454  -3.7198  -3.7194  -3.6914  -3.6832  -3.6828  -3.6633
    -3.6260  -3.6252  -3.6076  -3.6070  -3.5837  -3.4930  -3.4558  -3.4550
    -3.3646  -3.3631  -3.2800  -3.2540  -3.2534  -3.1856  -3.1847  -3.1519
    -3.1257  -3.1033  -3.0692  -3.0687  -2.9778  -2.9763  -2.9613  -2.9606
     2.9160   3.0049   3.0063   3.0307   3.1856   3.1861   3.2260   3.2268
     3.4619   3.4630   3.4953   3.5500   3.5502   3.5532   3.5540   3.6124
     3.7056   3.7060   3.7280   3.7290   3.7700   3.8878   3.9008   3.9016
     3.9296   4.2384   4.2387   4.6821   4.7767   4.7779   4.8903   4.8908
     4.9938   4.9941   5.0372   5.0490   5.0496   5.1478   5.1483   5.1753
     5.1756   5.1901   5.2676   5.3490   5.3494   5.3633   5.3640   5.3897
     5.5065   5.6316   5.6322   5.6787   5.6795   5.7567   5.7573   5.7672
     5.7677   5.8080   5.9019   5.9025   5.9450   5.9454   6.1449   6.1618
     6.1758   6.1765   6.2328   6.3351   6.3359   6.4185   6.4190   6.4770
     6.5140   6.5147   6.5151   6.5180   6.5187   6.5516   6.7050   6.7061
     6.7115   6.8654   6.8670   6.8804   6.8813   6.8854   6.8863   6.9156
     6.9164   7.0382   7.0417   7.0481   7.0494   7.1027   7.1029   7.1479
     7.1883   7.2025   7.2030   7.2139   7.2156   7.3473   7.3483   7.3532
     7.3536   7.3588   7.3595   7.3701   7.4099   7.4576   7.4593   7.5676
     7.5751   7.5758   7.6011   7.6018   7.6093   7.6520   7.7014   7.7021
     7.7145   7.7157   7.8181   7.8191   7.8244   7.8247   7.8271   7.8690
     7.8691   7.8781   7.8792   7.8960   7.8963   7.9204   7.9402   7.9420
     7.9423   7.9532   7.9554   7.9558   7.9991   8.0336   8.0342   8.0895
    10.8384  11.1912  11.1933  11.9929  11.9942  12.8849  12.8867  12.9122
    13.0024  13.0043  13.2681  13.2713  13.5427  13.5589  13.5609  13.6359
    13.6387  13.6714  13.6745  13.8466

          k = 0.0283 0.0153-0.0257 ( 63480 PWs)   bands (ev):

    -9.1481  -8.9571  -8.8761  -8.8748  -8.8641  -8.8637  -8.7806  -8.7801
    -8.6534  -8.6526  -8.5920  -8.5912  -8.5738  -8.5722  -8.5519  -8.4640
    -8.4578  -8.4567  -8.4399  -8.4391  -8.4271  -8.4254  -8.4238  -8.4081
    -8.3929  -8.3921  -8.3606  -8.3552  -8.3470  -8.3394  -8.3377  -8.3282
    -8.3245  -8.3159  -8.3069  -8.3017  -8.3008  -8.2868  -8.2865  -8.2846
    -8.2739  -8.2731  -8.2640  -8.2381  -8.2155  -8.2009  -8.2005  -8.1944
    -4.3121  -4.2963  -4.2863  -4.2814  -4.2783  -4.2771  -4.2767  -4.2761
    -4.2739  -4.2540  -4.2539  -4.2517  -4.2513  -4.2406  -4.2380  -4.2334
    -4.2286  -4.2192  -4.2159  -4.2142  -4.2137  -4.2092  -4.2052  -4.2045
    -4.2023  -4.1894  -4.1855  -4.1850  -4.1840  -4.1808  -4.1787  -4.1740
    -4.1719  -4.1715  -4.1692  -4.1613  -4.1604  -4.1515  -4.1506  -4.1503
    -4.1495  -4.1488  -4.1462  -4.1456  -4.1344  -4.1304  -4.1219  -4.1218
    -4.1178  -4.1092  -4.1087  -4.1040  -4.1026  -4.1019  -4.1001  -4.0994
    -4.0851  -4.0843  -4.0839  -4.0837  -4.0830  -4.0794  -4.0653  -4.0545
    -4.0511  -4.0379  -4.0372  -4.0361  -4.0352  -4.0334  -4.0221  -4.0174
    -4.0084  -4.0081  -4.0067  -4.0045  -4.0038  -3.9953  -3.9943  -3.9824
    -3.9821  -3.9817  -3.9804  -3.9777  -3.9766  -3.9750  -3.9635  -3.9628
    -3.9620  -3.9615  -3.9606  -3.9452  -3.9441  -3.9394  -3.9336  -3.9308
    -3.9226  -3.9112  -3.9067  -3.9057  -3.9051  -3.9042  -3.9033  -3.8934
    -3.8906  -3.8800  -3.8725  -3.8708  -3.8632  -3.8624  -3.8592  -3.8580
    -3.8561  -3.8550  -3.8519  -3.8506  -3.8500  -3.8487  -3.8482  -3.8162
    -3.8085  -3.8076  -3.7919  -3.7888  -3.7880  -3.7696  -3.7683  -3.7588
    -3.7492  -3.7488  -3.7208  -3.7204  -3.6937  -3.6770  -3.6737  -3.6545
    -3.6438  -3.6426  -3.5569  -3.5237  -3.5232  -3.5084  -3.4094  -3.4082
    -3.3844  -3.3132  -3.3110  -3.3093  -3.2604  -3.2301  -3.2291  -3.2045
    -3.2039  -3.1478  -3.0470  -3.0277  -2.9703  -2.9696  -2.9493  -2.8914
     2.7513   3.0175   3.0717   3.1341   3.1347   3.1613   3.3346   3.3774
     3.3786   3.3796   3.3937   3.3952   3.4032   3.4200   3.5296   3.6162
     3.6174   3.7402   3.7413   3.8926   4.0154   4.0427   4.0563   4.0570
     4.2107   4.2111   4.3960   4.3972   4.5583   4.6195   4.7924   4.8346
     4.9068   4.9378   5.0434   5.0720   5.0722   5.1758   5.1770   5.2202
     5.2225   5.2233   5.2778   5.2784   5.2895   5.3790   5.3795   5.3970
     5.4598   5.5365   5.6511   5.6524   5.7240   5.7382   5.7390   5.7832
     5.7898   5.7907   5.8795   5.9612   6.0580   6.0931   6.0941   6.1484
     6.1627   6.1777   6.2459   6.2499   6.2507   6.4250   6.4259   6.4314
     6.4513   6.4904   6.4913   6.4938   6.5133   6.7009   6.7172   6.7384
     6.7396   6.7892   6.7905   6.8507   6.9517   6.9530   6.9701   6.9750
     6.9779   7.0169   7.0179   7.0451   7.0458   7.0527   7.0777   7.0874
     7.1075   7.2337   7.2350   7.2354   7.2362   7.3021   7.3031   7.3040
     7.3856   7.4000   7.4322   7.4557   7.4563   7.4942   7.5179   7.5186
     7.5536   7.5959   7.6010   7.6234   7.6615   7.6622   7.6790   7.7072
     7.7093   7.7609   7.7632   7.7637   7.8012   7.8036   7.8077   7.8255
     7.8257   7.8963   7.8965   7.9042   7.9109   7.9314   7.9583   7.9591
     7.9715   7.9755   7.9757   7.9938   8.0058   8.0117   8.0539   8.0557
    10.1424  11.7303  11.7867  11.9632  12.0614  12.0628  13.0101  13.0542
    13.0569  13.3103  13.3136  13.3548  13.3574  13.5109  13.5143  13.5783
    13.6370  13.6531  13.6784  13.6810

          k = 0.0283 0.0153 0.0106 ( 63450 PWs)   bands (ev):

    -9.1702  -8.9888  -8.8373  -8.8370  -8.8367  -8.7963  -8.7961  -8.7958
    -8.6556  -8.6552  -8.6546  -8.6167  -8.6161  -8.6155  -8.4696  -8.4685
    -8.4675  -8.4545  -8.4405  -8.4393  -8.4385  -8.4343  -8.4340  -8.3998
    -8.3996  -8.3331  -8.3326  -8.3319  -8.3284  -8.3278  -8.3274  -8.3262
    -8.3258  -8.3255  -8.3226  -8.3221  -8.3216  -8.3022  -8.3019  -8.2681
    -8.2675  -8.2671  -8.2651  -8.2647  -8.2424  -8.1914  -8.1911  -8.1908
    -4.3074  -4.3073  -4.2839  -4.2832  -4.2826  -4.2799  -4.2793  -4.2788
    -4.2721  -4.2720  -4.2530  -4.2527  -4.2524  -4.2354  -4.2351  -4.2349
    -4.2315  -4.2311  -4.2308  -4.2195  -4.2131  -4.2129  -4.2126  -4.2081
    -4.2012  -4.1810  -4.1807  -4.1804  -4.1792  -4.1783  -4.1774  -4.1720
    -4.1718  -4.1688  -4.1687  -4.1551  -4.1543  -4.1537  -4.1335  -4.1332
    -4.1327  -4.1321  -4.1250  -4.1246  -4.1244  -4.1184  -4.1178  -4.1175
    -4.1162  -4.1160  -4.1156  -4.1033  -4.1030  -4.1028  -4.0918  -4.0915
    -4.0913  -4.0911  -4.0908  -4.0906  -4.0903  -4.0899  -4.0728  -4.0727
    -4.0515  -4.0511  -4.0507  -4.0487  -4.0486  -4.0264  -4.0264  -4.0200
    -4.0193  -4.0186  -3.9888  -3.9883  -3.9879  -3.9821  -3.9814  -3.9810
    -3.9750  -3.9744  -3.9738  -3.9705  -3.9705  -3.9704  -3.9651  -3.9650
    -3.9554  -3.9546  -3.9538  -3.9421  -3.9412  -3.9405  -3.9383  -3.9379
    -3.9374  -3.9293  -3.9292  -3.9038  -3.9034  -3.9030  -3.8763  -3.8762
    -3.8739  -3.8738  -3.8678  -3.8676  -3.8671  -3.8642  -3.8637  -3.8630
    -3.8583  -3.8578  -3.8575  -3.8555  -3.8449  -3.8443  -3.8440  -3.8261
    -3.8236  -3.8138  -3.8130  -3.8122  -3.8040  -3.8034  -3.8031  -3.7780
    -3.7393  -3.7387  -3.7381  -3.7057  -3.7052  -3.7046  -3.6417  -3.6413
    -3.6409  -3.5788  -3.5787  -3.4984  -3.4983  -3.4815  -3.4809  -3.4803
    -3.3199  -3.3192  -3.3186  -3.3014  -3.3009  -3.3004  -3.1770  -3.1769
    -3.1096  -3.1089  -3.1082  -3.0260  -3.0259  -2.9235  -2.9229  -2.9224
     2.7055   2.9264   3.0611   3.0617   3.0623   3.1304   3.1312   3.1320
     3.1979   3.5439   3.5442   3.5446   3.7209   3.7216   3.7222   3.7479
     3.7784   3.7821   3.7828   3.7835   4.0286   4.0289   4.0291   4.1848
     4.1855   4.1862   4.3916   4.3918   4.3925   4.4658   4.4665   4.4672
     4.7584   4.7585   4.9905   4.9910   4.9915   5.2041   5.2046   5.2052
     5.3934   5.3938   5.3941   5.4825   5.4831   5.4837   5.5187   5.5516
     5.5518   5.5521   5.6250   5.6252   5.6255   5.6717   5.7283   5.7284
     5.8340   5.8342   5.8705   6.0501   6.1014   6.1020   6.1027   6.1964
     6.1969   6.1975   6.2561   6.2569   6.2577   6.2900   6.3462   6.3466
     6.3470   6.3742   6.3745   6.3748   6.6587   6.6592   6.7658   6.7663
     6.7668   6.8703   6.8710   6.8717   6.8972   6.8979   6.8985   6.9129
     6.9131   6.9136   6.9141   6.9427   6.9430   6.9434   7.0204   7.0210
     7.1740   7.1746   7.1751   7.2127   7.2131   7.2133   7.4013   7.4017
     7.4021   7.4801   7.4806   7.4812   7.5329   7.5333   7.5338   7.5690
     7.5690   7.6949   7.6955   7.6961   7.7065   7.7068   7.7598   7.7605
     7.7612   7.7629   7.7631   7.7635   7.8201   7.8204   7.8572   7.8579
     7.8586   7.9131   7.9134   7.9320   7.9328   7.9337   7.9602   7.9610
     7.9619   7.9770   7.9771   7.9879   7.9885   7.9892   7.9943   7.9943
     9.8394  11.0546  12.5522  12.5535  12.5548  12.6907  12.6922  12.6937
    12.9559  13.1260  13.1274  13.1288  13.3239  13.3379  13.3398  13.3414
    13.3821  13.3837  13.3854  13.7263

          k = 0.0283 0.0153-0.0620 ( 63474 PWs)   bands (ev):

    -9.0679  -9.0185  -9.0087  -8.8760  -8.8756  -8.7304  -8.7264  -8.7251
    -8.7071  -8.7060  -8.7024  -8.5846  -8.5839  -8.4948  -8.4915  -8.4575
    -8.4515  -8.4501  -8.4489  -8.4479  -8.4388  -8.4310  -8.4214  -8.3875
    -8.3861  -8.3715  -8.3703  -8.3676  -8.3638  -8.3596  -8.3592  -8.3366
    -8.3364  -8.3123  -8.3005  -8.2923  -8.2911  -8.2749  -8.2736  -8.2584
    -8.2457  -8.2443  -8.2425  -8.2404  -8.2386  -8.2361  -8.2304  -8.2299
    -4.3031  -4.3017  -4.2820  -4.2811  -4.2808  -4.2807  -4.2779  -4.2757
    -4.2604  -4.2549  -4.2471  -4.2437  -4.2432  -4.2422  -4.2417  -4.2348
    -4.2327  -4.2278  -4.2266  -4.2232  -4.2227  -4.2224  -4.2192  -4.2129
    -4.1938  -4.1933  -4.1925  -4.1791  -4.1788  -4.1776  -4.1680  -4.1658
    -4.1641  -4.1635  -4.1607  -4.1600  -4.1597  -4.1541  -4.1529  -4.1525
    -4.1481  -4.1434  -4.1353  -4.1349  -4.1318  -4.1223  -4.1218  -4.1200
    -4.1190  -4.1104  -4.1098  -4.1083  -4.1074  -4.1000  -4.0954  -4.0947
    -4.0858  -4.0847  -4.0845  -4.0839  -4.0802  -4.0739  -4.0682  -4.0619
    -4.0593  -4.0590  -4.0470  -4.0309  -4.0302  -4.0236  -4.0193  -4.0147
    -4.0084  -4.0009  -4.0002  -3.9982  -3.9978  -3.9921  -3.9911  -3.9864
    -3.9858  -3.9761  -3.9751  -3.9742  -3.9725  -3.9674  -3.9606  -3.9596
    -3.9565  -3.9537  -3.9526  -3.9519  -3.9485  -3.9429  -3.9424  -3.9389
    -3.9332  -3.9223  -3.9110  -3.9100  -3.8984  -3.8862  -3.8857  -3.8840
    -3.8827  -3.8820  -3.8769  -3.8710  -3.8701  -3.8684  -3.8657  -3.8651
    -3.8626  -3.8538  -3.8501  -3.8495  -3.8438  -3.8425  -3.8416  -3.8184
    -3.8180  -3.8150  -3.8107  -3.7805  -3.7793  -3.7771  -3.7749  -3.7744
    -3.7643  -3.7622  -3.7162  -3.7151  -3.7078  -3.6829  -3.6793  -3.6675
    -3.6665  -3.6302  -3.6298  -3.5236  -3.4980  -3.4974  -3.4430  -3.3767
    -3.3758  -3.3740  -3.3617  -3.3046  -3.2773  -3.1762  -3.1745  -3.1359
    -3.0771  -3.0755  -3.0416  -3.0408  -3.0205  -3.0143  -2.9663  -2.9595
     2.8910   2.8951   2.9242   3.1480   3.1489   3.2109   3.2866   3.2892
     3.3220   3.3228   3.4384   3.4392   3.4768   3.6941   3.7581   3.7583
     3.7809   3.7813   3.8036   3.8043   3.8098   3.8106   3.9018   3.9655
     4.1182   4.1188   4.2770   4.5343   4.5357   4.6883   4.7062   4.7521
     4.8358   4.8935   5.0230   5.0243   5.1378   5.1384   5.1549   5.1774
     5.2324   5.3393   5.3538   5.3543   5.3554   5.3558   5.4495   5.5410
     5.5698   5.5945   5.6020   5.6030   5.6405   5.6412   5.6715   5.6871
     5.8731   6.0033   6.1127   6.1153   6.1232   6.1241   6.1367   6.1381
     6.2685   6.3072   6.3077   6.3086   6.3090   6.3314   6.3478   6.3578
     6.3988   6.4864   6.5091   6.5096   6.5394   6.6155   6.6606   6.6620
     6.6632   6.6902   6.7187   6.7195   6.8083   6.8369   6.8857   6.8871
     6.9134   6.9143   6.9160   6.9853   6.9866   7.0064   7.0684   7.1387
     7.1731   7.1736   7.2590   7.2606   7.2637   7.3283   7.3461   7.3537
     7.4099   7.4128   7.4139   7.5393   7.5428   7.5433   7.5759   7.5807
     7.6107   7.6173   7.6690   7.6696   7.6762   7.6966   7.6990   7.7238
     7.7254   7.7879   7.7889   7.7913   7.8174   7.8232   7.8396   7.8470
     7.8477   7.8488   7.8495   7.9126   7.9316   7.9346   7.9358   7.9382
     7.9402   7.9417   7.9465   7.9506   7.9522   7.9524   7.9942   8.0462
    10.7250  11.0774  11.2567  12.1368  12.1383  12.8118  12.9562  12.9586
    13.2296  13.2658  13.2683  13.3634  13.3655  13.4057  13.4419  13.4450
    13.4690  13.5077  13.7168  13.7192

          k = 0.0283-0.0525 0.0000 ( 63475 PWs)   bands (ev):

    -9.0600  -9.0138  -9.0125  -8.8858  -8.8855  -8.7277  -8.7179  -8.7175
    -8.7162  -8.7159  -8.7032  -8.5733  -8.5731  -8.4959  -8.4945  -8.4588
    -8.4498  -8.4282  -8.4230  -8.4224  -8.4206  -8.4201  -8.4152  -8.4148
    -8.3978  -8.3976  -8.3879  -8.3877  -8.3766  -8.3714  -8.3699  -8.3644
    -8.3129  -8.3121  -8.3067  -8.3061  -8.3009  -8.2630  -8.2620  -8.2608
    -8.2551  -8.2548  -8.2304  -8.2298  -8.2293  -8.2286  -8.2227  -8.2212
    -4.2951  -4.2941  -4.2850  -4.2845  -4.2799  -4.2776  -4.2718  -4.2716
    -4.2704  -4.2588  -4.2558  -4.2555  -4.2445  -4.2440  -4.2343  -4.2338
    -4.2283  -4.2277  -4.2246  -4.2235  -4.2228  -4.2164  -4.2097  -4.2092
    -4.1955  -4.1947  -4.1941  -4.1858  -4.1852  -4.1766  -4.1759  -4.1754
    -4.1662  -4.1657  -4.1636  -4.1603  -4.1600  -4.1597  -4.1564  -4.1561
    -4.1543  -4.1540  -4.1355  -4.1352  -4.1338  -4.1329  -4.1197  -4.1189
    -4.1144  -4.1140  -4.0991  -4.0988  -4.0973  -4.0966  -4.0956  -4.0943
    -4.0939  -4.0868  -4.0699  -4.0694  -4.0644  -4.0635  -4.0616  -4.0546
    -4.0474  -4.0314  -4.0306  -4.0303  -4.0298  -4.0231  -4.0224  -4.0146
    -4.0123  -4.0088  -4.0084  -4.0069  -4.0063  -4.0057  -4.0031  -4.0024
    -3.9885  -3.9878  -3.9869  -3.9841  -3.9775  -3.9773  -3.9679  -3.9675
    -3.9662  -3.9570  -3.9563  -3.9549  -3.9436  -3.9430  -3.9420  -3.9415
    -3.9286  -3.9280  -3.9244  -3.9239  -3.9220  -3.8911  -3.8906  -3.8859
    -3.8844  -3.8841  -3.8742  -3.8737  -3.8597  -3.8590  -3.8561  -3.8555
    -3.8507  -3.8501  -3.8417  -3.8386  -3.8373  -3.8367  -3.8339  -3.8332
    -3.7887  -3.7851  -3.7846  -3.7807  -3.7802  -3.7790  -3.7619  -3.7615
    -3.7459  -3.7453  -3.7199  -3.7194  -3.6915  -3.6831  -3.6827  -3.6633
    -3.6260  -3.6253  -3.6076  -3.6069  -3.5836  -3.4926  -3.4560  -3.4551
    -3.3646  -3.3632  -3.2803  -3.2540  -3.2534  -3.1856  -3.1847  -3.1518
    -3.1256  -3.1033  -3.0691  -3.0687  -2.9778  -2.9762  -2.9614  -2.9606
     2.9157   3.0041   3.0055   3.0312   3.1860   3.1864   3.2268   3.2276
     3.4623   3.4634   3.4949   3.5493   3.5497   3.5535   3.5542   3.6126
     3.7051   3.7055   3.7283   3.7293   3.7701   3.8879   3.9007   3.9014
     3.9294   4.2380   4.2384   4.6819   4.7768   4.7780   4.8906   4.8911
     4.9938   4.9941   5.0372   5.0488   5.0494   5.1480   5.1484   5.1755
     5.1758   5.1901   5.2679   5.3490   5.3493   5.3633   5.3640   5.3894
     5.5065   5.6318   5.6325   5.6786   5.6794   5.7564   5.7570   5.7672
     5.7677   5.8071   5.9024   5.9030   5.9445   5.9449   6.1449   6.1616
     6.1760   6.1767   6.2332   6.3350   6.3358   6.4194   6.4200   6.4778
     6.5141   6.5145   6.5149   6.5179   6.5183   6.5513   6.7049   6.7059
     6.7115   6.8653   6.8670   6.8803   6.8812   6.8851   6.8858   6.9153
     6.9159   7.0376   7.0413   7.0480   7.0493   7.1027   7.1030   7.1482
     7.1888   7.2028   7.2034   7.2134   7.2150   7.3478   7.3487   7.3529
     7.3534   7.3586   7.3593   7.3707   7.4097   7.4583   7.4600   7.5674
     7.5751   7.5756   7.6015   7.6023   7.6094   7.6517   7.7012   7.7018
     7.7147   7.7159   7.8184   7.8194   7.8242   7.8246   7.8269   7.8686
     7.8688   7.8781   7.8790   7.8960   7.8964   7.9206   7.9402   7.9419
     7.9422   7.9533   7.9555   7.9560   7.9994   8.0334   8.0340   8.0896
    10.8384  11.1913  11.1934  11.9927  11.9940  12.8850  12.8868  12.9122
    13.0024  13.0043  13.2675  13.2715  13.5426  13.5588  13.5608  13.6360
    13.6387  13.6711  13.6743  13.8470

          k = 0.0283-0.0525 0.0363 ( 63474 PWs)   bands (ev):

    -9.0679  -9.0184  -9.0086  -8.8761  -8.8758  -8.7306  -8.7265  -8.7252
    -8.7070  -8.7060  -8.7021  -8.5843  -8.5836  -8.4950  -8.4916  -8.4574
    -8.4516  -8.4501  -8.4491  -8.4480  -8.4390  -8.4308  -8.4211  -8.3875
    -8.3861  -8.3715  -8.3705  -8.3679  -8.3641  -8.3595  -8.3591  -8.3364
    -8.3362  -8.3120  -8.3011  -8.2921  -8.2910  -8.2748  -8.2735  -8.2585
    -8.2458  -8.2442  -8.2430  -8.2402  -8.2382  -8.2357  -8.2306  -8.2302
    -4.3030  -4.3016  -4.2820  -4.2812  -4.2810  -4.2806  -4.2778  -4.2757
    -4.2605  -4.2549  -4.2472  -4.2437  -4.2433  -4.2423  -4.2418  -4.2347
    -4.2328  -4.2278  -4.2266  -4.2232  -4.2226  -4.2223  -4.2192  -4.2128
    -4.1939  -4.1936  -4.1925  -4.1792  -4.1789  -4.1776  -4.1678  -4.1659
    -4.1641  -4.1635  -4.1607  -4.1601  -4.1597  -4.1540  -4.1529  -4.1526
    -4.1480  -4.1432  -4.1353  -4.1348  -4.1319  -4.1224  -4.1218  -4.1199
    -4.1189  -4.1103  -4.1095  -4.1082  -4.1075  -4.1001  -4.0954  -4.0947
    -4.0857  -4.0846  -4.0844  -4.0838  -4.0805  -4.0740  -4.0683  -4.0619
    -4.0593  -4.0591  -4.0471  -4.0309  -4.0302  -4.0236  -4.0193  -4.0147
    -4.0084  -4.0009  -4.0001  -3.9982  -3.9977  -3.9921  -3.9911  -3.9865
    -3.9859  -3.9760  -3.9751  -3.9742  -3.9725  -3.9676  -3.9607  -3.9596
    -3.9565  -3.9535  -3.9529  -3.9518  -3.9485  -3.9428  -3.9423  -3.9388
    -3.9332  -3.9224  -3.9110  -3.9099  -3.8984  -3.8862  -3.8856  -3.8839
    -3.8826  -3.8819  -3.8769  -3.8711  -3.8701  -3.8684  -3.8657  -3.8652
    -3.8627  -3.8538  -3.8501  -3.8496  -3.8437  -3.8425  -3.8417  -3.8184
    -3.8180  -3.8150  -3.8108  -3.7805  -3.7793  -3.7771  -3.7750  -3.7745
    -3.7643  -3.7622  -3.7163  -3.7150  -3.7079  -3.6829  -3.6794  -3.6673
    -3.6664  -3.6302  -3.6298  -3.5234  -3.4982  -3.4976  -3.4430  -3.3768
    -3.3758  -3.3740  -3.3618  -3.3045  -3.2773  -3.1763  -3.1746  -3.1354
    -3.0770  -3.0754  -3.0416  -3.0407  -3.0206  -3.0147  -2.9663  -2.9595
     2.8904   2.8960   2.9249   3.1476   3.1485   3.2103   3.2871   3.2904
     3.3212   3.3221   3.4386   3.4394   3.4765   3.6935   3.7587   3.7589
     3.7809   3.7818   3.8029   3.8036   3.8093   3.8103   3.9013   3.9655
     4.1190   4.1195   4.2764   4.5350   4.5363   4.6881   4.7062   4.7524
     4.8357   4.8936   5.0229   5.0242   5.1375   5.1381   5.1553   5.1775
     5.2327   5.3395   5.3539   5.3543   5.3551   5.3557   5.4493   5.5407
     5.5694   5.5946   5.6020   5.6029   5.6402   5.6409   5.6711   5.6873
     5.8722   6.0040   6.1126   6.1149   6.1237   6.1246   6.1365   6.1378
     6.2678   6.3075   6.3081   6.3087   6.3094   6.3316   6.3486   6.3581
     6.3986   6.4862   6.5093   6.5098   6.5400   6.6156   6.6597   6.6623
     6.6633   6.6902   6.7193   6.7201   6.8086   6.8367   6.8851   6.8864
     6.9128   6.9138   6.9159   6.9854   6.9867   7.0065   7.0687   7.1386
     7.1733   7.1738   7.2584   7.2602   7.2632   7.3292   7.3460   7.3535
     7.4103   7.4129   7.4139   7.5390   7.5429   7.5435   7.5761   7.5794
     7.6112   7.6174   7.6689   7.6697   7.6761   7.6962   7.6986   7.7234
     7.7250   7.7881   7.7892   7.7917   7.8173   7.8233   7.8403   7.8471
     7.8478   7.8489   7.8497   7.9130   7.9315   7.9346   7.9358   7.9382
     7.9401   7.9416   7.9462   7.9508   7.9520   7.9523   7.9942   8.0461
    10.7251  11.0774  11.2566  12.1368  12.1382  12.8122  12.9561  12.9585
    13.2296  13.2658  13.2683  13.3635  13.3657  13.4058  13.4417  13.4447
    13.4693  13.5077  13.7165  13.7189

          k = 0.0283-0.0525-0.0363 ( 63474 PWs)   bands (ev):

    -9.0679  -9.0184  -9.0086  -8.8759  -8.8758  -8.7305  -8.7259  -8.7258
    -8.7066  -8.7064  -8.7024  -8.5842  -8.5840  -8.4948  -8.4917  -8.4574
    -8.4509  -8.4508  -8.4486  -8.4482  -8.4389  -8.4310  -8.4212  -8.3868
    -8.3867  -8.3716  -8.3702  -8.3680  -8.3638  -8.3596  -8.3591  -8.3364
    -8.3363  -8.3122  -8.3008  -8.2917  -8.2916  -8.2742  -8.2741  -8.2585
    -8.2450  -8.2450  -8.2428  -8.2400  -8.2388  -8.2358  -8.2304  -8.2301
    -4.3030  -4.3017  -4.2818  -4.2814  -4.2809  -4.2806  -4.2779  -4.2757
    -4.2604  -4.2549  -4.2471  -4.2438  -4.2433  -4.2422  -4.2417  -4.2348
    -4.2327  -4.2274  -4.2271  -4.2231  -4.2228  -4.2223  -4.2191  -4.2128
    -4.1937  -4.1935  -4.1926  -4.1791  -4.1789  -4.1777  -4.1679  -4.1658
    -4.1640  -4.1638  -4.1604  -4.1601  -4.1599  -4.1538  -4.1531  -4.1526
    -4.1481  -4.1433  -4.1353  -4.1348  -4.1319  -4.1224  -4.1220  -4.1197
    -4.1191  -4.1103  -4.1097  -4.1081  -4.1076  -4.1001  -4.0954  -4.0947
    -4.0856  -4.0846  -4.0845  -4.0840  -4.0803  -4.0740  -4.0683  -4.0620
    -4.0597  -4.0586  -4.0470  -4.0307  -4.0304  -4.0236  -4.0193  -4.0147
    -4.0084  -4.0008  -4.0003  -3.9982  -3.9979  -3.9918  -3.9915  -3.9862
    -3.9861  -3.9757  -3.9748  -3.9747  -3.9724  -3.9676  -3.9606  -3.9597
    -3.9567  -3.9534  -3.9525  -3.9523  -3.9485  -3.9427  -3.9424  -3.9388
    -3.9332  -3.9223  -3.9108  -3.9101  -3.8984  -3.8864  -3.8854  -3.8840
    -3.8824  -3.8822  -3.8770  -3.8709  -3.8704  -3.8683  -3.8654  -3.8653
    -3.8626  -3.8538  -3.8499  -3.8497  -3.8439  -3.8422  -3.8420  -3.8181
    -3.8180  -3.8151  -3.8107  -3.7802  -3.7797  -3.7772  -3.7748  -3.7745
    -3.7643  -3.7622  -3.7162  -3.7151  -3.7078  -3.6830  -3.6793  -3.6670
    -3.6668  -3.6301  -3.6300  -3.5235  -3.4979  -3.4977  -3.4430  -3.3763
    -3.3758  -3.3743  -3.3618  -3.3045  -3.2773  -3.1755  -3.1753  -3.1356
    -3.0764  -3.0762  -3.0413  -3.0410  -3.0206  -3.0145  -2.9663  -2.9595
     2.8907   2.8956   2.9246   3.1476   3.1489   3.2106   3.2870   3.2897
     3.3216   3.3225   3.4385   3.4393   3.4766   3.6938   3.7584   3.7586
     3.7805   3.7820   3.8033   3.8038   3.8100   3.8101   3.9015   3.9655
     4.1186   4.1191   4.2768   4.5352   4.5355   4.6882   4.7062   4.7523
     4.8357   4.8935   5.0235   5.0237   5.1377   5.1382   5.1551   5.1774
     5.2325   5.3394   5.3540   5.3543   5.3552   5.3557   5.4494   5.5409
     5.5696   5.5946   5.6024   5.6026   5.6406   5.6408   5.6713   5.6872
     5.8727   6.0036   6.1128   6.1150   6.1236   6.1242   6.1372   6.1373
     6.2682   6.3071   6.3079   6.3085   6.3096   6.3315   6.3482   6.3580
     6.3987   6.4863   6.5092   6.5098   6.5397   6.6156   6.6602   6.6623
     6.6630   6.6902   6.7194   6.7194   6.8085   6.8368   6.8860   6.8862
     6.9134   6.9136   6.9161   6.9858   6.9861   7.0065   7.0686   7.1387
     7.1732   7.1737   7.2595   7.2597   7.2634   7.3288   7.3460   7.3536
     7.4101   7.4130   7.4137   7.5392   7.5430   7.5432   7.5760   7.5800
     7.6110   7.6173   7.6692   7.6694   7.6761   7.6964   7.6988   7.7243
     7.7245   7.7884   7.7887   7.7915   7.8174   7.8232   7.8401   7.8472
     7.8477   7.8487   7.8495   7.9128   7.9315   7.9351   7.9353   7.9380
     7.9409   7.9411   7.9463   7.9508   7.9522   7.9524   7.9942   8.0461
    10.7250  11.0774  11.2567  12.1373  12.1377  12.8120  12.9566  12.9581
    13.2296  13.2665  13.2676  13.3636  13.3656  13.4057  13.4425  13.4441
    13.4692  13.5077  13.7175  13.7180

 ------ SPIN DOWN ----------


          k = 0.0000 0.0000 0.0000 ( 63431 PWs)   bands (ev):

    -9.2349  -8.8502  -8.8499  -8.8496  -8.7305  -8.7299  -8.7291  -8.7290
    -8.7289  -8.7287  -8.7279  -8.7273  -8.6133  -8.6131  -8.6129  -8.4661
    -8.4659  -8.4655  -8.4469  -8.4467  -8.3633  -8.3627  -8.3623  -8.3622
    -8.3617  -8.3614  -8.3517  -8.3515  -8.3514  -8.3513  -8.3341  -8.3336
    -8.3334  -8.3290  -8.3287  -8.3283  -8.3228  -8.3225  -8.3221  -8.3217
    -8.3213  -8.3207  -8.2514  -8.2511  -8.1624  -8.1614  -8.1613  -8.1610
    -4.3191  -4.3190  -4.2876  -4.2873  -4.2869  -4.2706  -4.2705  -4.2700
    -4.2696  -4.2692  -4.2690  -4.2479  -4.2477  -4.2474  -4.2332  -4.2328
    -4.2207  -4.2205  -4.2202  -4.2184  -4.2183  -4.2181  -4.2180  -4.1960
    -4.1898  -4.1896  -4.1893  -4.1852  -4.1850  -4.1807  -4.1805  -4.1803
    -4.1606  -4.1602  -4.1600  -4.1598  -4.1596  -4.1591  -4.1425  -4.1423
    -4.1420  -4.1292  -4.1290  -4.1287  -4.1263  -4.1263  -4.1261  -4.1192
    -4.1189  -4.1185  -4.1180  -4.1176  -4.1173  -4.0988  -4.0985  -4.0982
    -4.0978  -4.0975  -4.0971  -4.0801  -4.0799  -4.0797  -4.0737  -4.0735
    -4.0734  -4.0732  -4.0674  -4.0543  -4.0542  -4.0201  -4.0194  -4.0185
    -4.0184  -4.0181  -4.0178  -4.0175  -4.0167  -3.9790  -3.9790  -3.9696
    -3.9694  -3.9692  -3.9682  -3.9681  -3.9678  -3.9676  -3.9672  -3.9670
    -3.9537  -3.9534  -3.9530  -3.9368  -3.9364  -3.9361  -3.9320  -3.9317
    -3.9314  -3.8919  -3.8918  -3.8916  -3.8915  -3.8792  -3.8791  -3.8776
    -3.8698  -3.8696  -3.8691  -3.8689  -3.8683  -3.8682  -3.8643  -3.8634
    -3.8630  -3.8625  -3.8622  -3.8615  -3.8611  -3.8504  -3.8502  -3.8500
    -3.8350  -3.8348  -3.8345  -3.7970  -3.7965  -3.7961  -3.7869  -3.7864
    -3.7355  -3.7351  -3.7347  -3.6925  -3.6923  -3.6922  -3.6035  -3.6034
    -3.4811  -3.4805  -3.4797  -3.4797  -3.4790  -3.4784  -3.3562  -3.3558
    -3.3553  -3.3549  -3.3215  -3.3210  -3.3204  -3.3089  -3.3087  -3.3079
    -3.3076  -3.3068  -3.3063  -2.9666  -2.9666  -2.8519  -2.8514  -2.8508
     2.6321   3.0017   3.1884   3.1886   3.1889   3.1892   3.1893   3.1897
     3.2072   3.2081   3.2090   3.2849   3.2862   3.7034   3.7040   3.7047
     3.9298   3.9309   3.9311   3.9314   3.9316   3.9327   4.2662   4.2664
     4.4409   4.4415   4.4422   4.4485   4.4492   4.4498   4.5725   4.5729
     4.8950   4.8954   4.8959   4.9670   5.2028   5.3147   5.3149   5.3151
     5.3153   5.3603   5.3610   5.3617   5.3801   5.3806   5.3811   5.4437
     5.4442   5.4446   5.4448   5.4453   5.4457   5.5922   5.5922   5.8005
     5.9222   5.9224   5.9232   5.9232   5.9237   5.9241   5.9311   5.9316
     5.9326   6.0342   6.0346   6.0351   6.2286   6.2288   6.2290   6.2303
     6.2308   6.6518   6.6529   6.6531   6.6533   6.6535   6.6546   7.0615
     7.0621   7.0622   7.0628   7.0651   7.0655   7.0658   7.1496   7.1499
     7.1500   7.1696   7.1700   7.1704   7.1705   7.1708   7.1710   7.1721
     7.1727   7.1736   7.2593   7.2606   7.2611   7.2612   7.2617   7.2629
     7.3040   7.3042   7.3045   7.3664   7.3671   7.3713   7.3716   7.3720
     7.3722   7.3727   7.3730   7.5626   7.5626   7.5627   7.6608   7.7388
     7.7392   7.7395   7.7469   7.7471   7.8527   7.8528   7.8964   7.8965
     7.8966   7.8967   7.9875   7.9878   7.9881   7.9966   7.9967   8.0251
     8.0256   8.0264   8.0264   8.0273   8.0278   8.0399   8.0401   8.0404
     9.0251  12.1629  12.1636  12.6843  12.6869  12.6877  12.6880  12.6888
    12.6912  12.8655  12.8675  12.8696  13.2424  13.2437  13.2449  13.4054
    13.6020  13.6050  13.6068  13.6071

          k = 0.0000 0.0000 0.0363 ( 63479 PWs)   bands (ev):

    -9.1660  -8.9792  -8.8433  -8.8425  -8.8420  -8.8075  -8.8060  -8.8055
    -8.6436  -8.6434  -8.6430  -8.6129  -8.6115  -8.6112  -8.4863  -8.4522
    -8.4514  -8.4471  -8.4380  -8.4326  -8.4137  -8.4124  -8.4068  -8.4036
    -8.3909  -8.3872  -8.3689  -8.3676  -8.3604  -8.3533  -8.3524  -8.3262
    -8.3256  -8.3251  -8.3242  -8.3235  -8.3229  -8.3110  -8.3059  -8.2691
[...]
    -4.0939  -4.0868  -4.0699  -4.0694  -4.0644  -4.0635  -4.0617  -4.0547
    -4.0474  -4.0315  -4.0306  -4.0303  -4.0298  -4.0231  -4.0224  -4.0147
    -4.0123  -4.0089  -4.0084  -4.0069  -4.0063  -4.0057  -4.0031  -4.0024
    -3.9885  -3.9878  -3.9869  -3.9841  -3.9776  -3.9773  -3.9679  -3.9675
    -3.9662  -3.9571  -3.9563  -3.9549  -3.9436  -3.9430  -3.9420  -3.9415
    -3.9286  -3.9280  -3.9244  -3.9240  -3.9220  -3.8912  -3.8906  -3.8859
    -3.8844  -3.8841  -3.8742  -3.8737  -3.8598  -3.8590  -3.8561  -3.8555
    -3.8507  -3.8501  -3.8417  -3.8386  -3.8374  -3.8367  -3.8339  -3.8332
    -3.7887  -3.7851  -3.7847  -3.7807  -3.7802  -3.7790  -3.7619  -3.7615
    -3.7459  -3.7454  -3.7199  -3.7194  -3.6915  -3.6831  -3.6827  -3.6634
    -3.6260  -3.6253  -3.6076  -3.6069  -3.5836  -3.4926  -3.4560  -3.4551
    -3.3646  -3.3632  -3.2803  -3.2540  -3.2534  -3.1856  -3.1847  -3.1518
    -3.1256  -3.1033  -3.0691  -3.0687  -2.9778  -2.9762  -2.9614  -2.9606
     2.9156   3.0040   3.0055   3.0311   3.1860   3.1864   3.2267   3.2275
     3.4623   3.4633   3.4949   3.5493   3.5497   3.5534   3.5542   3.6126
     3.7051   3.7055   3.7283   3.7293   3.7701   3.8879   3.9006   3.9014
     3.9293   4.2380   4.2383   4.6819   4.7768   4.7780   4.8906   4.8911
     4.9938   4.9941   5.0373   5.0488   5.0494   5.1480   5.1484   5.1755
     5.1758   5.1902   5.2679   5.3490   5.3493   5.3633   5.3640   5.3894
     5.5065   5.6318   5.6325   5.6786   5.6794   5.7564   5.7570   5.7672
     5.7677   5.8071   5.9024   5.9030   5.9445   5.9449   6.1449   6.1616
     6.1760   6.1768   6.2332   6.3351   6.3358   6.4194   6.4200   6.4778
     6.5141   6.5146   6.5149   6.5179   6.5183   6.5513   6.7049   6.7059
     6.7115   6.8653   6.8670   6.8803   6.8812   6.8851   6.8858   6.9153
     6.9160   7.0376   7.0413   7.0480   7.0493   7.1028   7.1030   7.1482
     7.1888   7.2028   7.2034   7.2134   7.2150   7.3478   7.3487   7.3530
     7.3534   7.3586   7.3594   7.3707   7.4098   7.4583   7.4600   7.5674
     7.5751   7.5756   7.6016   7.6023   7.6094   7.6517   7.7012   7.7019
     7.7147   7.7159   7.8185   7.8195   7.8243   7.8246   7.8270   7.8687
     7.8688   7.8781   7.8791   7.8961   7.8964   7.9206   7.9402   7.9420
     7.9422   7.9533   7.9555   7.9560   7.9994   8.0334   8.0341   8.0896
    10.8384  11.1913  11.1933  11.9926  11.9939  12.8849  12.8867  12.9121
    13.0023  13.0043  13.2675  13.2715  13.5425  13.5587  13.5608  13.6359
    13.6386  13.6710  13.6742  13.8470

          k = 0.0283-0.0525 0.0363 ( 63474 PWs)   bands (ev):

    -9.0679  -9.0184  -9.0085  -8.8761  -8.8757  -8.7306  -8.7265  -8.7252
    -8.7070  -8.7060  -8.7021  -8.5843  -8.5836  -8.4950  -8.4916  -8.4574
    -8.4515  -8.4501  -8.4490  -8.4479  -8.4389  -8.4308  -8.4211  -8.3875
    -8.3860  -8.3715  -8.3705  -8.3679  -8.3640  -8.3595  -8.3591  -8.3364
    -8.3361  -8.3120  -8.3010  -8.2921  -8.2910  -8.2748  -8.2734  -8.2584
    -8.2458  -8.2442  -8.2429  -8.2401  -8.2382  -8.2357  -8.2305  -8.2302
    -4.3030  -4.3016  -4.2820  -4.2812  -4.2810  -4.2806  -4.2778  -4.2757
    -4.2605  -4.2549  -4.2473  -4.2437  -4.2433  -4.2423  -4.2418  -4.2347
    -4.2328  -4.2278  -4.2266  -4.2232  -4.2226  -4.2223  -4.2192  -4.2128
    -4.1939  -4.1936  -4.1925  -4.1792  -4.1789  -4.1776  -4.1679  -4.1659
    -4.1641  -4.1636  -4.1607  -4.1601  -4.1598  -4.1541  -4.1529  -4.1526
    -4.1480  -4.1432  -4.1353  -4.1348  -4.1320  -4.1224  -4.1219  -4.1199
    -4.1190  -4.1103  -4.1096  -4.1083  -4.1075  -4.1001  -4.0954  -4.0947
    -4.0857  -4.0846  -4.0844  -4.0839  -4.0805  -4.0740  -4.0683  -4.0620
    -4.0593  -4.0591  -4.0471  -4.0309  -4.0302  -4.0236  -4.0193  -4.0148
    -4.0084  -4.0010  -4.0002  -3.9982  -3.9978  -3.9922  -3.9911  -3.9865
    -3.9859  -3.9760  -3.9751  -3.9742  -3.9725  -3.9676  -3.9607  -3.9596
    -3.9565  -3.9536  -3.9529  -3.9518  -3.9485  -3.9428  -3.9423  -3.9389
    -3.9332  -3.9224  -3.9110  -3.9099  -3.8985  -3.8862  -3.8856  -3.8840
    -3.8826  -3.8819  -3.8769  -3.8711  -3.8701  -3.8684  -3.8658  -3.8652
    -3.8627  -3.8538  -3.8501  -3.8496  -3.8438  -3.8425  -3.8417  -3.8184
    -3.8180  -3.8150  -3.8108  -3.7805  -3.7793  -3.7771  -3.7751  -3.7745
    -3.7643  -3.7622  -3.7163  -3.7150  -3.7079  -3.6829  -3.6794  -3.6674
    -3.6664  -3.6303  -3.6298  -3.5235  -3.4982  -3.4976  -3.4430  -3.3768
    -3.3759  -3.3740  -3.3618  -3.3045  -3.2773  -3.1763  -3.1746  -3.1354
    -3.0770  -3.0755  -3.0416  -3.0407  -3.0206  -3.0147  -2.9663  -2.9595
     2.8904   2.8960   2.9249   3.1476   3.1485   3.2103   3.2871   3.2903
     3.3212   3.3220   3.4386   3.4393   3.4764   3.6934   3.7587   3.7589
     3.7809   3.7818   3.8028   3.8036   3.8093   3.8103   3.9013   3.9655
     4.1189   4.1195   4.2764   4.5350   4.5363   4.6881   4.7062   4.7524
     4.8357   4.8936   5.0229   5.0242   5.1375   5.1381   5.1553   5.1775
     5.2327   5.3395   5.3539   5.3543   5.3551   5.3557   5.4493   5.5407
     5.5694   5.5946   5.6020   5.6030   5.6402   5.6409   5.6711   5.6873
     5.8722   6.0040   6.1126   6.1149   6.1237   6.1246   6.1365   6.1378
     6.2678   6.3075   6.3082   6.3087   6.3094   6.3316   6.3487   6.3581
     6.3987   6.4862   6.5093   6.5098   6.5400   6.6156   6.6597   6.6623
     6.6633   6.6902   6.7193   6.7201   6.8087   6.8367   6.8851   6.8865
     6.9129   6.9138   6.9160   6.9854   6.9867   7.0065   7.0688   7.1386
     7.1733   7.1738   7.2584   7.2602   7.2632   7.3292   7.3460   7.3535
     7.4103   7.4129   7.4140   7.5390   7.5429   7.5435   7.5761   7.5794
     7.6112   7.6175   7.6689   7.6697   7.6762   7.6962   7.6987   7.7234
     7.7251   7.7882   7.7892   7.7917   7.8173   7.8233   7.8404   7.8472
     7.8478   7.8490   7.8497   7.9130   7.9315   7.9346   7.9359   7.9382
     7.9401   7.9417   7.9463   7.9508   7.9521   7.9524   7.9942   8.0461
    10.7250  11.0773  11.2566  12.1367  12.1382  12.8122  12.9561  12.9584
    13.2295  13.2658  13.2683  13.3634  13.3656  13.4058  13.4416  13.4446
    13.4693  13.5076  13.7165  13.7188

          k = 0.0283-0.0525-0.0363 ( 63474 PWs)   bands (ev):

    -9.0679  -9.0184  -9.0086  -8.8759  -8.8758  -8.7305  -8.7258  -8.7257
    -8.7065  -8.7064  -8.7023  -8.5842  -8.5840  -8.4947  -8.4917  -8.4574
    -8.4509  -8.4508  -8.4486  -8.4482  -8.4389  -8.4310  -8.4212  -8.3868
    -8.3867  -8.3716  -8.3702  -8.3680  -8.3638  -8.3595  -8.3591  -8.3364
    -8.3363  -8.3121  -8.3007  -8.2916  -8.2916  -8.2742  -8.2741  -8.2585
    -8.2450  -8.2449  -8.2428  -8.2399  -8.2387  -8.2357  -8.2304  -8.2301
    -4.3030  -4.3017  -4.2818  -4.2814  -4.2809  -4.2806  -4.2779  -4.2757
    -4.2604  -4.2549  -4.2472  -4.2438  -4.2433  -4.2423  -4.2418  -4.2348
    -4.2327  -4.2274  -4.2271  -4.2231  -4.2228  -4.2223  -4.2191  -4.2128
    -4.1937  -4.1936  -4.1926  -4.1791  -4.1789  -4.1777  -4.1680  -4.1658
    -4.1640  -4.1638  -4.1604  -4.1601  -4.1599  -4.1538  -4.1531  -4.1526
    -4.1482  -4.1433  -4.1353  -4.1348  -4.1319  -4.1224  -4.1220  -4.1197
    -4.1191  -4.1103  -4.1098  -4.1081  -4.1076  -4.1001  -4.0954  -4.0947
    -4.0857  -4.0846  -4.0845  -4.0840  -4.0803  -4.0740  -4.0683  -4.0620
    -4.0597  -4.0586  -4.0470  -4.0307  -4.0304  -4.0236  -4.0194  -4.0147
    -4.0084  -4.0008  -4.0003  -3.9982  -3.9979  -3.9919  -3.9916  -3.9862
    -3.9861  -3.9758  -3.9748  -3.9747  -3.9725  -3.9676  -3.9607  -3.9597
    -3.9568  -3.9534  -3.9525  -3.9523  -3.9485  -3.9427  -3.9424  -3.9388
    -3.9332  -3.9224  -3.9108  -3.9101  -3.8985  -3.8864  -3.8854  -3.8840
    -3.8824  -3.8822  -3.8770  -3.8709  -3.8704  -3.8683  -3.8654  -3.8653
    -3.8626  -3.8538  -3.8499  -3.8497  -3.8439  -3.8422  -3.8420  -3.8182
    -3.8181  -3.8151  -3.8107  -3.7802  -3.7797  -3.7772  -3.7749  -3.7745
    -3.7643  -3.7622  -3.7162  -3.7151  -3.7078  -3.6830  -3.6793  -3.6670
    -3.6669  -3.6301  -3.6300  -3.5235  -3.4979  -3.4977  -3.4430  -3.3763
    -3.3759  -3.3743  -3.3618  -3.3045  -3.2773  -3.1755  -3.1754  -3.1356
    -3.0764  -3.0762  -3.0413  -3.0410  -3.0206  -3.0145  -2.9663  -2.9595
     2.8906   2.8956   2.9245   3.1476   3.1489   3.2106   3.2869   3.2897
     3.3215   3.3224   3.4384   3.4393   3.4766   3.6938   3.7584   3.7585
     3.7805   3.7820   3.8032   3.8038   3.8099   3.8101   3.9015   3.9655
     4.1186   4.1191   4.2767   4.5352   4.5355   4.6882   4.7062   4.7523
     4.8357   4.8935   5.0235   5.0237   5.1378   5.1382   5.1551   5.1775
     5.2325   5.3394   5.3540   5.3543   5.3552   5.3557   5.4494   5.5409
     5.5696   5.5946   5.6024   5.6027   5.6406   5.6408   5.6713   5.6872
     5.8727   6.0036   6.1128   6.1150   6.1236   6.1242   6.1372   6.1374
     6.2682   6.3071   6.3079   6.3085   6.3096   6.3315   6.3482   6.3580
     6.3987   6.4863   6.5092   6.5098   6.5397   6.6156   6.6603   6.6623
     6.6630   6.6903   6.7194   6.7194   6.8085   6.8368   6.8860   6.8862
     6.9134   6.9137   6.9161   6.9859   6.9861   7.0065   7.0686   7.1387
     7.1732   7.1737   7.2595   7.2597   7.2634   7.3288   7.3461   7.3536
     7.4102   7.4131   7.4137   7.5392   7.5430   7.5433   7.5760   7.5801
     7.6110   7.6173   7.6692   7.6694   7.6761   7.6965   7.6988   7.7243
     7.7246   7.7884   7.7887   7.7915   7.8174   7.8232   7.8401   7.8473
     7.8477   7.8488   7.8496   7.9128   7.9316   7.9351   7.9354   7.9380
     7.9409   7.9411   7.9463   7.9508   7.9522   7.9524   7.9942   8.0462
    10.7250  11.0773  11.2566  12.1373  12.1376  12.8120  12.9566  12.9580
    13.2295  13.2665  13.2676  13.3635  13.3655  13.4056  13.4424  13.4440
    13.4692  13.5076  13.7175  13.7180

     the Fermi energy is     8.5590 ev

!    total energy              =   -6637.03743401 Ry
     Harris-Foulkes estimate   =   -6637.03743400 Ry
     estimated scf accuracy    <          5.1E-09 Ry

     The total energy is the sum of the following terms:

     one-electron contribution =   -1622.10024332 Ry
     hartree contribution      =    1436.07789587 Ry
     xc contribution           =   -1885.86805843 Ry
     ewald contribution        =   -4108.18610767 Ry
     one-center paw contrib.   =    -456.96092046 Ry
     smearing contrib. (-TS)   =      -0.00000000 Ry

     total magnetization       =    -0.00 Bohr mag/cell
     absolute magnetization    =     0.00 Bohr mag/cell

     convergence has been achieved in  14 iterations

     Forces acting on atoms (cartesian axes, Ry/au):

     atom    1 type  1   force =     0.00008092    0.00001889   -0.00000573
     atom    2 type  1   force =     0.00015440    0.00011919    0.00014946
     atom    3 type  1   force =     0.00024340    0.00011135   -0.00006903
     atom    4 type  1   force =     0.00003724    0.00004729    0.00008278
     atom    5 type  1   force =     0.00071098    0.00015838    0.00000650
     atom    6 type  1   force =    -0.00013713    0.00022204   -0.00003215
     atom    7 type  1   force =     0.00010507   -0.00011615   -0.00005109
     atom    8 type  1   force =     0.00002296    0.00013558    0.00004157
     atom    9 type  1   force =    -0.00010287   -0.00019732   -0.00015417
     atom   10 type  1   force =    -0.00019319   -0.00001810    0.00004108
     atom   11 type  1   force =     0.00002945   -0.00015172    0.00004741
     atom   12 type  1   force =    -0.00017835   -0.00003242   -0.00006165
     atom   13 type  1   force =     0.00046924   -0.00004328    0.00002365
     atom   14 type  1   force =    -0.00034167   -0.00005908    0.00011686
     atom   15 type  1   force =    -0.00013482   -0.00010455   -0.00005751
     atom   16 type  1   force =    -0.00005958    0.00005659   -0.00001183
     atom   17 type  1   force =     0.00145498   -0.00002185   -0.00088946
     atom   18 type  1   force =    -0.00012096    0.00007270   -0.00006285
     atom   19 type  1   force =     0.00006987   -0.00004271    0.00003437
     atom   20 type  1   force =     0.00011741    0.00015899    0.00004797
     atom   21 type  1   force =     0.00005282    0.00003728   -0.00001219
     atom   22 type  1   force =     0.00020890    0.00011083    0.00015849
     atom   23 type  1   force =     0.00009882    0.00009645    0.00000442
     atom   24 type  1   force =     0.00008633    0.00001931    0.00004170
     atom   25 type  1   force =    -0.00033719   -0.00015936   -0.00000199
     atom   26 type  1   force =     0.00131011   -0.00104152    0.00023562
     atom   27 type  1   force =    -0.00001399    0.00008987   -0.00003299
     atom   28 type  1   force =    -0.00014624   -0.00011374   -0.00004063
     atom   29 type  1   force =    -0.00008946    0.00000239    0.00005978
     atom   30 type  1   force =    -0.00014071   -0.00009571   -0.00013373
     atom   31 type  1   force =    -0.00013459   -0.00007355   -0.00006346
     atom   32 type  1   force =    -0.00010353   -0.00008122    0.00001005
     atom   33 type  2   force =    -0.00535979    0.00134541    0.00011170
     atom   34 type  2   force =     0.00024218    0.00035506   -0.00052932
     atom   35 type  2   force =     0.00002830    0.00042644   -0.00052983
     atom   36 type  2   force =     0.00001259    0.00029692   -0.00051196
     atom   37 type  2   force =     0.00002898    0.00038023   -0.00046283
     atom   38 type  2   force =     0.00001241    0.00035142   -0.00059037
     atom   39 type  2   force =    -0.00004743    0.00038454   -0.00050931
     atom   40 type  2   force =     0.00002793    0.00036083   -0.00052597
     atom   41 type  2   force =    -0.00035060    0.00081323    0.00010261
     atom   42 type  2   force =    -0.00024884    0.00051257   -0.00001244
     atom   43 type  2   force =    -0.00013374    0.00090558   -0.00008370
     atom   44 type  2   force =    -0.00024891    0.00049418    0.00002677
     atom   45 type  2   force =    -0.00031304    0.00056187    0.00004692
     atom   46 type  2   force =    -0.00028962    0.00056505   -0.00005028
     atom   47 type  2   force =    -0.00031845    0.00056558    0.00001549
     atom   48 type  2   force =    -0.00033085    0.00056404   -0.00002052
     atom   49 type  2   force =     0.00047297   -0.00015488   -0.00016936
     atom   50 type  2   force =     0.00035813   -0.00019790   -0.00059668
     atom   51 type  2   force =     0.00028770   -0.00018215   -0.00052562
     atom   52 type  2   force =     0.00027536   -0.00021700   -0.00051487
     atom   53 type  2   force =     0.00025706   -0.00001249   -0.00032497
     atom   54 type  2   force =     0.00035696   -0.00022818   -0.00056607
     atom   55 type  2   force =     0.00029187   -0.00015587   -0.00054010
     atom   56 type  2   force =     0.00031696   -0.00024385   -0.00050344
     atom   57 type  2   force =    -0.00024126   -0.00005683    0.00035866
     atom   58 type  2   force =    -0.00025205    0.00027332    0.00055442
     atom   59 type  2   force =    -0.00024422    0.00022013    0.00050792
     atom   60 type  2   force =    -0.00039215    0.00004166    0.00063061
     atom   61 type  2   force =    -0.00023814    0.00021323    0.00057291
     atom   62 type  2   force =    -0.00042925    0.00019327    0.00023579
     atom   63 type  2   force =    -0.00028025    0.00013575    0.00048493
     atom   64 type  2   force =    -0.00028817    0.00024600    0.00053838
     atom   65 type  2   force =    -0.00003787   -0.00035557    0.00053269
     atom   66 type  2   force =    -0.00000125   -0.00038021    0.00053167
     atom   67 type  2   force =     0.00001338   -0.00034702    0.00049479
     atom   68 type  2   force =     0.00001305   -0.00038470    0.00054937
     atom   69 type  2   force =     0.00078661   -0.00049012    0.00065018
     atom   70 type  2   force =     0.00079960   -0.00028853    0.00035815
     atom   71 type  2   force =    -0.00000135   -0.00036302    0.00050619
     atom   72 type  2   force =    -0.00003808   -0.00035206    0.00052855
     atom   73 type  2   force =     0.00021411   -0.00051785   -0.00018560
     atom   74 type  2   force =     0.00036168   -0.00056974    0.00002623
     atom   75 type  2   force =     0.00031755   -0.00053155    0.00003885
     atom   76 type  2   force =     0.00032601   -0.00062040   -0.00004449
     atom   77 type  2   force =     0.00035413   -0.00050729    0.00005931
     atom   78 type  2   force =     0.00036424   -0.00080854   -0.00018095
     atom   79 type  2   force =     0.00017913   -0.00083506    0.00009816
     atom   80 type  2   force =     0.00036780   -0.00051038   -0.00000383

     Total force =     0.007729     Total SCF correction =     0.000147


     Computing stress (Cartesian axis) and pressure

          total   stress  (Ry/bohr**3)                   (kbar)     P=       -4.83
  -0.00002403   0.00000879   0.00000674           -3.54        1.29        0.99
   0.00000879  -0.00003572   0.00000329            1.29       -5.26        0.48
   0.00000674   0.00000329  -0.00003884            0.99        0.48       -5.71

 
     init_run     :     41.41s CPU     42.08s WALL (       1 calls)
     electrons    :   2419.75s CPU   2462.71s WALL (       1 calls)
     forces       :     18.28s CPU     18.51s WALL (       1 calls)
     stress       :    257.56s CPU    259.01s WALL (       1 calls)

     Called by init_run:
     wfcinit      :     38.44s CPU     38.99s WALL (       1 calls)
     potinit      :      0.95s CPU      0.98s WALL (       1 calls)
     hinit0       :      0.84s CPU      0.87s WALL (       1 calls)

     Called by electrons:
     c_bands      :   2259.24s CPU   2298.47s WALL (      14 calls)
     sum_band     :    149.15s CPU    151.97s WALL (      14 calls)
     v_of_rho     :      3.93s CPU      4.22s WALL (      15 calls)
     newd         :      4.65s CPU      5.29s WALL (      15 calls)
     PAW_pot      :      2.22s CPU      2.25s WALL (      15 calls)
     mix_rho      :      0.84s CPU      0.85s WALL (      14 calls)

     Called by c_bands:
     init_us_2    :     12.93s CPU     13.04s WALL (     868 calls)
     cegterg      :   2216.11s CPU   2254.88s WALL (     392 calls)

     Called by sum_band:
     sum_band:bec :      1.85s CPU      1.86s WALL (     392 calls)
     addusdens    :      7.06s CPU      7.86s WALL (      14 calls)

     Called by *egterg:
     h_psi        :    695.68s CPU    709.73s WALL (    1903 calls)
     s_psi        :    114.79s CPU    115.61s WALL (    1903 calls)
     g_psi        :      2.08s CPU      2.09s WALL (    1483 calls)
     cdiaghg      :   1108.76s CPU   1115.80s WALL (    1875 calls)

     Called by h_psi:
     h_psi:calbec :    116.46s CPU    117.37s WALL (    1903 calls)
     vloc_psi     :    457.01s CPU    465.89s WALL (    1903 calls)
     add_vuspsi   :    115.51s CPU    116.25s WALL (    1903 calls)

     General routines
     calbec       :    172.29s CPU    173.63s WALL (    2435 calls)
     fft          :      3.78s CPU      3.85s WALL (     413 calls)
     ffts         :      0.09s CPU      0.09s WALL (      58 calls)
     fftw         :    484.19s CPU    493.73s WALL (  950966 calls)
     interpolate  :      0.35s CPU      0.35s WALL (      30 calls)
 
     Parallel routines
     fft_scatt_xy :     55.95s CPU     56.74s WALL (  951437 calls)
     fft_scatt_yz :    228.82s CPU    234.59s WALL (  951437 calls)
 
     PWSCF        :  45m37.77s CPU  46m23.42s WALL

 
   This run was terminated on:  16:25: 0   7Jul2021            

=------------------------------------------------------------------------------=
   JOB DONE.
=------------------------------------------------------------------------------=
# python dir           : /gpfs/nobackup/projects/quantumchemistry/rom_cq/SOAPML/venv/SOAPML/lib/python3.6/site-packages/espresso
# espresso dir         : /software/app/qe_foundation/qe/6.5/rt_intel_impi/2017.5/2020-02-13_09-05-31/bin
# pseudo dir           : /gpfs/nobackup/projects/quantumchemistry/rom_cq/SOAPML/data/In2O3/espresso_calculations/psp_copy/
# ase-espresso version : 0.3.3


