20
Lattice="5.589328116444524 -2.9167667611833336e-62 2.0746228207702968e-44 -2.1249815540991778e-63 5.678181169238833 -9.07305643809689e-18 2.805450857955697e-44 -1.2891413217734168e-17 8.079757693152297" Properties=species:S:1:pos:R:3:spacegroup_kinds:I:1:forces:R:3 spacegroup="P 1" unit_cell=conventional occupancy="_JSON {\"0\": {\"In\": 1}, \"1\": {\"In\": 1}, \"2\": {\"In\": 1}, \"3\": {\"In\": 1}, \"4\": {\"In\": 1}, \"5\": {\"In\": 1}, \"6\": {\"In\": 1}, \"7\": {\"In\": 1}, \"8\": {\"O\": 1}, \"9\": {\"O\": 1}, \"10\": {\"O\": 1}, \"11\": {\"O\": 1}, \"12\": {\"O\": 1}, \"13\": {\"O\": 1}, \"14\": {\"O\": 1}, \"15\": {\"O\": 1}, \"16\": {\"O\": 1}, \"17\": {\"O\": 1}, \"18\": {\"O\": 1}, \"19\": {\"O\": 1}}" n_minim_iter=6 energy=-22574.963504296647 stress="0.00029246671964943516 1.345650270690998e-13 -3.171699633633986e-13 1.345650270690998e-13 0.00022316326068102661 1.1355118190880153e-13 -3.171699633633986e-13 1.1355118190880153e-13 0.00014463287783151628" free_energy=-22574.963504296647 pbc="T T T"
In       1.38638405       3.00027130       0.92612942        0       0.00450040      -0.00500964      -0.00000859
In       1.40828000       0.16118071       3.11374942        1      -0.00450040      -0.00500964       0.00000859
In       1.40828000       2.67790987       4.96600827        2      -0.00450040       0.00500964      -0.00000859
In       1.38638405       5.51700045       7.15362827        3       0.00450040       0.00500964       0.00000859
In       4.20294406       2.67790987       7.15362827        4      -0.00450040       0.00500964       0.00000859
In       4.18104811       5.51700045       4.96600827        5       0.00450040       0.00500964      -0.00000859
In       4.18104811       3.00027130       3.11374942        6       0.00450040      -0.00500964       0.00000859
In       4.20294406       0.16118071       0.92612942        7      -0.00450040      -0.00500964      -0.00000859
O        2.18073626       3.42951266       6.86208961        8      -0.00079267      -0.00036794       0.00296926
O        0.61392780       0.59042208       5.25754693        9       0.00079267      -0.00036794      -0.00296926
O        0.61392780       2.24866851       2.82221076       10       0.00079267       0.00036794       0.00296926
O        2.18073626       5.08775909       1.21766808       11      -0.00079267       0.00036794      -0.00296926
O        3.40859186       2.24866851       1.21766808       12       0.00079267       0.00036794      -0.00296926
O        4.97540032       5.08775909       2.82221076       13      -0.00079267       0.00036794       0.00296926
O        4.97540032       3.42951266       5.25754693       14      -0.00079267      -0.00036794      -0.00296926
O        3.40859186       0.59042208       6.86208961       15       0.00079267      -0.00036794       0.00296926
O        5.35740123       4.25863588      -0.00000000       16       0.00235596       0.00000000      -0.00000000
O        3.02659095       1.41954529       4.03987885       17      -0.00235596      -0.00000000      -0.00000000
O        0.23192689       1.41954529      -0.00000000       18      -0.00235596      -0.00000000       0.00000000
O        2.56273717       4.25863588       4.03987885       19       0.00235596       0.00000000      -0.00000000
