20
Lattice="5.7432716296125 4.707519480562939e-61 -1.3415385938302923e-43 -8.850616749951026e-62 5.780702686058609 -5.322269014670968e-18 2.0875554563259675e-43 -1.6034450260913475e-17 8.303011916747268" Properties=species:S:1:pos:R:3:spacegroup_kinds:I:1:forces:R:3 spacegroup="P 1" unit_cell=conventional occupancy="_JSON {\"0\": {\"In\": 1}, \"1\": {\"In\": 1}, \"2\": {\"In\": 1}, \"3\": {\"In\": 1}, \"4\": {\"In\": 1}, \"5\": {\"In\": 1}, \"6\": {\"In\": 1}, \"7\": {\"In\": 1}, \"8\": {\"O\": 1}, \"9\": {\"O\": 1}, \"10\": {\"O\": 1}, \"11\": {\"O\": 1}, \"12\": {\"O\": 1}, \"13\": {\"O\": 1}, \"14\": {\"O\": 1}, \"15\": {\"O\": 1}, \"16\": {\"O\": 1}, \"17\": {\"O\": 1}, \"18\": {\"O\": 1}, \"19\": {\"O\": 1}}" n_minim_iter=6 energy=-22574.4234143432 stress="0.05218682066140693 1.0744869527447951e-13 -2.645084814250663e-13 1.0744869527447951e-13 0.051927408866316756 -5.156791419943312e-13 -2.645084814250663e-13 -5.156791419943312e-13 0.05213947177944426" free_energy=-22574.4234143432 pbc="T T T"
In       1.42375951       3.04333473       0.95527559        0      -0.00961321       0.00245651       0.00053343
In       1.44787630       0.15298339       3.19623036        1       0.00961321       0.00245651      -0.00053343
In       1.44787630       2.73736796       5.10678155        2       0.00961321      -0.00245651       0.00053343
In       1.42375951       5.62771930       7.34773632        3      -0.00961321      -0.00245651      -0.00053343
In       4.31951212       2.73736796       7.34773632        4       0.00961321      -0.00245651      -0.00053343
In       4.29539533       5.62771930       5.10678155        5      -0.00961321      -0.00245651       0.00053343
In       4.29539533       3.04333473       3.19623036        6      -0.00961321       0.00245651      -0.00053343
In       4.31951212       0.15298339       0.95527559        7       0.00961321       0.00245651       0.00053343
O        2.24231272       3.47332711       7.05007416        8      -0.00189555      -0.00193983      -0.00073238
O        0.62932309       0.58297577       5.40444372        9       0.00189555      -0.00193983       0.00073238
O        0.62932309       2.30737557       2.89856820       10       0.00189555       0.00193983      -0.00073238
O        2.24231272       5.19772691       1.25293776       11      -0.00189555       0.00193983       0.00073238
O        3.50095891       2.30737557       1.25293776       12       0.00189555       0.00193983       0.00073238
O        5.11394854       5.19772691       2.89856820       13      -0.00189555       0.00193983      -0.00073238
O        5.11394854       3.47332711       5.40444372       14      -0.00189555      -0.00193983       0.00073238
O        3.50095891       0.58297577       7.05007416       15       0.00189555      -0.00193983      -0.00073238
O        5.48425365       4.33552701       0.00000000       16       0.00456004      -0.00000000       0.00000000
O        3.13065379       1.44517567       4.15150596       17      -0.00456004      -0.00000000       0.00000000
O        0.25901798       1.44517567       0.00000000       18      -0.00456004       0.00000000      -0.00000000
O        2.61261784       4.33552701       4.15150596       19       0.00456004       0.00000000       0.00000000
