20
Lattice="5.851847003216403 -2.635911155123943e-60 4.218648046473335e-44 2.5804000630566134e-60 5.957658420221 1.431150229955959e-17 -6.230412810900688e-44 -2.07608971244406e-17 8.642442349925185" Properties=species:S:1:pos:R:3:spacegroup_kinds:I:1:forces:R:3 spacegroup="P 1" unit_cell=conventional occupancy="_JSON {\"0\": {\"In\": 1}, \"1\": {\"In\": 1}, \"2\": {\"In\": 1}, \"3\": {\"In\": 1}, \"4\": {\"In\": 1}, \"5\": {\"In\": 1}, \"6\": {\"In\": 1}, \"7\": {\"In\": 1}, \"8\": {\"O\": 1}, \"9\": {\"O\": 1}, \"10\": {\"O\": 1}, \"11\": {\"O\": 1}, \"12\": {\"O\": 1}, \"13\": {\"O\": 1}, \"14\": {\"O\": 1}, \"15\": {\"O\": 1}, \"16\": {\"O\": 1}, \"17\": {\"O\": 1}, \"18\": {\"O\": 1}, \"19\": {\"O\": 1}}" n_minim_iter=1 energy=-22572.552197991365 stress="0.09702043826722437 1.968692751257911e-13 3.331553126366856e-13 1.968692751257911e-13 0.09551146341925254 -2.211366084990401e-13 3.331553126366856e-13 -2.211366084990401e-13 0.0900108021505316" free_energy=-22572.552197991365 pbc="T T T"
In       1.42773162       3.17575299       1.01940879        0      -0.02457814       0.01719469       0.01265808
In       1.49819188       0.19692378       3.30181239        1       0.02457814       0.01719469      -0.01265808
In       1.49819188       2.78190543       5.34062996        2       0.02457814      -0.01719469       0.01265808
In       1.42773162       5.76073464       7.62303356        3      -0.02457814      -0.01719469      -0.01265808
In       4.42411538       2.78190543       7.62303356        4       0.02457814      -0.01719469      -0.01265808
In       4.35365512       5.76073464       5.34062996        5      -0.02457814      -0.01719469       0.01265808
In       4.35365512       3.17575299       3.30181239        6      -0.02457814       0.01719469      -0.01265808
In       4.42411538       0.19692378       1.01940879        7       0.02457814       0.01719469       0.01265808
O        2.29268329       3.52814601       7.32573087        8       0.00691160      -0.03154318      -0.02993311
O        0.63324021       0.54931680       5.63793266        9      -0.00691160      -0.03154318       0.02993311
O        0.63324021       2.42951241       3.00450969       10      -0.00691160       0.03154318      -0.02993311
O        2.29268329       5.40834162       1.31671148       11       0.00691160       0.03154318       0.02993311
O        3.55916371       2.42951241       1.31671148       12      -0.00691160       0.03154318       0.02993311
O        5.21860679       5.40834162       3.00450969       13       0.00691160       0.03154318      -0.02993311
O        5.21860679       3.52814601       5.63793266       14       0.00691160      -0.03154318       0.02993311
O        3.55916371       0.54931680       7.32573087       15      -0.00691160      -0.03154318      -0.02993311
O        5.56652948       4.46824382       0.00000000       16      -0.01777072       0.00000000      -0.00000000
O        3.21124102       1.48941461       4.32122117       17       0.01777072       0.00000000       0.00000000
O        0.28531752       1.48941461       0.00000000       18       0.01777072      -0.00000000      -0.00000000
O        2.64060598       4.46824382       4.32122117       19      -0.01777072      -0.00000000       0.00000000
20
Lattice="5.82129213854948 -2.644542874154572e-60 4.570278166816178e-44 2.655843036871499e-60 5.943061731363353 1.1155825227940065e-17 -1.091028272980541e-44 -2.544802422029078e-17 8.709142922551008" Properties=species:S:1:pos:R:3:spacegroup_kinds:I:1:forces:R:3 spacegroup="P 1" unit_cell=conventional occupancy="_JSON {\"0\": {\"In\": 1}, \"1\": {\"In\": 1}, \"2\": {\"In\": 1}, \"3\": {\"In\": 1}, \"4\": {\"In\": 1}, \"5\": {\"In\": 1}, \"6\": {\"In\": 1}, \"7\": {\"In\": 1}, \"8\": {\"O\": 1}, \"9\": {\"O\": 1}, \"10\": {\"O\": 1}, \"11\": {\"O\": 1}, \"12\": {\"O\": 1}, \"13\": {\"O\": 1}, \"14\": {\"O\": 1}, \"15\": {\"O\": 1}, \"16\": {\"O\": 1}, \"17\": {\"O\": 1}, \"18\": {\"O\": 1}, \"19\": {\"O\": 1}}" n_minim_iter=2 energy=-22572.559726031035 stress="0.09154350663661272 -4.54926360038864e-13 3.103420903582327e-13 -4.54926360038864e-13 0.09161016600138164 -2.0990814354597677e-13 3.103420903582327e-13 -2.0990814354597677e-13 0.09166725510503089" free_energy=-22572.559726031035 pbc="T T T"
In       1.42012725       3.16807712       1.02735442        0      -0.04086297       0.01859570       0.05714503
In       1.49051882       0.19654625       3.32721704        1       0.04086297       0.01859570      -0.05714503
In       1.49051882       2.77498461       5.38192588        2       0.04086297      -0.01859570       0.05714503
In       1.42012725       5.74651548       7.68178850        3      -0.04086297      -0.01859570      -0.05714503
In       4.40116489       2.77498461       7.68178850        4       0.04086297      -0.01859570      -0.05714503
In       4.33077332       5.74651548       5.38192588        5      -0.04086297      -0.01859570       0.05714503
In       4.33077332       3.16807712       3.32721704        6      -0.04086297       0.01859570      -0.05714503
In       4.40116489       0.19654625       1.02735442        7       0.04086297       0.01859570       0.05714503
O        2.28075433       3.51930926       7.38208477        8      -0.01174404      -0.03571825      -0.08025969
O        0.62989174       0.54777840       5.68162962        9       0.01174404      -0.03571825       0.08025969
O        0.62989174       2.42375247       3.02751330       10       0.01174404       0.03571825      -0.08025969
O        2.28075433       5.39528334       1.32705816       11      -0.01174404       0.03571825       0.08025969
O        3.54053781       2.42375247       1.32705816       12       0.01174404       0.03571825       0.08025969
O        5.19140040       5.39528334       3.02751330       13      -0.01174404       0.03571825      -0.08025969
O        5.19140040       3.51930926       5.68162962       14      -0.01174404      -0.03571825       0.08025969
O        3.54053781       0.54777840       7.38208477       15       0.01174404      -0.03571825      -0.08025969
O        5.53735621       4.45729630       0.00000000       16      -0.03450170      -0.00000000       0.00000000
O        3.19458200       1.48576543       4.35457146       17       0.03450170      -0.00000000      -0.00000000
O        0.28393593       1.48576543       0.00000000       18       0.03450170       0.00000000       0.00000000
O        2.62671014       4.45729630       4.35457146       19      -0.03450170       0.00000000      -0.00000000
20
Lattice="5.798340033029398 -2.6376558837248207e-60 -3.734248394129222e-44 2.615648275734865e-60 5.918930904803397 1.976176666547539e-17 1.9761245836917903e-44 -1.3109577649089931e-17 8.779263888140731" Properties=species:S:1:pos:R:3:spacegroup_kinds:I:1:forces:R:3 spacegroup="P 1" unit_cell=conventional occupancy="_JSON {\"0\": {\"In\": 1}, \"1\": {\"In\": 1}, \"2\": {\"In\": 1}, \"3\": {\"In\": 1}, \"4\": {\"In\": 1}, \"5\": {\"In\": 1}, \"6\": {\"In\": 1}, \"7\": {\"In\": 1}, \"8\": {\"O\": 1}, \"9\": {\"O\": 1}, \"10\": {\"O\": 1}, \"11\": {\"O\": 1}, \"12\": {\"O\": 1}, \"13\": {\"O\": 1}, \"14\": {\"O\": 1}, \"15\": {\"O\": 1}, \"16\": {\"O\": 1}, \"17\": {\"O\": 1}, \"18\": {\"O\": 1}, \"19\": {\"O\": 1}}" n_minim_iter=3 energy=-22572.57168187472 stress="0.08932888202351508 2.029637359109699e-13 3.3850144330571085e-14 2.029637359109699e-13 0.08553857072833254 1.7797225650016724e-15 3.3850144330571085e-14 1.7797225650016724e-15 0.08782050080811868" free_energy=-22572.57168187472 pbc="T T T"
In       1.40529252       3.15949654       1.04882284        0       0.02112030       0.04114819       0.01291595
In       1.49387749       0.20003109       3.34080910        1      -0.02112030       0.04114819      -0.01291595
In       1.49387749       2.75943437       5.43845479        2      -0.02112030      -0.04114819       0.01291595
In       1.40529252       5.71889982       7.73044105        3       0.02112030      -0.04114819      -0.01291595
In       4.39304751       2.75943437       7.73044105        4      -0.02112030      -0.04114819      -0.01291595
In       4.30446254       5.71889982       5.43845479        5       0.02112030      -0.04114819       0.01291595
In       4.30446254       3.15949654       3.34080910        6       0.02112030       0.04114819      -0.01291595
In       4.39304751       0.20003109       1.04882284        7      -0.02112030       0.04114819       0.01291595
O        2.26924064       3.49680739       7.42286761        8       0.01487026      -0.00175334       0.00990840
O        0.62992938       0.53734194       5.74602822        9      -0.01487026      -0.00175334      -0.00990840
O        0.62992938       2.42212351       3.03323566       10      -0.01487026       0.00175334       0.00990840
O        2.26924064       5.38158896       1.35639628       11       0.01487026       0.00175334      -0.00990840
O        3.52909939       2.42212351       1.35639628       12      -0.01487026       0.00175334      -0.00990840
O        5.16841066       5.38158896       3.03323566       13       0.01487026       0.00175334       0.00990840
O        5.16841066       3.49680739       5.74602822       14       0.01487026      -0.00175334      -0.00990840
O        3.52909939       0.53734194       7.42286761       15      -0.01487026      -0.00175334       0.00990840
O        5.50775424       4.43919818       0.00000000       16       0.02833113       0.00000000      -0.00000000
O        3.18975581       1.47973273       4.38963194       17      -0.02833113       0.00000000       0.00000000
O        0.29058579       1.47973273       0.00000000       18      -0.02833113       0.00000000       0.00000000
O        2.60858422       4.43919818       4.38963194       19       0.02833113       0.00000000       0.00000000
20
Lattice="5.785113762741061 -2.6315914870202905e-60 -3.427127150836171e-44 2.6275793997349054e-60 5.931665612523511 1.976442360440492e-17 2.234627509711421e-44 -1.3137783188634209e-17 8.780444246576891" Properties=species:S:1:pos:R:3:spacegroup_kinds:I:1:forces:R:3 spacegroup="P 1" unit_cell=conventional occupancy="_JSON {\"0\": {\"In\": 1}, \"1\": {\"In\": 1}, \"2\": {\"In\": 1}, \"3\": {\"In\": 1}, \"4\": {\"In\": 1}, \"5\": {\"In\": 1}, \"6\": {\"In\": 1}, \"7\": {\"In\": 1}, \"8\": {\"O\": 1}, \"9\": {\"O\": 1}, \"10\": {\"O\": 1}, \"11\": {\"O\": 1}, \"12\": {\"O\": 1}, \"13\": {\"O\": 1}, \"14\": {\"O\": 1}, \"15\": {\"O\": 1}, \"16\": {\"O\": 1}, \"17\": {\"O\": 1}, \"18\": {\"O\": 1}, \"19\": {\"O\": 1}}" n_minim_iter=4 energy=-22572.57293731163 stress="0.08734662436074418 -2.703402958369993e-13 1.2042818790627815e-13 -2.703402958369993e-13 0.08718408101285247 -9.107168305710422e-15 1.2042818790627815e-13 -9.107168305710422e-15 0.08689056080461796" free_energy=-22572.57293731163 pbc="T T T"
In       1.40148264       3.16677336       1.05000156        0       0.01831311       0.05226789      -0.00157245
In       1.49107425       0.20094055       3.34022056        1      -0.01831311       0.05226789       0.00157245
In       1.49107425       2.76489226       5.44022368        2      -0.01831311      -0.05226789      -0.00157245
In       1.40148264       5.73072506       7.73044269        3       0.01831311      -0.05226789       0.00157245
In       4.38363113       2.76489226       7.73044269        4      -0.01831311      -0.05226789       0.00157245
In       4.29403952       5.73072506       5.44022368        5       0.01831311      -0.05226789      -0.00157245
In       4.29403952       3.16677336       3.34022056        6       0.01831311       0.05226789       0.00157245
In       4.38363113       0.20094055       1.05000156        7      -0.01831311       0.05226789      -0.00157245
O        2.26393285       3.50371266       7.42251489        8       0.01706448       0.00206692       0.01258159
O        0.62862403       0.53787986       5.74815148        9      -0.01706448       0.00206692      -0.01258159
O        0.62862403       2.42795295       3.03229276       10      -0.01706448      -0.00206692       0.01258159
O        2.26393285       5.39378576       1.35792936       11       0.01706448      -0.00206692      -0.01258159
O        3.52118091       2.42795295       1.35792936       12      -0.01706448      -0.00206692      -0.01258159
O        5.15648973       5.39378576       3.03229276       13       0.01706448      -0.00206692       0.01258159
O        5.15648973       3.50371266       5.74815148       14       0.01706448       0.00206692      -0.01258159
O        3.52118091       0.53787986       7.42251489       15      -0.01706448       0.00206692       0.01258159
O        5.49472280       4.44874921       0.00000000       16       0.03072539       0.00000000       0.00000000
O        3.18294785       1.48291640       4.39022212       17      -0.03072539      -0.00000000       0.00000000
O        0.29039096       1.48291640       0.00000000       18      -0.03072539       0.00000000      -0.00000000
O        2.60216592       4.44874921       4.39022212       19       0.03072539      -0.00000000       0.00000000
20
Lattice="5.784180760946048 -2.661614788535216e-60 -3.7046790876517184e-44 2.6243416585482543e-60 5.934014091509366 2.5361921673423787e-17 2.0147716073904747e-44 -5.013676337236046e-18 8.778384993821584" Properties=species:S:1:pos:R:3:spacegroup_kinds:I:1:forces:R:3 spacegroup="P 1" unit_cell=conventional occupancy="_JSON {\"0\": {\"In\": 1}, \"1\": {\"In\": 1}, \"2\": {\"In\": 1}, \"3\": {\"In\": 1}, \"4\": {\"In\": 1}, \"5\": {\"In\": 1}, \"6\": {\"In\": 1}, \"7\": {\"In\": 1}, \"8\": {\"O\": 1}, \"9\": {\"O\": 1}, \"10\": {\"O\": 1}, \"11\": {\"O\": 1}, \"12\": {\"O\": 1}, \"13\": {\"O\": 1}, \"14\": {\"O\": 1}, \"15\": {\"O\": 1}, \"16\": {\"O\": 1}, \"17\": {\"O\": 1}, \"18\": {\"O\": 1}, \"19\": {\"O\": 1}}" n_minim_iter=5 energy=-22572.573562954138 stress="0.08699597276889906 -4.288269177724871e-13 -2.302420750709172e-13 -4.288269177724871e-13 0.08754721577153927 -9.273902148497845e-14 -2.302420750709172e-13 -9.273902148497845e-14 0.08762371140963275" free_energy=-22572.573562954138 pbc="T T T"
In       1.40288873       3.16899479       1.04812938        0       0.00035520       0.04084491       0.01498447
In       1.48920165       0.20198774       3.34106312        1      -0.00035520       0.04084491      -0.01498447
In       1.48920165       2.76501930       5.43732188        2      -0.00035520      -0.04084491       0.01498447
In       1.40288873       5.73202635       7.73025561        3       0.00035520      -0.04084491      -0.01498447
In       4.38129203       2.76501930       7.73025561        4      -0.00035520      -0.04084491      -0.01498447
In       4.29497911       5.73202635       5.43732188        5       0.00035520      -0.04084491       0.01498447
In       4.29497911       3.16899479       3.34106312        6       0.00035520       0.04084491      -0.01498447
In       4.38129203       0.20198774       1.04812938        7      -0.00035520       0.04084491       0.01498447
O        2.26433748       3.50617049       7.42338922        8       0.00743458      -0.00618109      -0.00924279
O        0.62775290       0.53916344       5.74418827        9      -0.00743458      -0.00618109       0.00924279
O        0.62775290       2.42784360       3.03419673       10      -0.00743458       0.00618109      -0.00924279
O        2.26433748       5.39485065       1.35499577       11       0.00743458       0.00618109       0.00924279
O        3.51984328       2.42784360       1.35499577       12      -0.00743458       0.00618109       0.00924279
O        5.15642786       5.39485065       3.03419673       13       0.00743458       0.00618109      -0.00924279
O        5.15642786       3.50617049       5.74418827       14       0.00743458      -0.00618109       0.00924279
O        3.51984328       0.53916344       7.42338922       15      -0.00743458      -0.00618109      -0.00924279
O        5.49563855       4.45051057       0.00000000       16       0.01331331      -0.00000000       0.00000000
O        3.18063259       1.48350352       4.38919250       17      -0.01331331      -0.00000000      -0.00000000
O        0.28854221       1.48350352       0.00000000       18      -0.01331331       0.00000000      -0.00000000
O        2.60354817       4.45051057       4.38919250       19       0.01331331      -0.00000000      -0.00000000
20
Lattice="5.774462423153827 -2.6565698168590484e-60 -6.273658235975694e-45 2.71112574537266e-60 5.9308773642577215 2.5418041433814563e-17 5.038849679916083e-44 -5.0110261016694606e-18 8.797809423437554" Properties=species:S:1:pos:R:3:spacegroup_kinds:I:1:forces:R:3 spacegroup="P 1" unit_cell=conventional occupancy="_JSON {\"0\": {\"In\": 1}, \"1\": {\"In\": 1}, \"2\": {\"In\": 1}, \"3\": {\"In\": 1}, \"4\": {\"In\": 1}, \"5\": {\"In\": 1}, \"6\": {\"In\": 1}, \"7\": {\"In\": 1}, \"8\": {\"O\": 1}, \"9\": {\"O\": 1}, \"10\": {\"O\": 1}, \"11\": {\"O\": 1}, \"12\": {\"O\": 1}, \"13\": {\"O\": 1}, \"14\": {\"O\": 1}, \"15\": {\"O\": 1}, \"16\": {\"O\": 1}, \"17\": {\"O\": 1}, \"18\": {\"O\": 1}, \"19\": {\"O\": 1}}" n_minim_iter=6 energy=-22572.57555947221 stress="0.08574823275650295 3.1516234428246625e-13 2.249151515357645e-13 3.1516234428246625e-13 0.08575906882707503 -5.63336357292399e-13 2.249151515357645e-13 -5.63336357292399e-13 0.08637779394592346" free_energy=-22572.57555947221 pbc="T T T"
In       1.39983041       3.17606489       1.05500008        0      -0.01256949       0.00968218       0.00567997
In       1.48740080       0.21062621       3.34390463        1       0.01256949       0.00968218      -0.00567997
In       1.48740080       2.75481247       5.45390479        2       0.01256949      -0.00968218       0.00567997
In       1.39983041       5.72025116       7.74280934        3      -0.01256949      -0.00968218      -0.00567997
In       4.37463201       2.75481247       7.74280934        4       0.01256949      -0.00968218      -0.00567997
In       4.28706163       5.72025116       5.45390479        5      -0.01256949      -0.00968218       0.00567997
In       4.28706163       3.17606489       3.34390463        6      -0.01256949       0.00968218      -0.00567997
In       4.37463201       0.21062621       1.05500008        7       0.01256949       0.00968218       0.00567997
O        2.26191808       3.50188831       7.43541334        8       0.00055344      -0.00666352       0.01036153
O        0.62531313       0.53644962       5.76130079        9      -0.00055344      -0.00666352      -0.01036153
O        0.62531313       2.42898906       3.03650863       10      -0.00055344       0.00666352       0.01036153
O        2.26191808       5.39442774       1.36239608       11       0.00055344       0.00666352      -0.01036153
O        3.51254434       2.42898906       1.36239608       12      -0.00055344       0.00666352      -0.01036153
O        5.14914929       5.39442774       3.03650863       13       0.00055344       0.00666352       0.01036153
O        5.14914929       3.50188831       5.76130079       14       0.00055344      -0.00666352      -0.01036153
O        3.51254434       0.53644962       7.43541334       15      -0.00055344      -0.00666352       0.01036153
O        5.48807377       4.44815802       0.00000000       16      -0.00232913       0.00000000      -0.00000000
O        3.17361986       1.48271934       4.39890471       17       0.00232913      -0.00000000       0.00000000
O        0.28638865       1.48271934       0.00000000       18       0.00232913       0.00000000       0.00000000
O        2.60084256       4.44815802       4.39890471       19      -0.00232913      -0.00000000       0.00000000
20
Lattice="5.776791578195278 -2.672529202189027e-60 3.650622685187935e-45 2.690934568460049e-60 5.932910334135653 3.638944485333491e-17 4.973011336287863e-44 1.0930354791863386e-17 8.791248778601776" Properties=species:S:1:pos:R:3:spacegroup_kinds:I:1:forces:R:3 spacegroup="P 1" unit_cell=conventional occupancy="_JSON {\"0\": {\"In\": 1}, \"1\": {\"In\": 1}, \"2\": {\"In\": 1}, \"3\": {\"In\": 1}, \"4\": {\"In\": 1}, \"5\": {\"In\": 1}, \"6\": {\"In\": 1}, \"7\": {\"In\": 1}, \"8\": {\"O\": 1}, \"9\": {\"O\": 1}, \"10\": {\"O\": 1}, \"11\": {\"O\": 1}, \"12\": {\"O\": 1}, \"13\": {\"O\": 1}, \"14\": {\"O\": 1}, \"15\": {\"O\": 1}, \"16\": {\"O\": 1}, \"17\": {\"O\": 1}, \"18\": {\"O\": 1}, \"19\": {\"O\": 1}}" n_minim_iter=7 energy=-22572.575741182212 stress="0.08611177415676041 1.0733268156488523e-14 3.7819579207253885e-13 1.0733268156488523e-14 0.08612249828767966 -1.0659137968553194e-13 3.7819579207253885e-13 -1.0659137968553194e-13 0.08624884903620111" free_energy=-22572.575741182212 pbc="T T T"
In       1.40046564       3.17843221       1.05442216        0      -0.01416073       0.00361959       0.00283712
In       1.48793015       0.21197704       3.34120223        1       0.01416073       0.00361959      -0.00283712
In       1.48793015       2.75447812       5.45004655        2       0.01416073      -0.00361959       0.00283712
In       1.40046564       5.72093329       7.73682662        3      -0.01416073      -0.00361959      -0.00283712
In       4.37632594       2.75447812       7.73682662        4       0.01416073      -0.00361959      -0.00283712
In       4.28886142       5.72093329       5.45004655        5      -0.01416073      -0.00361959       0.00283712
In       4.28886142       3.17843221       3.34120223        6      -0.01416073       0.00361959      -0.00283712
In       4.37632594       0.21197704       1.05442216        7       0.01416073       0.00361959       0.00283712
O        2.26315562       3.50294800       7.43014370        8       0.00136060      -0.00797659       0.01347023
O        0.62524017       0.53649283       5.75672947        9      -0.00136060      -0.00797659      -0.01347023
O        0.62524017       2.42996233       3.03451931       10      -0.00136060       0.00797659       0.01347023
O        2.26315562       5.39641750       1.36110508       11       0.00136060       0.00797659      -0.01347023
O        3.51363596       2.42996233       1.36110508       12      -0.00136060       0.00797659      -0.01347023
O        5.15155141       5.39641750       3.03451931       13       0.00136060       0.00797659       0.01347023
O        5.15155141       3.50294800       5.75672947       14       0.00136060      -0.00797659      -0.01347023
O        3.51363596       0.53649283       7.43014370       15      -0.00136060      -0.00797659       0.01347023
O        5.49080805       4.44968275       0.00000000       16      -0.00522203      -0.00000000       0.00000000
O        3.17437932       1.48322758       4.39562439       17       0.00522203       0.00000000       0.00000000
O        0.28598353       1.48322758       0.00000000       18       0.00522203      -0.00000000      -0.00000000
O        2.60241226       4.44968275       4.39562439       19      -0.00522203      -0.00000000       0.00000000
20
Lattice="5.780305024945301 -2.6719784174726954e-60 3.9404758427009035e-44 2.5028886793817007e-60 5.935512746716202 4.1578909153074514e-17 1.0618744715695673e-44 1.8524537601624383e-17 8.782053026942677" Properties=species:S:1:pos:R:3:spacegroup_kinds:I:1:forces:R:3 spacegroup="P 1" unit_cell=conventional occupancy="_JSON {\"0\": {\"In\": 1}, \"1\": {\"In\": 1}, \"2\": {\"In\": 1}, \"3\": {\"In\": 1}, \"4\": {\"In\": 1}, \"5\": {\"In\": 1}, \"6\": {\"In\": 1}, \"7\": {\"In\": 1}, \"8\": {\"O\": 1}, \"9\": {\"O\": 1}, \"10\": {\"O\": 1}, \"11\": {\"O\": 1}, \"12\": {\"O\": 1}, \"13\": {\"O\": 1}, \"14\": {\"O\": 1}, \"15\": {\"O\": 1}, \"16\": {\"O\": 1}, \"17\": {\"O\": 1}, \"18\": {\"O\": 1}, \"19\": {\"O\": 1}}" n_minim_iter=8 energy=-22572.575878238116 stress="0.08662247720394398 -4.81280471716451e-14 4.664756705821833e-13 -4.81280471716451e-14 0.08659239963436856 -4.701839095718243e-13 4.664756705821833e-13 -4.701839095718243e-13 0.08611887307049314" free_energy=-22572.575878238116 pbc="T T T"
In       1.40089999       3.18143812       1.05359091        0      -0.01220763      -0.00338968       0.00069869
In       1.48925252       0.21368175       3.33743561        1       0.01220763      -0.00338968      -0.00069869
In       1.48925252       2.75407463       5.44461742        2       0.01220763       0.00338968       0.00069869
In       1.40089999       5.72183100       7.72846212        3      -0.01220763       0.00338968      -0.00069869
In       4.37940503       2.75407463       7.72846212        4       0.01220763       0.00338968      -0.00069869
In       4.29105250       5.72183100       5.44461742        5      -0.01220763       0.00338968       0.00069869
In       4.29105250       3.18143812       3.33743561        6      -0.01220763      -0.00338968      -0.00069869
In       4.37940503       0.21368175       1.05359091        7       0.01220763      -0.00338968       0.00069869
O        2.26499856       3.50403711       7.42337364        8       0.00270094      -0.00960001       0.01535934
O        0.62515395       0.53628074       5.74970590        9      -0.00270094      -0.00960001      -0.01535934
O        0.62515395       2.43147564       3.03234712       10      -0.00270094       0.00960001       0.01535934
O        2.26499856       5.39923201       1.35867939       11       0.00270094       0.00960001      -0.01535934
O        3.51530646       2.43147564       1.35867939       12      -0.00270094       0.00960001      -0.01535934
O        5.15515108       5.39923201       3.03234712       13       0.00270094       0.00960001       0.01535934
O        5.15515108       3.50403711       5.74970590       14       0.00270094      -0.00960001      -0.01535934
O        3.51530646       0.53628074       7.42337364       15      -0.00270094      -0.00960001       0.01535934
O        5.49459601       4.45163456       0.00000000       16      -0.00646578       0.00000000       0.00000000
O        3.17586152       1.48387819       4.39102651       17       0.00646578      -0.00000000       0.00000000
O        0.28570901       1.48387819       0.00000000       18       0.00646578      -0.00000000      -0.00000000
O        2.60444350       4.45163456       4.39102651       19      -0.00646578       0.00000000       0.00000000
20
Lattice="5.778496026743425 -2.630460830363948e-60 7.033548304340739e-44 2.646930851935674e-60 5.934994419558543 4.6627977183396875e-17 4.0952612868049904e-44 2.5823169221206503e-17 8.785569521915901" Properties=species:S:1:pos:R:3:spacegroup_kinds:I:1:forces:R:3 spacegroup="P 1" unit_cell=conventional occupancy="_JSON {\"0\": {\"In\": 1}, \"1\": {\"In\": 1}, \"2\": {\"In\": 1}, \"3\": {\"In\": 1}, \"4\": {\"In\": 1}, \"5\": {\"In\": 1}, \"6\": {\"In\": 1}, \"7\": {\"In\": 1}, \"8\": {\"O\": 1}, \"9\": {\"O\": 1}, \"10\": {\"O\": 1}, \"11\": {\"O\": 1}, \"12\": {\"O\": 1}, \"13\": {\"O\": 1}, \"14\": {\"O\": 1}, \"15\": {\"O\": 1}, \"16\": {\"O\": 1}, \"17\": {\"O\": 1}, \"18\": {\"O\": 1}, \"19\": {\"O\": 1}}" n_minim_iter=9 energy=-22572.57632554625 stress="0.08619811908377295 -5.164186353757871e-13 -3.1067932081863236e-13 -5.164186353757871e-13 0.0861915516907486 -1.5287190429977072e-13 -3.1067932081863236e-13 -1.5287190429977072e-13 0.08602453407036777" free_energy=-22572.57632554625 pbc="T T T"
In       1.39814624       3.18259960       1.05505192        0       0.00121498      -0.00450576       0.00535810
In       1.49110177       0.21510239       3.33773284        1      -0.00121498      -0.00450576      -0.00535810
In       1.49110177       2.75239482       5.44783668        2      -0.00121498       0.00450576       0.00535810
In       1.39814624       5.71989203       7.73051760        3       0.00121498       0.00450576      -0.00535810
In       4.38034978       2.75239482       7.73051760        4      -0.00121498       0.00450576      -0.00535810
In       4.28739426       5.71989203       5.44783668        5       0.00121498       0.00450576       0.00535810
In       4.28739426       3.18259960       3.33773284        6       0.00121498      -0.00450576      -0.00535810
In       4.38034978       0.21510239       1.05505192        7      -0.00121498      -0.00450576       0.00535810
O        2.26475416       3.50197770       7.42825512        8       0.00195329      -0.00911817       0.00788043
O        0.62449385       0.53448049       5.75009917        9      -0.00195329      -0.00911817      -0.00788043
O        0.62449385       2.43301672       3.03547035       10      -0.00195329       0.00911817       0.00788043
O        2.26475416       5.40051393       1.35731441       11       0.00195329       0.00911817      -0.00788043
O        3.51374186       2.43301672       1.35731441       12      -0.00195329       0.00911817      -0.00788043
O        5.15400218       5.40051393       3.03547035       13       0.00195329       0.00911817       0.00788043
O        5.15400218       3.50197770       5.75009917       14       0.00195329      -0.00911817      -0.00788043
O        3.51374186       0.53448049       7.42825512       15      -0.00195329      -0.00911817       0.00788043
O        5.49220721       4.45124581       0.00000000       16       0.00059579      -0.00000000      -0.00000000
O        3.17553683       1.48374860       4.39278476       17      -0.00059579       0.00000000       0.00000000
O        0.28628881       1.48374860       0.00000000       18      -0.00059579      -0.00000000      -0.00000000
O        2.60295920       4.45124581       4.39278476       19       0.00059579       0.00000000       0.00000000
20