20
Lattice="5.787452378360287 4.943088731897139e-61 -1.4550897808907079e-43 -2.1469786001143122e-61 5.8251713773253755 1.1249342003547515e-17 2.103614206296537e-43 -1.615779703327119e-17 8.366883749215072" Properties=species:S:1:pos:R:3:spacegroup_kinds:I:1:forces:R:3 spacegroup="P 1" unit_cell=conventional occupancy="_JSON {\"0\": {\"In\": 1}, \"1\": {\"In\": 1}, \"2\": {\"In\": 1}, \"3\": {\"In\": 1}, \"4\": {\"In\": 1}, \"5\": {\"In\": 1}, \"6\": {\"In\": 1}, \"7\": {\"In\": 1}, \"8\": {\"O\": 1}, \"9\": {\"O\": 1}, \"10\": {\"O\": 1}, \"11\": {\"O\": 1}, \"12\": {\"O\": 1}, \"13\": {\"O\": 1}, \"14\": {\"O\": 1}, \"15\": {\"O\": 1}, \"16\": {\"O\": 1}, \"17\": {\"O\": 1}, \"18\": {\"O\": 1}, \"19\": {\"O\": 1}}" n_minim_iter=1 energy=-22574.044488054795 stress="0.06538088841929579 -7.423966130629827e-15 3.778015259921472e-14 -7.423966130629827e-15 0.06626836456536467 -1.0960538490350943e-13 3.778015259921472e-14 -1.0960538490350943e-13 0.06481393824754002" free_energy=-22574.044488054795 pbc="T T T"
In       1.43471194       3.06674592       0.96262416        0      -0.02321261      -0.01262685       0.00979830
In       1.45901425       0.15416023       3.22081772        1       0.02321261      -0.01262685      -0.00979830
In       1.45901425       2.75842546       5.14606603        2       0.02321261       0.01262685       0.00979830
In       1.43471194       5.67101115       7.40425959        3      -0.02321261       0.01262685      -0.00979830
In       4.35274044       2.75842546       7.40425959        4       0.02321261       0.01262685      -0.00979830
In       4.32843813       5.67101115       5.14606603        5      -0.02321261       0.01262685       0.00979830
In       4.32843813       3.06674592       3.22081772        6      -0.02321261      -0.01262685      -0.00979830
In       4.35274044       0.15416023       0.96262416        7       0.02321261      -0.01262685       0.00979830
O        2.25956196       3.50004607       7.10430763        8       0.01480950      -0.05325521      -0.02508540
O        0.63416423       0.58746038       5.44601800        9      -0.01480950      -0.05325521       0.02508540
O        0.63416423       2.32512531       2.92086575       10      -0.01480950       0.05325521      -0.02508540
O        2.25956196       5.23771100       1.26257612       11       0.01480950       0.05325521       0.02508540
O        3.52789042       2.32512531       1.26257612       12      -0.01480950       0.05325521       0.02508540
O        5.15328815       5.23771100       2.92086575       13       0.01480950       0.05325521      -0.02508540
O        5.15328815       3.50004607       5.44601800       14       0.01480950      -0.05325521       0.02508540
O        3.52789042       0.58746038       7.10430763       15      -0.01480950      -0.05325521      -0.02508540
O        5.52644188       4.36887853       0.00000000       16      -0.08625866      -0.00000000       0.00000000
O        3.15473669       1.45629284       4.18344187       17       0.08625866      -0.00000000      -0.00000000
O        0.26101050       1.45629284       0.00000000       18       0.08625866      -0.00000000       0.00000000
O        2.63271569       4.36887853       4.18344187       19      -0.08625866      -0.00000000      -0.00000000
20
Lattice="5.788932035528453 7.573723124102223e-61 -1.4530719528552332e-43 -2.1296758305473656e-61 5.814301442911145 7.381739783596264e-19 2.1104630746550613e-43 -3.127903562777169e-17 8.380383196736288" Properties=species:S:1:pos:R:3:spacegroup_kinds:I:1:forces:R:3 spacegroup="P 1" unit_cell=conventional occupancy="_JSON {\"0\": {\"In\": 1}, \"1\": {\"In\": 1}, \"2\": {\"In\": 1}, \"3\": {\"In\": 1}, \"4\": {\"In\": 1}, \"5\": {\"In\": 1}, \"6\": {\"In\": 1}, \"7\": {\"In\": 1}, \"8\": {\"O\": 1}, \"9\": {\"O\": 1}, \"10\": {\"O\": 1}, \"11\": {\"O\": 1}, \"12\": {\"O\": 1}, \"13\": {\"O\": 1}, \"14\": {\"O\": 1}, \"15\": {\"O\": 1}, \"16\": {\"O\": 1}, \"17\": {\"O\": 1}, \"18\": {\"O\": 1}, \"19\": {\"O\": 1}}" n_minim_iter=2 energy=-22574.04512718216 stress="0.06522587390325284 4.3288883350317867e-13 2.882060446370795e-13 4.3288883350317867e-13 0.06471108910800315 -2.423581335856948e-13 2.882060446370795e-13 -2.423581335856948e-13 0.06576634068821469" free_energy=-22574.04512718216 pbc="T T T"
In       1.43488180       3.06091638       0.96426054        0      -0.02140738      -0.01792046       0.01632989
In       1.45958422       0.15376566       3.22593106        1       0.02140738      -0.01792046      -0.01632989
In       1.45958422       2.75338507       5.15445214        2       0.02140738       0.01792046       0.01632989
In       1.43488180       5.66053579       7.41612266        3      -0.02140738       0.01792046      -0.01632989
In       4.35405024       2.75338507       7.41612266        4       0.02140738       0.01792046      -0.01632989
In       4.32934782       5.66053579       5.15445214        5      -0.02140738       0.01792046       0.01632989
In       4.32934782       3.06091638       3.22593106        6      -0.02140738      -0.01792046      -0.01632989
In       4.35405024       0.15376566       0.96426054        7       0.02140738      -0.01792046       0.01632989
O        2.26026531       3.49306399       7.11555686        8       0.00813589      -0.04964338      -0.02672885
O        0.63420071       0.58591327       5.45501793        9      -0.00813589      -0.04964338       0.02672885
O        0.63420071       2.32123745       2.92536526       10      -0.00813589       0.04964338      -0.02672885
O        2.26026531       5.22838817       1.26482634       11       0.00813589       0.04964338       0.02672885
O        3.52866673       2.32123745       1.26482634       12      -0.00813589       0.04964338       0.02672885
O        5.15473132       5.22838817       2.92536526       13       0.00813589       0.04964338      -0.02672885
O        5.15473132       3.49306399       5.45501793       14       0.00813589      -0.04964338       0.02672885
O        3.52866673       0.58591327       7.11555686       15      -0.00813589      -0.04964338      -0.02672885
O        5.52712294       4.36072608       0.00000000       16      -0.07658076      -0.00000000      -0.00000000
O        3.15627511       1.45357536       4.19019160       17       0.07658076       0.00000000      -0.00000000
O        0.26180910       1.45357536       0.00000000       18       0.07658076      -0.00000000      -0.00000000
O        2.63265692       4.36072608       4.19019160       19      -0.07658076       0.00000000      -0.00000000
20
Lattice="5.796216781403088 8.19852510438748e-61 -1.4568443031409788e-43 -2.130132003770429e-61 5.813952593694921 -1.753779909077619e-18 2.105134678724512e-43 -3.485516461281466e-17 8.370352851883771" Properties=species:S:1:pos:R:3:spacegroup_kinds:I:1:forces:R:3 spacegroup="P 1" unit_cell=conventional occupancy="_JSON {\"0\": {\"In\": 1}, \"1\": {\"In\": 1}, \"2\": {\"In\": 1}, \"3\": {\"In\": 1}, \"4\": {\"In\": 1}, \"5\": {\"In\": 1}, \"6\": {\"In\": 1}, \"7\": {\"In\": 1}, \"8\": {\"O\": 1}, \"9\": {\"O\": 1}, \"10\": {\"O\": 1}, \"11\": {\"O\": 1}, \"12\": {\"O\": 1}, \"13\": {\"O\": 1}, \"14\": {\"O\": 1}, \"15\": {\"O\": 1}, \"16\": {\"O\": 1}, \"17\": {\"O\": 1}, \"18\": {\"O\": 1}, \"19\": {\"O\": 1}}" n_minim_iter=3 energy=-22574.047942703226 stress="0.06557502725383693 4.1797406358989957e-13 -4.791062535861972e-13 4.1797406358989957e-13 0.06390690011694604 -3.532690754634244e-13 -4.791062535861972e-13 -3.532690754634244e-13 0.06378737786799317" free_energy=-22574.047942703226 pbc="T T T"
In       1.43463566       3.05927650       0.96437593        0       0.00737915       0.01865553       0.00889725
In       1.46347273       0.15230020       3.22080050        1      -0.00737915       0.01865553      -0.00889725
In       1.46347273       2.75467610       5.14955235        2      -0.00737915      -0.01865553       0.00889725
In       1.43463566       5.66165239       7.40597693        3       0.00737915      -0.01865553      -0.00889725
In       4.36158112       2.75467610       7.40597693        4      -0.00737915      -0.01865553      -0.00889725
In       4.33274405       5.66165239       5.14955235        5       0.00737915      -0.01865553       0.00889725
In       4.33274405       3.05927650       3.22080050        6       0.00737915       0.01865553      -0.00889725
In       4.36158112       0.15230020       0.96437593        7      -0.00737915       0.01865553       0.00889725
O        2.26411308       3.48813991       7.10462481        8       0.00194987      -0.02030931       0.01091488
O        0.63399531       0.58116361       5.45090447        9      -0.00194987      -0.02030931      -0.01091488
O        0.63399531       2.32581269       2.91944838       10      -0.00194987       0.02030931       0.01091488
O        2.26411308       5.23278898       1.26572805       11       0.00194987       0.02030931      -0.01091488
O        3.53210370       2.32581269       1.26572805       12      -0.00194987       0.02030931      -0.01091488
O        5.16222147       5.23278898       2.91944838       13       0.00194987       0.02030931       0.01091488
O        5.16222147       3.48813991       5.45090447       14       0.00194987      -0.02030931      -0.01091488
O        3.53210370       0.58116361       7.10462481       15      -0.00194987      -0.02030931       0.01091488
O        5.52661807       4.36046445       0.00000000       16      -0.01002349       0.00000000      -0.00000000
O        3.16770710       1.45348815       4.18517643       17       0.01002349      -0.00000000       0.00000000
O        0.26959871       1.45348815       0.00000000       18       0.01002349       0.00000000      -0.00000000
O        2.62850968       4.36046445       4.18517643       19      -0.01002349       0.00000000       0.00000000
20
Lattice="5.786696048862858 8.126369801272011e-61 -1.3450738107576346e-43 -2.0558005592466635e-61 5.818730763711118 -1.4377042414083854e-18 1.721872449300108e-43 -3.442774721320848e-17 8.37723962647357" Properties=species:S:1:pos:R:3:spacegroup_kinds:I:1:forces:R:3 spacegroup="P 1" unit_cell=conventional occupancy="_JSON {\"0\": {\"In\": 1}, \"1\": {\"In\": 1}, \"2\": {\"In\": 1}, \"3\": {\"In\": 1}, \"4\": {\"In\": 1}, \"5\": {\"In\": 1}, \"6\": {\"In\": 1}, \"7\": {\"In\": 1}, \"8\": {\"O\": 1}, \"9\": {\"O\": 1}, \"10\": {\"O\": 1}, \"11\": {\"O\": 1}, \"12\": {\"O\": 1}, \"13\": {\"O\": 1}, \"14\": {\"O\": 1}, \"15\": {\"O\": 1}, \"16\": {\"O\": 1}, \"17\": {\"O\": 1}, \"18\": {\"O\": 1}, \"19\": {\"O\": 1}}" n_minim_iter=4 energy=-22574.04841910666 stress="0.06420147689770273 -1.3006722903823252e-14 1.2294596604098803e-13 -1.3006722903823252e-14 0.064270100650574 4.0129680493741516e-13 1.2294596604098803e-13 4.0129680493741516e-13 0.06430139503898243" free_energy=-22574.04841910666 pbc="T T T"
In       1.43197577       3.06165110       0.96543464        0       0.00426781       0.02799734       0.00886054
In       1.46137225       0.15228572       3.22318517        1      -0.00426781       0.02799734      -0.00886054
In       1.46137225       2.75707966       5.15405446        2      -0.00426781      -0.02799734       0.00886054
In       1.43197577       5.66644504       7.41180498        3       0.00426781      -0.02799734      -0.00886054
In       4.35472028       2.75707966       7.41180498        4      -0.00426781      -0.02799734      -0.00886054
In       4.32532380       5.66644504       5.15405446        5       0.00426781      -0.02799734       0.00886054
In       4.32532380       3.06165110       3.22318517        6       0.00426781       0.02799734      -0.00886054
In       4.35472028       0.15228572       0.96543464        7      -0.00426781       0.02799734       0.00886054
O        2.26057428       3.49009488       7.11012477        8      -0.00170108      -0.01404959       0.00820026
O        0.63277374       0.58072950       5.45573467        9       0.00170108      -0.01404959      -0.00820026
O        0.63277374       2.32863588       2.92150495       10       0.00170108       0.01404959       0.00820026
O        2.26057428       5.23800127       1.26711486       11      -0.00170108       0.01404959      -0.00820026
O        3.52612177       2.32863588       1.26711486       12       0.00170108       0.01404959      -0.00820026
O        5.15392231       5.23800127       2.92150495       13      -0.00170108       0.01404959       0.00820026
O        5.15392231       3.49009488       5.45573467       14      -0.00170108      -0.01404959      -0.00820026
O        3.52612177       0.58072950       7.11012477       15       0.00170108      -0.01404959       0.00820026
O        5.51622625       4.36404807       0.00000000       16       0.00296949      -0.00000000      -0.00000000
O        3.16381782       1.45468269       4.18861981       17      -0.00296949       0.00000000       0.00000000
O        0.27046980       1.45468269       0.00000000       18      -0.00296949       0.00000000       0.00000000
O        2.62287823       4.36404807       4.18861981       19       0.00296949      -0.00000000      -0.00000000
20
Lattice="5.785643003714812 8.118609518541387e-61 -2.6854695442250185e-43 -1.303062752751208e-61 5.8245796482094745 -1.813661261724387e-18 -1.922881465967502e-43 -3.500522725575165e-17 8.370350640901824" Properties=species:S:1:pos:R:3:spacegroup_kinds:I:1:forces:R:3 spacegroup="P 1" unit_cell=conventional occupancy="_JSON {\"0\": {\"In\": 1}, \"1\": {\"In\": 1}, \"2\": {\"In\": 1}, \"3\": {\"In\": 1}, \"4\": {\"In\": 1}, \"5\": {\"In\": 1}, \"6\": {\"In\": 1}, \"7\": {\"In\": 1}, \"8\": {\"O\": 1}, \"9\": {\"O\": 1}, \"10\": {\"O\": 1}, \"11\": {\"O\": 1}, \"12\": {\"O\": 1}, \"13\": {\"O\": 1}, \"14\": {\"O\": 1}, \"15\": {\"O\": 1}, \"16\": {\"O\": 1}, \"17\": {\"O\": 1}, \"18\": {\"O\": 1}, \"19\": {\"O\": 1}}" n_minim_iter=5 energy=-22574.049946959338 stress="0.06365188074014817 2.537158156465265e-13 3.168050247589903e-13 2.537158156465265e-13 0.06382322354309365 4.843096828016684e-13 3.168050247589903e-13 4.843096828016684e-13 0.06350631422107071" free_energy=-22574.049946959338 pbc="T T T"
In       1.43211240       3.07272474       0.96807287        0      -0.02151959       0.00464485      -0.00375562
In       1.46070910       0.16043491       3.21710245        1       0.02151959       0.00464485       0.00375562
In       1.46070910       2.75185491       5.15324819        2       0.02151959      -0.00464485      -0.00375562
In       1.43211240       5.66414474       7.40227777        3      -0.02151959      -0.00464485       0.00375562
In       4.35353060       2.75185491       7.40227777        4       0.02151959      -0.00464485       0.00375562
In       4.32493390       5.66414474       5.15324819        5      -0.02151959      -0.00464485      -0.00375562
In       4.32493390       3.07272474       3.21710245        6      -0.02151959       0.00464485       0.00375562
In       4.35353060       0.16043491       0.96807287        7       0.02151959       0.00464485      -0.00375562
O        2.26018664       3.48671836       7.10574314        8       0.00057704      -0.00279522       0.00649041
O        0.63263486       0.57442854       5.44978283        9      -0.00057704      -0.00279522      -0.00649041
O        0.63263486       2.33786129       2.92056781       10      -0.00057704       0.00279522       0.00649041
O        2.26018664       5.25015111       1.26460751       11       0.00057704       0.00279522      -0.00649041
O        3.52545636       2.33786129       1.26460751       12      -0.00057704       0.00279522      -0.00649041
O        5.15300815       5.25015111       2.92056781       13       0.00057704       0.00279522       0.00649041
O        5.15300815       3.48671836       5.44978283       14       0.00057704      -0.00279522      -0.00649041
O        3.52545636       0.57442854       7.10574314       15      -0.00057704      -0.00279522       0.00649041
O        5.51226680       4.36843474       0.00000000       16       0.00628806       0.00000000       0.00000000
O        3.16619770       1.45614491       4.18517532       17      -0.00628806      -0.00000000      -0.00000000
O        0.27337620       1.45614491       0.00000000       18      -0.00628806       0.00000000       0.00000000
O        2.61944530       4.36843474       4.18517532       19       0.00628806      -0.00000000      -0.00000000
20
Lattice="5.785446057761758 7.594812559603283e-61 -2.6773476614855496e-43 -1.3006406731992677e-61 5.822748764713854 -6.821257328679653e-19 -1.9436189425543276e-43 -3.336839000292121e-17 8.373267612756228" Properties=species:S:1:pos:R:3:spacegroup_kinds:I:1:forces:R:3 spacegroup="P 1" unit_cell=conventional occupancy="_JSON {\"0\": {\"In\": 1}, \"1\": {\"In\": 1}, \"2\": {\"In\": 1}, \"3\": {\"In\": 1}, \"4\": {\"In\": 1}, \"5\": {\"In\": 1}, \"6\": {\"In\": 1}, \"7\": {\"In\": 1}, \"8\": {\"O\": 1}, \"9\": {\"O\": 1}, \"10\": {\"O\": 1}, \"11\": {\"O\": 1}, \"12\": {\"O\": 1}, \"13\": {\"O\": 1}, \"14\": {\"O\": 1}, \"15\": {\"O\": 1}, \"16\": {\"O\": 1}, \"17\": {\"O\": 1}, \"18\": {\"O\": 1}, \"19\": {\"O\": 1}}" n_minim_iter=6 energy=-22574.050083722206 stress="0.06343519645136192 1.2742847259744755e-13 2.695800165799483e-13 1.2742847259744755e-13 0.06316795109428523 8.444434610650251e-13 2.695800165799483e-13 8.444434610650251e-13 0.06361385130606285" free_energy=-22574.050083722206 pbc="T T T"
In       1.43127536       3.07390998       0.96922331        0      -0.02014839      -0.00250683      -0.00149843
In       1.46144767       0.16253560       3.21741049        1       0.02014839      -0.00250683       0.00149843
In       1.46144767       2.74883878       5.15585712        2       0.02014839       0.00250683      -0.00149843
In       1.43127536       5.66021317       7.40404430        3      -0.02014839       0.00250683       0.00149843
In       4.35417070       2.74883878       7.40404430        4       0.02014839       0.00250683       0.00149843
In       4.32399838       5.66021317       5.15585712        5      -0.02014839       0.00250683      -0.00149843
In       4.32399838       3.07390998       3.21741049        6      -0.02014839      -0.00250683       0.00149843
In       4.35417070       0.16253560       0.96922331        7       0.02014839      -0.00250683      -0.00149843
O        2.26015872       3.48356415       7.10873651        8       0.00022834       0.00099905       0.00397732
O        0.63256431       0.57218977       5.45116491        9      -0.00022834       0.00099905      -0.00397732
O        0.63256431       2.33918461       2.92210270       10      -0.00022834      -0.00099905       0.00397732
O        2.26015872       5.25055899       1.26453110       11       0.00022834      -0.00099905      -0.00397732
O        3.52528734       2.33918461       1.26453110       12      -0.00022834      -0.00099905      -0.00397732
O        5.15288175       5.25055899       2.92210270       13       0.00022834      -0.00099905       0.00397732
O        5.15288175       3.48356415       5.45116491       14       0.00022834       0.00099905      -0.00397732
O        3.52528734       0.57218977       7.10873651       15      -0.00022834       0.00099905       0.00397732
O        5.51127752       4.36706157       0.00000000       16       0.01030022       0.00000000      -0.00000000
O        3.16689156       1.45568719       4.18663381       17      -0.01030022      -0.00000000      -0.00000000
O        0.27416853       1.45568719       0.00000000       18      -0.01030022      -0.00000000      -0.00000000
O        2.61855449       4.36706157       4.18663381       19       0.01030022      -0.00000000      -0.00000000
20
Lattice="5.783797362074453 4.692366075835437e-61 -2.7832484013127782e-43 -2.9822430924465337e-61 5.826101963285435 1.949153372428603e-18 -2.0972907747067267e-43 -2.9606398874692196e-17 8.370833860598527" Properties=species:S:1:pos:R:3:spacegroup_kinds:I:1:forces:R:3 spacegroup="P 1" unit_cell=conventional occupancy="_JSON {\"0\": {\"In\": 1}, \"1\": {\"In\": 1}, \"2\": {\"In\": 1}, \"3\": {\"In\": 1}, \"4\": {\"In\": 1}, \"5\": {\"In\": 1}, \"6\": {\"In\": 1}, \"7\": {\"In\": 1}, \"8\": {\"O\": 1}, \"9\": {\"O\": 1}, \"10\": {\"O\": 1}, \"11\": {\"O\": 1}, \"12\": {\"O\": 1}, \"13\": {\"O\": 1}, \"14\": {\"O\": 1}, \"15\": {\"O\": 1}, \"16\": {\"O\": 1}, \"17\": {\"O\": 1}, \"18\": {\"O\": 1}, \"19\": {\"O\": 1}}" n_minim_iter=7 energy=-22574.05033319257 stress="0.0634129887337563 -1.5857696407462198e-13 -3.284330985576392e-13 -1.5857696407462198e-13 0.06342927087736387 -4.3558843768445474e-13 -3.284330985576392e-13 -4.3558843768445474e-13 0.06340057245184802" free_energy=-22574.05033319257 pbc="T T T"
In       1.42839516       3.07654149       0.96886568        0       0.00016822      -0.00228406       0.00532682
In       1.46350352       0.16349051       3.21655125        1      -0.00016822      -0.00228406      -0.00532682
In       1.46350352       2.74956047       5.15428262        2      -0.00016822       0.00228406       0.00532682
In       1.42839516       5.66261145       7.40196818        3       0.00016822       0.00228406      -0.00532682
In       4.35540220       2.74956047       7.40196818        4      -0.00016822       0.00228406      -0.00532682
In       4.32029384       5.66261145       5.15428262        5       0.00016822       0.00228406       0.00532682
In       4.32029384       3.07654149       3.21655125        6       0.00016822      -0.00228406      -0.00532682
In       4.35540220       0.16349051       0.96886568        7      -0.00016822      -0.00228406       0.00532682
O        2.25955349       3.48497796       7.10749769        8       0.00545538      -0.00089219       0.00017684
O        0.63234519       0.57192698       5.44875310        9      -0.00545538      -0.00089219      -0.00017684
O        0.63234519       2.34112400       2.92208076       10      -0.00545538       0.00089219       0.00017684
O        2.25955349       5.25417499       1.26333617       11       0.00545538       0.00089219      -0.00017684
O        3.52424388       2.34112400       1.26333617       12      -0.00545538       0.00089219      -0.00017684
O        5.15145217       5.25417499       2.92208076       13       0.00545538       0.00089219       0.00017684
O        5.15145217       3.48497796       5.44875310       14       0.00545538      -0.00089219      -0.00017684
O        3.52424388       0.57192698       7.10749769       15      -0.00545538      -0.00089219       0.00017684
O        5.51062516       4.36957647       0.00000000       16       0.00470057       0.00000000       0.00000000
O        3.16507088       1.45652549       4.18541693       17      -0.00470057      -0.00000000       0.00000000
O        0.27317220       1.45652549       0.00000000       18      -0.00470057      -0.00000000       0.00000000
O        2.61872648       4.36957647       4.18541693       19       0.00470057       0.00000000      -0.00000000
