20
Lattice="5.929252620363906 -1.61328283434612e-58 -2.437056951904971e-44 3.6791208141096295e-59 4.5611164987907005 -2.8135899710237636e-15 -7.937949018279263e-43 4.33763821210805e-15 8.05962793711725" Properties=species:S:1:pos:R:3:spacegroup_kinds:I:1:forces:R:3 spacegroup="P 1" unit_cell=conventional occupancy="_JSON {\"0\": {\"In\": 1}, \"1\": {\"In\": 1}, \"2\": {\"In\": 1}, \"3\": {\"In\": 1}, \"4\": {\"In\": 1}, \"5\": {\"In\": 1}, \"6\": {\"In\": 1}, \"7\": {\"In\": 1}, \"8\": {\"O\": 1}, \"9\": {\"O\": 1}, \"10\": {\"O\": 1}, \"11\": {\"O\": 1}, \"12\": {\"O\": 1}, \"13\": {\"O\": 1}, \"14\": {\"O\": 1}, \"15\": {\"O\": 1}, \"16\": {\"O\": 1}, \"17\": {\"O\": 1}, \"18\": {\"O\": 1}, \"19\": {\"O\": 1}}" n_minim_iter=12 energy=-22572.960034342155 stress="-0.15251076982514933 -4.958824959897152e-14 2.1819935796081757e-13 -4.958824959897152e-14 -0.15235851367378483 1.135178188840999e-13 2.1819935796081757e-13 1.135178188840999e-13 -0.1523567320381586" free_energy=-22572.960034342155 pbc="T T T"
In       1.55417176       2.28529189       0.91968080        0      -0.00091761      -0.00549691       0.00502762
In       1.41045455       0.00473364       3.11013316        1       0.00091761      -0.00549691      -0.00502762
In       1.41045455       2.27582461       4.94949477        2       0.00091761       0.00549691       0.00502762
In       1.55417176       4.55638286       7.13994713        3      -0.00091761       0.00549691      -0.00502762
In       4.37508086       2.27582461       7.13994713        4       0.00091761       0.00549691      -0.00502762
In       4.51879808       4.55638286       4.94949477        5      -0.00091761       0.00549691       0.00502762
In       4.51879808       2.28529189       3.11013316        6      -0.00091761      -0.00549691      -0.00502762
In       4.37508086       0.00473364       0.91968080        7       0.00091761      -0.00549691       0.00502762
O        2.24984937       2.44969613       6.85942660        8       0.00114906       0.00051701      -0.00620559
O        0.71477694       0.16913788       5.23001531        9      -0.00114906       0.00051701       0.00620559
O        0.71477694       2.11142037       2.82961263       10      -0.00114906      -0.00051701      -0.00620559
O        2.24984937       4.39197862       1.20020134       11       0.00114906      -0.00051701       0.00620559
O        3.67940325       2.11142037       1.20020134       12      -0.00114906      -0.00051701       0.00620559
O        5.21447568       4.39197862       2.82961263       13       0.00114906      -0.00051701      -0.00620559
O        5.21447568       2.44969613       5.23001531       14       0.00114906       0.00051701       0.00620559
O        3.67940325       0.16913788       6.85942660       15      -0.00114906       0.00051701      -0.00620559
O        5.88912867       3.42083737      -0.00000000       16       0.00158308       0.00000000       0.00000000
O        3.00475026       1.14027912       4.02981397       17      -0.00158308      -0.00000000       0.00000000
O        0.04012395       1.14027912      -0.00000000       18      -0.00158308      -0.00000000       0.00000000
O        2.92450236       3.42083737       4.02981397       19       0.00158308      -0.00000000       0.00000000
