20
Lattice="5.435428161589047 -5.734630643394871e-60 6.853936406542281e-44 7.587961042183804e-60 5.524718681795649 -1.2889770327296701e-16 -7.199228899056017e-44 1.7202210233201609e-16 7.685387464421048" Properties=species:S:1:pos:R:3:spacegroup_kinds:I:1:forces:R:3 spacegroup="P 1" unit_cell=conventional occupancy="_JSON {\"0\": {\"In\": 1}, \"1\": {\"In\": 1}, \"2\": {\"In\": 1}, \"3\": {\"In\": 1}, \"4\": {\"In\": 1}, \"5\": {\"In\": 1}, \"6\": {\"In\": 1}, \"7\": {\"In\": 1}, \"8\": {\"O\": 1}, \"9\": {\"O\": 1}, \"10\": {\"O\": 1}, \"11\": {\"O\": 1}, \"12\": {\"O\": 1}, \"13\": {\"O\": 1}, \"14\": {\"O\": 1}, \"15\": {\"O\": 1}, \"16\": {\"O\": 1}, \"17\": {\"O\": 1}, \"18\": {\"O\": 1}, \"19\": {\"O\": 1}}" n_minim_iter=8 energy=-22574.361130388235 stress="-0.06668752831632185 2.243264927531925e-13 2.807437627544775e-13 2.243264927531925e-13 -0.06671577082442304 -5.921208776120226e-13 2.807437627544775e-13 -5.921208776120226e-13 -0.06690069038712076" free_energy=-22574.361130388235 pbc="T T T"
In       1.35073162       2.93532613       0.90170676        0       0.00023307      -0.00058083       0.00044769
In       1.36698246       0.17296679       2.94098698        1      -0.00023307      -0.00058083      -0.00044769
In       1.36698246       2.58939255       4.74440049        2      -0.00023307       0.00058083       0.00044769
In       1.35073162       5.35175189       6.78368071        3       0.00023307       0.00058083      -0.00044769
In       4.08469654       2.58939255       6.78368071        4      -0.00023307       0.00058083      -0.00044769
In       4.06844570       5.35175189       4.74440049        5       0.00023307       0.00058083       0.00044769
In       4.06844570       2.93532613       2.94098698        6       0.00023307      -0.00058083      -0.00044769
In       4.08469654       0.17296679       0.90170676        7      -0.00023307      -0.00058083       0.00044769
O        2.11888498       3.33557288       6.55096437        8      -0.00514040       0.00035120      -0.00095770
O        0.59882910       0.57321354       4.97711682        9       0.00514040       0.00035120       0.00095770
O        0.59882910       2.18914580       2.70827064       10       0.00514040      -0.00035120      -0.00095770
O        2.11888498       4.95150514       1.13442309       11      -0.00514040      -0.00035120       0.00095770
O        3.31654319       2.18914580       1.13442309       12       0.00514040      -0.00035120       0.00095770
O        4.83659906       4.95150514       2.70827064       13      -0.00514040      -0.00035120      -0.00095770
O        4.83659906       3.33557288       4.97711682       14      -0.00514040       0.00035120       0.00095770
O        3.31654319       0.57321354       6.55096437       15       0.00514040       0.00035120      -0.00095770
O        5.20949036       4.14353901      -0.00000000       16      -0.00420340       0.00000000       0.00000000
O        2.94365188       1.38117967       3.84269373       17       0.00420340      -0.00000000       0.00000000
O        0.22593780       1.38117967      -0.00000000       18       0.00420340       0.00000000      -0.00000000
O        2.49177628       4.14353901       3.84269373       19      -0.00420340       0.00000000      -0.00000000
