20
Lattice="5.426967086792536 -1.0310389570081105e-59 3.290941114831845e-44 2.803095395327288e-59 5.4290842979925555 -1.712150893934799e-16 -1.000280706838967e-43 1.0202840154698936e-16 7.615378040922275" Properties=species:S:1:pos:R:3:spacegroup_kinds:I:1:forces:R:3 spacegroup="P 1" unit_cell=conventional occupancy="_JSON {\"0\": {\"In\": 1}, \"1\": {\"In\": 1}, \"2\": {\"In\": 1}, \"3\": {\"In\": 1}, \"4\": {\"In\": 1}, \"5\": {\"In\": 1}, \"6\": {\"In\": 1}, \"7\": {\"In\": 1}, \"8\": {\"O\": 1}, \"9\": {\"O\": 1}, \"10\": {\"O\": 1}, \"11\": {\"O\": 1}, \"12\": {\"O\": 1}, \"13\": {\"O\": 1}, \"14\": {\"O\": 1}, \"15\": {\"O\": 1}, \"16\": {\"O\": 1}, \"17\": {\"O\": 1}, \"18\": {\"O\": 1}, \"19\": {\"O\": 1}}" n_minim_iter=12 energy=-22573.843781859858 stress="-0.09473142587408513 6.565623870978796e-13 1.953279794295274e-13 6.565623870978796e-13 -0.09474176791760018 -1.2587530212778179e-12 1.953279794295274e-13 -1.2587530212778179e-12 -0.09474576735412864" free_energy=-22573.843781859858 pbc="T T T"
In       1.34910743       2.88292095       0.91202337        0       0.00127361      -0.00212425      -0.00026605
In       1.36437611       0.16837880       2.89566565        1      -0.00127361      -0.00212425       0.00026605
In       1.36437611       2.54616335       4.71971239        2      -0.00127361       0.00212425      -0.00026605
In       1.34910743       5.26070550       6.70335467        3       0.00127361       0.00212425       0.00026605
In       4.07785966       2.54616335       6.70335467        4      -0.00127361       0.00212425       0.00026605
In       4.06259097       5.26070550       4.71971239        5       0.00127361       0.00212425      -0.00026605
In       4.06259097       2.88292095       2.89566565        6       0.00127361      -0.00212425       0.00026605
In       4.07785966       0.16837880       0.91202337        7      -0.00127361      -0.00212425      -0.00026605
O        2.11310500       3.26520831       6.51115501        8       0.00264583      -0.00127999       0.00008639
O        0.60037854       0.55066616       4.91191205        9      -0.00264583      -0.00127999      -0.00008639
O        0.60037854       2.16387599       2.70346599       10      -0.00264583       0.00127999       0.00008639
O        2.11310500       4.87841814       1.10422303       11       0.00264583       0.00127999      -0.00008639
O        3.31386209       2.16387599       1.10422303       12      -0.00264583       0.00127999      -0.00008639
O        4.82658854       4.87841814       2.70346599       13       0.00264583       0.00127999       0.00008639
O        4.82658854       3.26520831       4.91191205       14       0.00264583      -0.00127999      -0.00008639
O        3.31386209       0.55066616       6.51115501       15      -0.00264583      -0.00127999       0.00008639
O        5.20443668       4.07181322      -0.00000000       16      -0.00801951       0.00000000      -0.00000000
O        2.93601395       1.35727107       3.80768902       17       0.00801952       0.00000000       0.00000000
O        0.22253041       1.35727107      -0.00000000       18       0.00801952      -0.00000000       0.00000000
O        2.49095314       4.07181322       3.80768902       19      -0.00801951       0.00000000       0.00000000
