20
Lattice="5.787452378360288 4.743732591975554e-61 -1.3518585270272314e-43 -8.9187010928326e-62 5.8251713773253755 -5.363211154494708e-18 2.103614206296537e-43 -1.6157797033271187e-17 8.366883749215072" Properties=species:S:1:pos:R:3:spacegroup_kinds:I:1:forces:R:3 spacegroup="P 1" unit_cell=conventional occupancy="_JSON {\"0\": {\"In\": 1}, \"1\": {\"In\": 1}, \"2\": {\"In\": 1}, \"3\": {\"In\": 1}, \"4\": {\"In\": 1}, \"5\": {\"In\": 1}, \"6\": {\"In\": 1}, \"7\": {\"In\": 1}, \"8\": {\"O\": 1}, \"9\": {\"O\": 1}, \"10\": {\"O\": 1}, \"11\": {\"O\": 1}, \"12\": {\"O\": 1}, \"13\": {\"O\": 1}, \"14\": {\"O\": 1}, \"15\": {\"O\": 1}, \"16\": {\"O\": 1}, \"17\": {\"O\": 1}, \"18\": {\"O\": 1}, \"19\": {\"O\": 1}}" n_minim_iter=6 energy=-22574.4234143432 stress="0.05218682066140693 1.0744869527447951e-13 -2.645084814250663e-13 1.0744869527447951e-13 0.051927408866316756 -5.156791419943312e-13 -2.645084814250663e-13 -5.156791419943312e-13 0.05213947177944426" free_energy=-22574.4234143432 pbc="T T T"
In       1.43471194       3.06674592       0.96262416        0      -0.00961321       0.00245651       0.00053343
In       1.45901425       0.15416023       3.22081772        1       0.00961321       0.00245651      -0.00053343
In       1.45901425       2.75842546       5.14606603        2       0.00961321      -0.00245651       0.00053343
In       1.43471194       5.67101115       7.40425959        3      -0.00961321      -0.00245651      -0.00053343
In       4.35274044       2.75842546       7.40425959        4       0.00961321      -0.00245651      -0.00053343
In       4.32843813       5.67101115       5.14606603        5      -0.00961321      -0.00245651       0.00053343
In       4.32843813       3.06674592       3.22081772        6      -0.00961321       0.00245651      -0.00053343
In       4.35274044       0.15416023       0.96262416        7       0.00961321       0.00245651       0.00053343
O        2.25956196       3.50004607       7.10430763        8      -0.00189555      -0.00193983      -0.00073238
O        0.63416423       0.58746038       5.44601800        9       0.00189555      -0.00193983       0.00073238
O        0.63416423       2.32512531       2.92086575       10       0.00189555       0.00193983      -0.00073238
O        2.25956196       5.23771100       1.26257612       11      -0.00189555       0.00193983       0.00073238
O        3.52789042       2.32512531       1.26257612       12       0.00189555       0.00193983       0.00073238
O        5.15328815       5.23771100       2.92086575       13      -0.00189555       0.00193983      -0.00073238
O        5.15328815       3.50004607       5.44601800       14      -0.00189555      -0.00193983       0.00073238
O        3.52789042       0.58746038       7.10430763       15       0.00189555      -0.00193983      -0.00073238
O        5.52644188       4.36887853       0.00000000       16       0.00456004      -0.00000000       0.00000000
O        3.15473669       1.45629284       4.18344187       17      -0.00456004      -0.00000000       0.00000000
O        0.26101050       1.45629284       0.00000000       18      -0.00456004       0.00000000      -0.00000000
O        2.63271569       4.36887853       4.18344187       19       0.00456004       0.00000000       0.00000000
