20
Lattice="5.384991076824568 1.1331450967064547e-57 7.772777471119897e-42 -8.93428030741952e-58 5.572930739808846 9.85973630774969e-16 -1.2214743581269567e-42 1.4215183928913716e-15 7.490995031712107" Properties=species:S:1:pos:R:3:spacegroup_kinds:I:1:forces:R:3 spacegroup="P 1" unit_cell=conventional occupancy="_JSON {\"0\": {\"In\": 1}, \"1\": {\"In\": 1}, \"2\": {\"In\": 1}, \"3\": {\"In\": 1}, \"4\": {\"In\": 1}, \"5\": {\"In\": 1}, \"6\": {\"In\": 1}, \"7\": {\"In\": 1}, \"8\": {\"O\": 1}, \"9\": {\"O\": 1}, \"10\": {\"O\": 1}, \"11\": {\"O\": 1}, \"12\": {\"O\": 1}, \"13\": {\"O\": 1}, \"14\": {\"O\": 1}, \"15\": {\"O\": 1}, \"16\": {\"O\": 1}, \"17\": {\"O\": 1}, \"18\": {\"O\": 1}, \"19\": {\"O\": 1}}" n_minim_iter=25 energy=-22576.28519362935 stress="0.07168680660662867 3.2025012500852538e-12 3.7118530871096155e-14 3.2025012500852538e-12 0.07122643759113655 1.233657266395223e-15 3.7118530871096155e-14 1.233657266395223e-15 0.0714153271884499" free_energy=-22576.28519362935 pbc="T T T"
In       1.33179346       2.77953030       0.62353723        0      -0.00393759      -0.00179668       0.00114994
In       1.36070208      -0.00693507       3.12196028        1       0.00393759      -0.00179668      -0.00114994
In       1.36070208       2.79340044       4.36903475        2       0.00393759       0.00179668       0.00114994
In       1.33179346       5.57986581       6.86745780        3      -0.00393759       0.00179668      -0.00114994
In       4.05319762       2.79340044       6.86745780        4       0.00393759       0.00179668      -0.00114994
In       4.02428900       5.57986581       4.36903475        5      -0.00393759       0.00179668       0.00114994
In       4.02428900       2.77953030       3.12196028        6      -0.00393759      -0.00179668      -0.00114994
In       4.05319762      -0.00693507       0.62353723        7       0.00393759      -0.00179668       0.00114994
O        2.20475204       3.12811129       6.23307095        8      -0.00143434      -0.00018342      -0.00186677
O        0.48774350       0.34164592       5.00342160        9       0.00143434      -0.00018342       0.00186677
O        0.48774350       2.44481945       2.48757343       10       0.00143434       0.00018342      -0.00186677
O        2.20475204       5.23128482       1.25792408       11      -0.00143434       0.00018342       0.00186677
O        3.18023904       2.44481945       1.25792408       12       0.00143434       0.00018342       0.00186677
O        4.89724758       5.23128482       2.48757343       13      -0.00143434       0.00018342      -0.00186677
O        4.89724758       3.12811129       5.00342160       14      -0.00143434      -0.00018342       0.00186677
O        3.18023904       0.34164592       6.23307095       15       0.00143434      -0.00018342      -0.00186677
O        5.36066198       4.17969805       0.00000000       16      -0.00102170       0.00000000       0.00000000
O        2.71682463       1.39323268       3.74549752       17       0.00102170       0.00000000      -0.00000000
O        0.02432910       1.39323268       0.00000000       18       0.00102170       0.00000000       0.00000000
O        2.66816644       4.17969805       3.74549752       19      -0.00102170      -0.00000000      -0.00000000
