20
Lattice="5.40191192963314 4.9910354281636335e-58 5.809899416960088e-42 -5.1483583131652014e-58 5.401181756753395 -2.3300655027249603e-19 -9.343642280709378e-42 -2.4382431286579706e-17 7.92512840805842" Properties=species:S:1:pos:R:3:spacegroup_kinds:I:1:forces:R:3 spacegroup="P 1" unit_cell=conventional occupancy="_JSON {\"0\": {\"In\": 1}, \"1\": {\"In\": 1}, \"2\": {\"In\": 1}, \"3\": {\"In\": 1}, \"4\": {\"In\": 1}, \"5\": {\"In\": 1}, \"6\": {\"In\": 1}, \"7\": {\"In\": 1}, \"8\": {\"O\": 1}, \"9\": {\"O\": 1}, \"10\": {\"O\": 1}, \"11\": {\"O\": 1}, \"12\": {\"O\": 1}, \"13\": {\"O\": 1}, \"14\": {\"O\": 1}, \"15\": {\"O\": 1}, \"16\": {\"O\": 1}, \"17\": {\"O\": 1}, \"18\": {\"O\": 1}, \"19\": {\"O\": 1}}" n_minim_iter=10 energy=-22575.575253831485 stress="0.047719372531691485 2.925738099650653e-12 -1.4351370275072167e-12 2.925738099650653e-12 0.04778139538210374 -1.3960753625590727e-12 -1.4351370275072167e-12 -1.3960753625590727e-12 0.0478792778797518" free_energy=-22575.575253831485 pbc="T T T"
In       1.35304851       2.70597493       0.77196984        0      -0.00181522       0.00048413       0.00157175
In       1.34790745       0.00538406       3.19059437        1       0.00181522       0.00048413      -0.00157175
In       1.34790745       2.69520682       4.73453404        2       0.00181522      -0.00048413       0.00157175
In       1.35304851       5.39579770       7.15315857        3      -0.00181522      -0.00048413      -0.00157175
In       4.04886342       2.69520682       7.15315857        4       0.00181522      -0.00048413      -0.00157175
In       4.05400448       5.39579770       4.73453404        5      -0.00181522      -0.00048413       0.00157175
In       4.05400448       2.70597493       3.19059437        6      -0.00181522       0.00048413      -0.00157175
In       4.04886342       0.00538406       0.77196984        7       0.00181522       0.00048413       0.00157175
O        2.12506294       3.15980850       6.67769568        8       0.00049896       0.00117296      -0.00385399
O        0.57589302       0.45921763       5.20999694        9      -0.00049896       0.00117296       0.00385399
O        0.57589302       2.24137325       2.71513147       10      -0.00049896      -0.00117296      -0.00385399
O        2.12506294       4.94196413       1.24743273       11       0.00049896      -0.00117296       0.00385399
O        3.27684899       2.24137325       1.24743273       12      -0.00049896      -0.00117296       0.00385399
O        4.82601891       4.94196413       2.71513147       13       0.00049896      -0.00117296      -0.00385399
O        4.82601891       3.15980850       5.20999694       14       0.00049896       0.00117296       0.00385399
O        3.27684899       0.45921763       6.67769568       15      -0.00049896       0.00117296      -0.00385399
O        5.32104900       4.05088632      -0.00000000       16       0.00169971       0.00000000      -0.00000000
O        2.78181889       1.35029544       3.96256420       17      -0.00169971       0.00000000      -0.00000000
O        0.08086293       1.35029544      -0.00000000       18      -0.00169971       0.00000000       0.00000000
O        2.62009304       4.05088632       3.96256420       19       0.00169971      -0.00000000      -0.00000000
