20
Lattice="5.41961145304965 5.0834853898209365e-58 5.686523158556074e-42 -5.127733836592117e-58 5.375779624382092 8.135513329359008e-18 -8.327442654216341e-42 -1.20109260889359e-17 7.936572546178618" Properties=species:S:1:pos:R:3:spacegroup_kinds:I:1:forces:R:3 spacegroup="P 1" unit_cell=conventional occupancy="_JSON {\"0\": {\"In\": 1}, \"1\": {\"In\": 1}, \"2\": {\"In\": 1}, \"3\": {\"In\": 1}, \"4\": {\"In\": 1}, \"5\": {\"In\": 1}, \"6\": {\"In\": 1}, \"7\": {\"In\": 1}, \"8\": {\"O\": 1}, \"9\": {\"O\": 1}, \"10\": {\"O\": 1}, \"11\": {\"O\": 1}, \"12\": {\"O\": 1}, \"13\": {\"O\": 1}, \"14\": {\"O\": 1}, \"15\": {\"O\": 1}, \"16\": {\"O\": 1}, \"17\": {\"O\": 1}, \"18\": {\"O\": 1}, \"19\": {\"O\": 1}}" n_minim_iter=1 energy=-22575.55298892111 stress="0.05174545315294293 1.540922283816071e-13 1.6178931876525995e-13 1.540922283816071e-13 0.03852103283127562 -1.066825314420259e-12 1.6178931876525995e-13 -1.066825314420259e-12 0.04167293450953483" free_energy=-22575.55298892111 pbc="T T T"
In       1.35556503       2.69764599       0.78688336        0       0.09321443       0.01337598      -0.12353594
In       1.35424069       0.00975618       3.18140291        1      -0.09321443       0.01337598       0.12353594
In       1.35424069       2.67813363       4.75516963        2      -0.09321443      -0.01337598      -0.12353594
In       1.35556503       5.36602345       7.14968919        3       0.09321443      -0.01337598       0.12353594
In       4.06404642       2.67813363       7.14968919        4      -0.09321443      -0.01337598       0.12353594
In       4.06537076       5.36602345       4.75516963        5       0.09321443      -0.01337598      -0.12353594
In       4.06537076       2.69764599       3.18140291        6       0.09321443       0.01337598       0.12353594
In       4.06404642       0.00975618       0.78688336        7      -0.09321443       0.01337598      -0.12353594
O        2.13073382       3.16758241       6.69374890        8      -0.03917346      -0.05474283       0.00996998
O        0.57907191       0.47969259       5.21110991        9       0.03917346      -0.05474283      -0.00996998
O        0.57907191       2.20819722       2.72546263       10       0.03917346       0.05474283       0.00996998
O        2.13073382       4.89608703       1.24282364       11      -0.03917346       0.05474283      -0.00996998
O        3.28887764       2.20819722       1.24282364       12       0.03917346       0.05474283      -0.00996998
O        4.84053954       4.89608703       2.72546263       13      -0.03917346       0.05474283       0.00996998
O        4.84053954       3.16758241       5.21110991       14      -0.03917346      -0.05474283      -0.00996998
O        3.28887764       0.47969259       6.69374890       15       0.03917346      -0.05474283       0.00996998
O        5.32104135       4.03183472      -0.00000000       16       0.10779217      -0.00000000       0.00000000
O        2.80837583       1.34394491       3.96828627       17      -0.10779217      -0.00000000      -0.00000000
O        0.09857011       1.34394491      -0.00000000       18      -0.10779217      -0.00000000      -0.00000000
O        2.61123562       4.03183472       3.96828627       19       0.10779217      -0.00000000      -0.00000000
20
Lattice="5.404255127109901 5.085565676853759e-58 5.6831193420611544e-42 -5.1207527824840115e-58 5.386512777698642 8.142373724627906e-18 -8.322445855493382e-42 -1.2034906817349986e-17 7.943265181608342" Properties=species:S:1:pos:R:3:spacegroup_kinds:I:1:forces:R:3 spacegroup="P 1" unit_cell=conventional occupancy="_JSON {\"0\": {\"In\": 1}, \"1\": {\"In\": 1}, \"2\": {\"In\": 1}, \"3\": {\"In\": 1}, \"4\": {\"In\": 1}, \"5\": {\"In\": 1}, \"6\": {\"In\": 1}, \"7\": {\"In\": 1}, \"8\": {\"O\": 1}, \"9\": {\"O\": 1}, \"10\": {\"O\": 1}, \"11\": {\"O\": 1}, \"12\": {\"O\": 1}, \"13\": {\"O\": 1}, \"14\": {\"O\": 1}, \"15\": {\"O\": 1}, \"16\": {\"O\": 1}, \"17\": {\"O\": 1}, \"18\": {\"O\": 1}, \"19\": {\"O\": 1}}" n_minim_iter=2 energy=-22575.55762997667 stress="0.04489297345776269 -3.6017024438086287e-12 -9.964009009263912e-13 -3.6017024438086287e-12 0.044214695457107725 1.5614345202532813e-12 -9.964009009263912e-13 1.5614345202532813e-12 0.0450521612134346" free_energy=-22575.55762997667 pbc="T T T"
In       1.35187096       2.70305323       0.78735153        0       0.06018190       0.02047321      -0.15801477
In       1.35025661       0.00979684       3.18428106        1      -0.06018190       0.02047321       0.15801477
In       1.35025661       2.68345955       4.75898412        2      -0.06018190      -0.02047321      -0.15801477
In       1.35187096       5.37671594       7.15591365        3       0.06018190      -0.02047321       0.15801477
In       4.05238417       2.68345955       7.15591365        4      -0.06018190      -0.02047321       0.15801477
In       4.05399852       5.37671594       4.75898412        5       0.06018190      -0.02047321      -0.15801477
In       4.05399852       2.70305323       3.18428106        6       0.06018190       0.02047321       0.15801477
In       4.05238417       0.00979684       0.78735153        7      -0.06018190       0.02047321      -0.15801477
O        2.12463471       3.17382005       6.69940928        8      -0.05350407      -0.04794418      -0.01418377
O        0.57749285       0.48056366       5.21548849        9       0.05350407      -0.04794418       0.01418377
O        0.57749285       2.21269273       2.72777669       10       0.05350407       0.04794418      -0.01418377
O        2.12463471       4.90594912       1.24385590       11      -0.05350407       0.04794418       0.01418377
O        3.27962041       2.21269273       1.24385590       12       0.05350407       0.04794418       0.01418377
O        4.82676228       4.90594912       2.72777669       13      -0.05350407       0.04794418      -0.01418377
O        4.82676228       3.17382005       5.21548849       14      -0.05350407      -0.04794418       0.01418377
O        3.27962041       0.48056366       6.69940928       15       0.05350407      -0.04794418      -0.01418377
O        5.30613417       4.03988458      -0.00000000       16       0.10679201      -0.00000000       0.00000000
O        2.80024852       1.34662819       3.97163259       17      -0.10679201       0.00000000      -0.00000000
O        0.09812096       1.34662819      -0.00000000       18      -0.10679201       0.00000000      -0.00000000
O        2.60400661       4.03988458       3.97163259       19       0.10679201      -0.00000000      -0.00000000
20
Lattice="5.402095802214002 5.085067588351118e-58 5.6532459069909413e-42 -5.1333390590757764e-58 5.403460656645934 8.120079743202873e-18 -8.141429457955522e-42 -1.2072772901085431e-17 7.921516363339624" Properties=species:S:1:pos:R:3:spacegroup_kinds:I:1:forces:R:3 spacegroup="P 1" unit_cell=conventional occupancy="_JSON {\"0\": {\"In\": 1}, \"1\": {\"In\": 1}, \"2\": {\"In\": 1}, \"3\": {\"In\": 1}, \"4\": {\"In\": 1}, \"5\": {\"In\": 1}, \"6\": {\"In\": 1}, \"7\": {\"In\": 1}, \"8\": {\"O\": 1}, \"9\": {\"O\": 1}, \"10\": {\"O\": 1}, \"11\": {\"O\": 1}, \"12\": {\"O\": 1}, \"13\": {\"O\": 1}, \"14\": {\"O\": 1}, \"15\": {\"O\": 1}, \"16\": {\"O\": 1}, \"17\": {\"O\": 1}, \"18\": {\"O\": 1}, \"19\": {\"O\": 1}}" n_minim_iter=3 energy=-22575.562978856935 stress="0.0463845737966998 4.643020433113058e-13 -4.2283697148069623e-13 4.643020433113058e-13 0.05137924961192425 -4.856809117977633e-12 -4.2283697148069623e-13 -4.856809117977633e-12 0.04143068536211044" free_energy=-22575.562978856935 pbc="T T T"
In       1.35321370       2.71221626       0.78016667        0       0.01660215      -0.01638439      -0.11056124
In       1.34783420       0.01048593       3.18059152        1      -0.01660215      -0.01638439       0.11056124
In       1.34783420       2.69124440       4.74092485        2      -0.01660215       0.01638439      -0.11056124
In       1.35321370       5.39297472       7.14134970        3       0.01660215       0.01638439       0.11056124
In       4.04888210       2.69124440       7.14134970        4      -0.01660215       0.01638439       0.11056124
In       4.05426160       5.39297472       4.74092485        5       0.01660215       0.01638439      -0.11056124
In       4.05426160       2.71221626       3.18059152        6       0.01660215      -0.01638439       0.11056124
In       4.04888210       0.01048593       0.78016667        7      -0.01660215      -0.01638439      -0.11056124
O        2.12209023       3.18227615       6.68060432        8      -0.02032404      -0.05948338      -0.04399096
O        0.57895768       0.48054582       5.20167023        9       0.02032404      -0.05948338       0.04399096
O        0.57895768       2.22118451       2.71984613       10       0.02032404       0.05948338      -0.04399096
O        2.12209023       4.92291484       1.24091205       11      -0.02032404       0.05948338       0.04399096
O        3.28000558       2.22118451       1.24091205       12       0.02032404       0.05948338       0.04399096
O        4.82313813       4.92291484       2.71984613       13      -0.02032404       0.05948338      -0.04399096
O        4.82313813       3.18227615       5.20167023       14      -0.02032404      -0.05948338       0.04399096
O        3.28000558       0.48054582       6.68060432       15       0.02032404      -0.05948338      -0.04399096
O        5.30738370       4.05259549      -0.00000000       16       0.05488677       0.00000000      -0.00000000
O        2.79576000       1.35086516       3.96075818       17      -0.05488677      -0.00000000       0.00000000
O        0.09471210       1.35086516      -0.00000000       18      -0.05488677      -0.00000000      -0.00000000
O        2.60633580       4.05259549       3.96075818       19       0.05488677      -0.00000000      -0.00000000
20
Lattice="5.395568075253872 5.080393350157817e-58 5.639690405423307e-42 -5.1273843588839974e-58 5.398369302499759 8.13757121071337e-18 -8.166056713105632e-42 -1.2061397457407465e-17 7.938580105382208" Properties=species:S:1:pos:R:3:spacegroup_kinds:I:1:forces:R:3 spacegroup="P 1" unit_cell=conventional occupancy="_JSON {\"0\": {\"In\": 1}, \"1\": {\"In\": 1}, \"2\": {\"In\": 1}, \"3\": {\"In\": 1}, \"4\": {\"In\": 1}, \"5\": {\"In\": 1}, \"6\": {\"In\": 1}, \"7\": {\"In\": 1}, \"8\": {\"O\": 1}, \"9\": {\"O\": 1}, \"10\": {\"O\": 1}, \"11\": {\"O\": 1}, \"12\": {\"O\": 1}, \"13\": {\"O\": 1}, \"14\": {\"O\": 1}, \"15\": {\"O\": 1}, \"16\": {\"O\": 1}, \"17\": {\"O\": 1}, \"18\": {\"O\": 1}, \"19\": {\"O\": 1}}" n_minim_iter=4 energy=-22575.568253358142 stress="0.044789935164239986 1.1758983344683293e-12 -2.586506081568165e-12 1.1758983344683293e-12 0.049083320008963524 -5.275688767343542e-13 -2.586506081568165e-12 -5.275688767343542e-13 0.04796976730380326" free_energy=-22575.568253358142 pbc="T T T"
In       1.35347047       2.71022599       0.77657603        0      -0.02805073      -0.02413593       0.00472280
In       1.34431357       0.01104134       3.19271402        1       0.02805073      -0.02413593      -0.00472280
In       1.34431357       2.68814331       4.74586608        2       0.02805073       0.02413593       0.00472280
In       1.35347047       5.38732796       7.16200407        3      -0.02805073       0.02413593      -0.00472280
In       4.04209760       2.68814331       7.16200407        4       0.02805073       0.02413593      -0.00472280
In       4.05125451       5.38732796       4.74586608        5      -0.02805073       0.02413593       0.00472280
In       4.05125451       2.71022599       3.19271402        6      -0.02805073      -0.02413593      -0.00472280
In       4.04209760       0.01104134       0.77657603        7       0.02805073      -0.02413593       0.00472280
O        2.11782223       3.17756678       6.69438852        8      -0.01003917      -0.04762431      -0.08332559
O        0.57996181       0.47838213       5.21348164        9       0.01003917      -0.04762431       0.08332559
O        0.57996181       2.22080252       2.72509846       10       0.01003917       0.04762431      -0.08332559
O        2.11782223       4.91998717       1.24419159       11      -0.01003917       0.04762431       0.08332559
O        3.27774584       2.22080252       1.24419159       12       0.01003917       0.04762431       0.08332559
O        4.81560627       4.91998717       2.72509846       13      -0.01003917       0.04762431      -0.08332559
O        4.81560627       3.17756678       5.21348164       14      -0.01003917      -0.04762431       0.08332559
O        3.27774584       0.47838213       6.69438852       15       0.01003917      -0.04762431      -0.08332559
O        5.30442665       4.04877698      -0.00000000       16       0.01989557      -0.00000000      -0.00000000
O        2.78892546       1.34959233       3.96929005       17      -0.01989557      -0.00000000      -0.00000000
O        0.09114142       1.34959233      -0.00000000       18      -0.01989557      -0.00000000      -0.00000000
O        2.60664261       4.04877698       3.96929005       19       0.01989557       0.00000000      -0.00000000
20
Lattice="5.40320504335014 5.088915292459861e-58 5.604443838857722e-42 -5.123077232437072e-58 5.392436789951568 8.135009380245668e-18 -8.425214262405286e-42 -1.2048142641414851e-17 7.936080920323468" Properties=species:S:1:pos:R:3:spacegroup_kinds:I:1:forces:R:3 spacegroup="P 1" unit_cell=conventional occupancy="_JSON {\"0\": {\"In\": 1}, \"1\": {\"In\": 1}, \"2\": {\"In\": 1}, \"3\": {\"In\": 1}, \"4\": {\"In\": 1}, \"5\": {\"In\": 1}, \"6\": {\"In\": 1}, \"7\": {\"In\": 1}, \"8\": {\"O\": 1}, \"9\": {\"O\": 1}, \"10\": {\"O\": 1}, \"11\": {\"O\": 1}, \"12\": {\"O\": 1}, \"13\": {\"O\": 1}, \"14\": {\"O\": 1}, \"15\": {\"O\": 1}, \"16\": {\"O\": 1}, \"17\": {\"O\": 1}, \"18\": {\"O\": 1}, \"19\": {\"O\": 1}}" n_minim_iter=5 energy=-22575.57011415991 stress="0.0492941629496931 3.824596674001823e-12 -2.947071252024697e-12 3.824596674001823e-12 0.04570529864376924 -1.624561369471351e-12 -2.947071252024697e-12 -1.624561369471351e-12 0.047062236920890135" free_energy=-22575.57011415991 pbc="T T T"
In       1.35540540       2.70670010       0.77537066        0       0.00879814      -0.02738981       0.02719810
In       1.34619712       0.01048170       3.19266980        1      -0.00879814      -0.02738981      -0.02719810
In       1.34619712       2.68573669       4.74341112        2      -0.00879814       0.02738981       0.02719810
In       1.35540540       5.38195509       7.16071026        3       0.00879814       0.02738981      -0.02719810
In       4.04779964       2.68573669       7.16071026        4      -0.00879814       0.02738981      -0.02719810
In       4.05700792       5.38195509       4.74341112        5       0.00879814       0.02738981       0.02719810
In       4.05700792       2.70670010       3.19266980        6       0.00879814      -0.02738981      -0.02719810
In       4.04779964       0.01048170       0.77537066        7      -0.00879814      -0.02738981       0.02719810
O        2.12019486       3.17227973       6.69005270        8       0.02122090      -0.04767095      -0.02874815
O        0.58140766       0.47606134       5.21406868        9      -0.02122090      -0.04767095       0.02874815
O        0.58140766       2.22015706       2.72201224       10      -0.02122090       0.04767095      -0.02874815
O        2.12019486       4.91637545       1.24602822       11       0.02122090       0.04767095       0.02874815
O        3.28301018       2.22015706       1.24602822       12      -0.02122090       0.04767095       0.02874815
O        4.82179738       4.91637545       2.72201224       13       0.02122090       0.04767095      -0.02874815
O        4.82179738       3.17227973       5.21406868       14       0.02122090      -0.04767095       0.02874815
O        3.28301018       0.47606134       6.69005270       15      -0.02122090      -0.04767095      -0.02874815
O        5.31341427       4.04432759      -0.00000000       16       0.01215275       0.00000000       0.00000000
O        2.79139330       1.34810920       3.96804046       17      -0.01215275       0.00000000      -0.00000000
O        0.08979077       1.34810920      -0.00000000       18      -0.01215275       0.00000000       0.00000000
O        2.61181175       4.04432759       3.96804046       19       0.01215275      -0.00000000      -0.00000000
20
Lattice="5.39833648049975 5.0229285706141145e-58 5.872189278402056e-42 -5.2470548943155266e-58 5.3987144075241575 1.2715169447538205e-17 -8.817800885461364e-42 -5.2978024548338636e-18 7.934001796094916" Properties=species:S:1:pos:R:3:spacegroup_kinds:I:1:forces:R:3 spacegroup="P 1" unit_cell=conventional occupancy="_JSON {\"0\": {\"In\": 1}, \"1\": {\"In\": 1}, \"2\": {\"In\": 1}, \"3\": {\"In\": 1}, \"4\": {\"In\": 1}, \"5\": {\"In\": 1}, \"6\": {\"In\": 1}, \"7\": {\"In\": 1}, \"8\": {\"O\": 1}, \"9\": {\"O\": 1}, \"10\": {\"O\": 1}, \"11\": {\"O\": 1}, \"12\": {\"O\": 1}, \"13\": {\"O\": 1}, \"14\": {\"O\": 1}, \"15\": {\"O\": 1}, \"16\": {\"O\": 1}, \"17\": {\"O\": 1}, \"18\": {\"O\": 1}, \"19\": {\"O\": 1}}" n_minim_iter=6 energy=-22575.571901813706 stress="0.04719179576111882 6.231197248215017e-12 2.8266520268579184e-13 6.231197248215017e-12 0.04832865361064222 1.9427163490673796e-12 2.8266520268579184e-13 1.9427163490673796e-12 0.04748048605577943" free_energy=-22575.571901813706 pbc="T T T"
In       1.35451593       2.70817450       0.77423490        0       0.00594988      -0.01571436      -0.00446559
In       1.34465231       0.00881729       3.19276599        1      -0.00594988      -0.01571436       0.00446559
In       1.34465231       2.69053991       4.74123580        2      -0.00594988       0.01571436      -0.00446559
In       1.35451593       5.38989712       7.15976689        3       0.00594988       0.01571436       0.00446559
In       4.04382055       2.69053991       7.15976689        4      -0.00594988       0.01571436       0.00446559
In       4.05368417       5.38989712       4.74123580        5       0.00594988       0.01571436      -0.00446559
In       4.05368417       2.70817450       3.19276599        6       0.00594988      -0.01571436       0.00446559
In       4.04382055       0.00881729       0.77423490        7      -0.00594988      -0.01571436      -0.00446559
O        2.11825481       3.17180503       6.68444939        8       0.04347930      -0.03751031       0.04209801
O        0.58091343       0.47244782       5.21655330        9      -0.04347930      -0.03751031      -0.04209801
O        0.58091343       2.22690938       2.71744849       10      -0.04347930       0.03751031       0.04209801
O        2.11825481       4.92626659       1.24955241       11       0.04347930       0.03751031      -0.04209801
O        3.28008167       2.22690938       1.24955241       12      -0.04347930       0.03751031      -0.04209801
O        4.81742305       4.92626659       2.71744849       13       0.04347930       0.03751031       0.04209801
O        4.81742305       3.17180503       5.21655330       14       0.04347930      -0.03751031      -0.04209801
O        3.28008167       0.47244782       6.68444939       15      -0.04347930      -0.03751031       0.04209801
O        5.31110150       4.04903581       0.00000000       16       0.00246782      -0.00000000       0.00000000
O        2.78640322       1.34967860       3.96700090       17      -0.00246782      -0.00000000      -0.00000000
O        0.08723498       1.34967860      -0.00000000       18      -0.00246782       0.00000000       0.00000000
O        2.61193326       4.04903581       3.96700090       19       0.00246782       0.00000000      -0.00000000
20
Lattice="5.401562672609607 5.084598945421596e-58 5.864817624585746e-42 -5.1946148823387916e-58 5.3958653192854324 1.3407398846301286e-17 -8.866337400199128e-42 -4.2717225389893115e-18 7.933449809449562" Properties=species:S:1:pos:R:3:spacegroup_kinds:I:1:forces:R:3 spacegroup="P 1" unit_cell=conventional occupancy="_JSON {\"0\": {\"In\": 1}, \"1\": {\"In\": 1}, \"2\": {\"In\": 1}, \"3\": {\"In\": 1}, \"4\": {\"In\": 1}, \"5\": {\"In\": 1}, \"6\": {\"In\": 1}, \"7\": {\"In\": 1}, \"8\": {\"O\": 1}, \"9\": {\"O\": 1}, \"10\": {\"O\": 1}, \"11\": {\"O\": 1}, \"12\": {\"O\": 1}, \"13\": {\"O\": 1}, \"14\": {\"O\": 1}, \"15\": {\"O\": 1}, \"16\": {\"O\": 1}, \"17\": {\"O\": 1}, \"18\": {\"O\": 1}, \"19\": {\"O\": 1}}" n_minim_iter=7 energy=-22575.57359768524 stress="0.04721865719383351 -8.084081827423592e-13 1.230506916107282e-12 -8.084081827423592e-13 0.04638573904305845 -1.2117526066665885e-12 1.230506916107282e-12 -1.2117526066665885e-12 0.04846411830362218" free_energy=-22575.57359768524 pbc="T T T"
In       1.35575518       2.70408612       0.77456272        0      -0.05038131       0.01510346      -0.01841103
In       1.34502616       0.00615346       3.19216218        1       0.05038131       0.01510346       0.01841103
In       1.34502616       2.69177920       4.74128762        2       0.05038131      -0.01510346      -0.01841103
In       1.35575518       5.38971186       7.15888709        3      -0.05038131      -0.01510346       0.01841103
In       4.04580749       2.69177920       7.15888709        4       0.05038131      -0.01510346       0.01841103
In       4.05653651       5.38971186       4.74128762        5      -0.05038131      -0.01510346      -0.01841103
In       4.05653651       2.70408612       3.19216218        6      -0.05038131       0.01510346       0.01841103
In       4.04580749       0.00615346       0.77456272        7       0.05038131       0.01510346      -0.01841103
O        2.12297051       3.16430591       6.68390799        8      -0.01510335      -0.01846946       0.02358943
O        0.57781082       0.46637325       5.21626672        9       0.01510335      -0.01846946      -0.02358943
O        0.57781082       2.23155941       2.71718309       10       0.01510335       0.01846946       0.02358943
O        2.12297051       4.92949207       1.24954182       11      -0.01510335       0.01846946      -0.02358943
O        3.27859216       2.23155941       1.24954182       12       0.01510335       0.01846946      -0.02358943
O        4.82375185       4.92949207       2.71718309       13      -0.01510335       0.01846946       0.02358943
O        4.82375185       3.16430591       5.21626672       14      -0.01510335      -0.01846946      -0.02358943
O        3.27859216       0.46637325       6.68390799       15       0.01510335      -0.01846946       0.02358943
O        5.31580704       4.04689899       0.00000000       16       0.02263907      -0.00000000      -0.00000000
O        2.78653697       1.34896633       3.96672490       17      -0.02263907      -0.00000000      -0.00000000
O        0.08575563       1.34896633      -0.00000000       18      -0.02263907      -0.00000000      -0.00000000
O        2.61502571       4.04689899       3.96672490       19       0.02263907       0.00000000       0.00000000
20
Lattice="5.402608715118701 5.080412376295697e-58 5.808169858715531e-42 -5.151231977755943e-58 5.402559946573253 8.144742119811021e-18 -8.938639515696675e-42 -1.201549388907641e-17 7.922084853266071" Properties=species:S:1:pos:R:3:spacegroup_kinds:I:1:forces:R:3 spacegroup="P 1" unit_cell=conventional occupancy="_JSON {\"0\": {\"In\": 1}, \"1\": {\"In\": 1}, \"2\": {\"In\": 1}, \"3\": {\"In\": 1}, \"4\": {\"In\": 1}, \"5\": {\"In\": 1}, \"6\": {\"In\": 1}, \"7\": {\"In\": 1}, \"8\": {\"O\": 1}, \"9\": {\"O\": 1}, \"10\": {\"O\": 1}, \"11\": {\"O\": 1}, \"12\": {\"O\": 1}, \"13\": {\"O\": 1}, \"14\": {\"O\": 1}, \"15\": {\"O\": 1}, \"16\": {\"O\": 1}, \"17\": {\"O\": 1}, \"18\": {\"O\": 1}, \"19\": {\"O\": 1}}" n_minim_iter=8 energy=-22575.574667455825 stress="0.04804687245979452 -1.7882228414924802e-12 5.109340948502487e-13 -1.7882228414924802e-12 0.048378915102980806 -3.6269225945409314e-12 5.109340948502487e-13 -3.6269225945409314e-12 0.04682662640811972" free_energy=-22575.574667455825 pbc="T T T"
In       1.35519247       2.70622299       0.77100080        0      -0.04302532       0.01349179       0.01226493
In       1.34611189       0.00494302       3.19004162        1       0.04302532       0.01349179      -0.01226493
In       1.34611189       2.69633695       4.73204323        2       0.04302532      -0.01349179       0.01226493
In       1.35519247       5.39761693       7.15108405        3      -0.04302532      -0.01349179      -0.01226493
In       4.04741624       2.69633695       7.15108405        4       0.04302532      -0.01349179      -0.01226493
In       4.05649683       5.39761693       4.73204323        5      -0.04302532      -0.01349179       0.01226493
In       4.05649683       2.70622299       3.19004162        6      -0.04302532       0.01349179      -0.01226493
In       4.04741624       0.00494302       0.77100080        7       0.04302532       0.01349179       0.01226493
O        2.12444395       3.16283470       6.67436635        8      -0.00459198      -0.00932549       0.00322874
O        0.57686040       0.46155473       5.20876093        9       0.00459198      -0.00932549      -0.00322874
O        0.57686040       2.23972525       2.71332393       10       0.00459198       0.00932549       0.00322874
O        2.12444395       4.94100522       1.24771850       11      -0.00459198       0.00932549      -0.00322874
O        3.27816476       2.23972525       1.24771850       12       0.00459198       0.00932549      -0.00322874
O        4.82574831       4.94100522       2.71332393       13      -0.00459198       0.00932549       0.00322874
O        4.82574831       3.16283470       5.20876093       14      -0.00459198      -0.00932549      -0.00322874
O        3.27816476       0.46155473       6.67436635       15       0.00459198      -0.00932549       0.00322874
O        5.31998145       4.05191996      -0.00000000       16       0.01434958       0.00000000       0.00000000
O        2.78393162       1.35063999       3.96104243       17      -0.01434958      -0.00000000      -0.00000000
O        0.08262727       1.35063999      -0.00000000       18      -0.01434958      -0.00000000      -0.00000000
O        2.61867709       4.05191996       3.96104243       19       0.01434958      -0.00000000       0.00000000
20
Lattice="5.401919867086386 5.0189519526493884e-58 5.810365621040031e-42 -5.148211525564292e-58 5.4013751548170745 2.344020411690148e-18 -8.945506172072425e-42 -2.05785944384497e-17 7.924833001576971" Properties=species:S:1:pos:R:3:spacegroup_kinds:I:1:forces:R:3 spacegroup="P 1" unit_cell=conventional occupancy="_JSON {\"0\": {\"In\": 1}, \"1\": {\"In\": 1}, \"2\": {\"In\": 1}, \"3\": {\"In\": 1}, \"4\": {\"In\": 1}, \"5\": {\"In\": 1}, \"6\": {\"In\": 1}, \"7\": {\"In\": 1}, \"8\": {\"O\": 1}, \"9\": {\"O\": 1}, \"10\": {\"O\": 1}, \"11\": {\"O\": 1}, \"12\": {\"O\": 1}, \"13\": {\"O\": 1}, \"14\": {\"O\": 1}, \"15\": {\"O\": 1}, \"16\": {\"O\": 1}, \"17\": {\"O\": 1}, \"18\": {\"O\": 1}, \"19\": {\"O\": 1}}" n_minim_iter=9 energy=-22575.575181757915 stress="0.0476429105568141 -3.0095995339592075e-12 5.3824600321035905e-12 -3.0095995339592075e-12 0.047604746225832544 -5.025708825932985e-13 5.3824600321035905e-12 -5.025708825932985e-13 0.04764768721547594" free_energy=-22575.575181757915 pbc="T T T"
In       1.35301262       2.70557395       0.77185903        0       0.00759902       0.01368678       0.00628190
In       1.34794731       0.00488637       3.19055747        1      -0.00759902       0.01368678      -0.00628190
In       1.34794731       2.69580121       4.73427553        2      -0.00759902      -0.01368678       0.00628190
In       1.35301262       5.39648879       7.15297397        3       0.00759902      -0.01368678      -0.00628190
In       4.04890725       2.69580121       7.15297397        4      -0.00759902      -0.01368678      -0.00628190
In       4.05397255       5.39648879       4.73427553        5       0.00759902      -0.01368678       0.00628190
In       4.05397255       2.70557395       3.19055747        6       0.00759902       0.01368678      -0.00628190
In       4.04890725       0.00488637       0.77185903        7      -0.00759902       0.01368678       0.00628190
O        2.12483806       3.16034953       6.67729167        8       0.00435060      -0.00080512       0.00123859
O        0.57612188       0.45966196       5.20995783        9      -0.00435059      -0.00080512      -0.00123859
O        0.57612188       2.24102562       2.71487517       10      -0.00435059       0.00080512       0.00123859
O        2.12483806       4.94171320       1.24754133       11       0.00435060       0.00080512      -0.00123859
O        3.27708181       2.24102562       1.24754133       12      -0.00435059       0.00080512      -0.00123859
O        4.82579799       4.94171320       2.71487517       13       0.00435059       0.00080512       0.00123859
O        4.82579799       3.16034953       5.20995783       14       0.00435059      -0.00080512      -0.00123859
O        3.27708181       0.45966196       6.67729167       15      -0.00435060      -0.00080512       0.00123859
O        5.32010488       4.05103137      -0.00000000       16       0.01872344       0.00000000       0.00000000
O        2.78277492       1.35034379       3.96241650       17      -0.01872344      -0.00000000       0.00000000
O        0.08181498       1.35034379      -0.00000000       18      -0.01872344      -0.00000000       0.00000000
O        2.61914495       4.05103137       3.96241650       19       0.01872344      -0.00000000       0.00000000
20