20
Lattice="5.58536697202876 1.0071397134144776e-62 -5.012147141576061e-44 -1.6863946389672967e-62 5.689037173066517 -7.3610721034172e-19 7.255739885430014e-44 1.0461932311607456e-18 8.085550716886821" Properties=species:S:1:pos:R:3:spacegroup_kinds:I:1:forces:R:3 spacegroup="P 1" unit_cell=conventional occupancy="_JSON {\"0\": {\"In\": 1}, \"1\": {\"In\": 1}, \"2\": {\"In\": 1}, \"3\": {\"In\": 1}, \"4\": {\"In\": 1}, \"5\": {\"In\": 1}, \"6\": {\"In\": 1}, \"7\": {\"In\": 1}, \"8\": {\"O\": 1}, \"9\": {\"O\": 1}, \"10\": {\"O\": 1}, \"11\": {\"O\": 1}, \"12\": {\"O\": 1}, \"13\": {\"O\": 1}, \"14\": {\"O\": 1}, \"15\": {\"O\": 1}, \"16\": {\"O\": 1}, \"17\": {\"O\": 1}, \"18\": {\"O\": 1}, \"19\": {\"O\": 1}}" n_minim_iter=1 energy=-22574.93718130413 stress="2.7039818585868482e-05 -4.2096106857273987e-13 -7.306177681806779e-13 -4.2096106857273987e-13 0.00018593982697171868 -5.553075083707454e-13 -7.306177681806779e-13 -5.553075083707454e-13 -0.0001831162588889947" free_energy=-22574.93718130413 pbc="T T T"
In       1.38645918       3.00754431       0.92833457        0       0.00540366       0.00330364      -0.00256880
In       1.40622430       0.16302572       3.11444079        1      -0.00540366       0.00330364       0.00256880
In       1.40622430       2.68149287       4.97110993        2      -0.00540366      -0.00330364      -0.00256880
In       1.38645918       5.52601145       7.15721615        3       0.00540366      -0.00330364       0.00256880
In       4.19890779       2.68149287       7.15721615        4      -0.00540366      -0.00330364       0.00256880
In       4.17914267       5.52601145       4.97110993        5       0.00540366      -0.00330364      -0.00256880
In       4.17914267       3.00754431       3.11444079        6       0.00540366       0.00330364       0.00256880
In       4.19890779       0.16302572       0.92833457        7      -0.00540366       0.00330364      -0.00256880
O        2.17722868       3.43586534       6.86593986        8      -0.00299013      -0.00014264      -0.00182066
O        0.61545481       0.59134675       5.26238622        9       0.00299013      -0.00014264       0.00182065
O        0.61545481       2.25317184       2.82316450       10       0.00299013       0.00014264      -0.00182065
O        2.17722868       5.09769042       1.21961086       11      -0.00299013       0.00014264       0.00182066
O        3.40813829       2.25317184       1.21961086       12       0.00299013       0.00014264       0.00182066
O        4.96991216       5.09769042       2.82316450       13      -0.00299013       0.00014264      -0.00182066
O        4.96991216       3.43586534       5.26238622       14      -0.00299013      -0.00014264       0.00182066
O        3.40813829       0.59134675       6.86593986       15       0.00299013      -0.00014264      -0.00182066
O        5.34716960       4.26677788       0.00000000       16       0.00169384      -0.00000000      -0.00000000
O        3.03088086       1.42225929       4.04277536       17      -0.00169384      -0.00000000      -0.00000000
O        0.23819737       1.42225929       0.00000000       18      -0.00169384      -0.00000000      -0.00000000
O        2.55448612       4.26677788       4.04277536       19       0.00169384      -0.00000000      -0.00000000
