20
Lattice="5.538428895970459 9.98675954326431e-63 -4.970026266631788e-44 -1.672222585416551e-62 5.6412278776585 -7.299211429984075e-19 7.194764398535935e-44 1.0374012757347504e-18 8.017601700032047" Properties=species:S:1:pos:R:3:spacegroup_kinds:I:1:forces:R:3 spacegroup="P 1" unit_cell=conventional occupancy="_JSON {\"0\": {\"In\": 1}, \"1\": {\"In\": 1}, \"2\": {\"In\": 1}, \"3\": {\"In\": 1}, \"4\": {\"In\": 1}, \"5\": {\"In\": 1}, \"6\": {\"In\": 1}, \"7\": {\"In\": 1}, \"8\": {\"O\": 1}, \"9\": {\"O\": 1}, \"10\": {\"O\": 1}, \"11\": {\"O\": 1}, \"12\": {\"O\": 1}, \"13\": {\"O\": 1}, \"14\": {\"O\": 1}, \"15\": {\"O\": 1}, \"16\": {\"O\": 1}, \"17\": {\"O\": 1}, \"18\": {\"O\": 1}, \"19\": {\"O\": 1}}" n_minim_iter=1 energy=-22574.93718130413 stress="2.7039818585868482e-05 -4.2096106857273987e-13 -7.306177681806779e-13 -4.2096106857273987e-13 0.00018593982697171868 -5.553075083707454e-13 -7.306177681806779e-13 -5.553075083707454e-13 -0.0001831162588889947" free_energy=-22574.93718130413 pbc="T T T"
In       1.37480771       2.98226963       0.92053307        0       0.00540366       0.00330364      -0.00256880
In       1.39440673       0.16165569       3.08826778        1      -0.00540366       0.00330364       0.00256880
In       1.39440673       2.65895825       4.92933392        2      -0.00540366      -0.00330364      -0.00256880
In       1.37480771       5.47957219       7.09706863        3       0.00540366      -0.00330364       0.00256880
In       4.16362118       2.65895825       7.09706863        4      -0.00540366      -0.00330364       0.00256880
In       4.14402216       5.47957219       4.92933392        5       0.00540366      -0.00330364      -0.00256880
In       4.14402216       2.98226963       3.08826778        6       0.00540366       0.00330364       0.00256880
In       4.16362118       0.16165569       0.92053307        7      -0.00540366       0.00330364      -0.00256880
O        2.15893177       3.40699115       6.80824016        8      -0.00299013      -0.00014264      -0.00182066
O        0.61028267       0.58637721       5.21816240        9       0.00299013      -0.00014264       0.00182065
O        0.61028267       2.23423672       2.79943931       10       0.00299013       0.00014264      -0.00182065
O        2.15893177       5.05485066       1.20936155       11      -0.00299013       0.00014264       0.00182066
O        3.37949712       2.23423672       1.20936155       12       0.00299013       0.00014264       0.00182066
O        4.92814622       5.05485066       2.79943931       13      -0.00299013       0.00014264      -0.00182066
O        4.92814622       3.40699115       5.21816240       14      -0.00299013      -0.00014264       0.00182066
O        3.37949712       0.58637721       6.80824016       15       0.00299013      -0.00014264      -0.00182066
O        5.30223328       4.23092091       0.00000000       16       0.00169384      -0.00000000      -0.00000000
O        3.00541007       1.41030697       4.00880085       17      -0.00169384      -0.00000000      -0.00000000
O        0.23619562       1.41030697       0.00000000       18      -0.00169384      -0.00000000      -0.00000000
O        2.53301883       4.23092091       4.00880085       19       0.00169384      -0.00000000      -0.00000000
