20
Lattice="5.266185813998269 -9.553816212457751e-59 1.5261674061739887e-42 3.0288559724483264e-58 5.429173501207488 -9.61181319076843e-16 -1.7744701292570586e-42 1.5178157008981101e-15 7.188862501677956" Properties=species:S:1:pos:R:3:spacegroup_kinds:I:1:forces:R:3 spacegroup="P 1" unit_cell=conventional occupancy="_JSON {\"0\": {\"In\": 1}, \"1\": {\"In\": 1}, \"2\": {\"In\": 1}, \"3\": {\"In\": 1}, \"4\": {\"In\": 1}, \"5\": {\"In\": 1}, \"6\": {\"In\": 1}, \"7\": {\"In\": 1}, \"8\": {\"O\": 1}, \"9\": {\"O\": 1}, \"10\": {\"O\": 1}, \"11\": {\"O\": 1}, \"12\": {\"O\": 1}, \"13\": {\"O\": 1}, \"14\": {\"O\": 1}, \"15\": {\"O\": 1}, \"16\": {\"O\": 1}, \"17\": {\"O\": 1}, \"18\": {\"O\": 1}, \"19\": {\"O\": 1}}" n_minim_iter=11 energy=-22576.711000542695 stress="0.014950934420023107 -4.389137978378964e-12 1.7885116993002264e-12 -4.389137978378964e-12 0.01521712511624597 1.666516763483605e-12 1.7885116993002264e-12 1.666516763483605e-12 0.015127499577312036" free_energy=-22576.711000542695 pbc="T T T"
In       1.29535017       2.71100397       0.62581616        0      -0.00194438       0.00847822      -0.00042106
In       1.33774274      -0.00358279       2.96861509        1       0.00194438       0.00847822       0.00042106
In       1.33774274       2.71816954       4.22024742        2       0.00194438      -0.00847822      -0.00042106
In       1.29535017       5.43275629       6.56304634        3      -0.00194438      -0.00847822       0.00042106
In       3.97083565       2.71816954       6.56304634        4       0.00194438      -0.00847822       0.00042106
In       3.92844307       5.43275629       4.22024742        5      -0.00194438      -0.00847822      -0.00042106
In       3.92844307       2.71100397       2.96861509        6      -0.00194438       0.00847822       0.00042106
In       3.97083565      -0.00358279       0.62581616        7       0.00194438       0.00847822      -0.00042106
O        2.13932867       3.10807651       6.03626900        8       0.00246704       0.00266829       0.00095848
O        0.49376423       0.39348976       4.74702475        9      -0.00246704       0.00266829      -0.00095848
O        0.49376423       2.32109700       2.44183775       10      -0.00246704      -0.00266829       0.00095848
O        2.13932867       5.03568375       1.15259350       11       0.00246704      -0.00266829      -0.00095848
O        3.12685714       2.32109700       1.15259350       12      -0.00246704      -0.00266829      -0.00095848
O        4.77242158       5.03568375       2.44183775       13       0.00246704      -0.00266829       0.00095848
O        4.77242158       3.10807651       4.74702475       14       0.00246704       0.00266829      -0.00095848
O        3.12685714       0.39348976       6.03626900       15      -0.00246704       0.00266829       0.00095848
O        5.30701188       4.07188013      -0.00000000       16       0.00248386      -0.00000000       0.00000000
O        2.59226684       1.35729338       3.59443125       17      -0.00248386      -0.00000000      -0.00000000
O       -0.04082607       1.35729338       0.00000000       18      -0.00248386      -0.00000000      -0.00000000
O        2.67391898       4.07188013       3.59443125       19       0.00248386       0.00000000       0.00000000
