80
Lattice="11.758812762970885 0.0 0.0 6.452317444010323 9.830426094342354 0.0 6.452317444010323 3.4829815090918417 9.192720870539437" Properties=species:S:1:pos:R:3:initial_magmoms:R:1:forces:R:3 uid=supercell.xyz_R3c type=Bulk energy=-90301.47233342838 stress="0.0020766741753776474 -0.0008807477870966553 -0.0006081435300474063 -0.0008807477870966553 0.0032328524812735384 -0.0003282780608020032 -0.0006081435300474063 -0.0003282780608020032 0.0034816122653485715" virial="-2.080625233774798e-06 7.871468388574919e-07 5.434855780915065e-07 7.871468388574919e-07 -3.114025474470254e-06 2.929119411335783e-07 5.434855780915065e-07 2.929119411335783e-07 -3.3360855596364177e-06" pbc="T T T"
In      10.57093864       5.70622635       3.94006911      10.00000000       0.00273085       0.00147414       0.00101787
In      16.45034502       5.70622635       3.94006911      10.00000000       0.00273085       0.00147413       0.00101787
In      13.79709736      10.62143940       3.94006911      10.00000000       0.00273082       0.00147410       0.00101787
In      19.67650374      10.62143940       3.94006911      10.00000000       0.00273088       0.00147412       0.00101789
In      13.79709736       7.44771711       8.53642955      10.00000000       0.00273086       0.00147403       0.00101778
In      19.67650374       7.44771711       8.53642955      10.00000000       0.00273089       0.00147407       0.00101779
In      17.02325608      12.36293015       8.53642955      10.00000000       0.00273090       0.00147416       0.00101780
In      22.90266246      12.36293015       8.53642955      10.00000000       0.00273088       0.00147415       0.00101780
In       7.92664710       4.27882935       2.95447155      10.00000000      -0.00273089      -0.00147403      -0.00101799
In      13.80605348       4.27882935       2.95447155      10.00000000      -0.00273087      -0.00147404      -0.00101798
In      11.15280582       9.19404240       2.95447155      10.00000000      -0.00273087      -0.00147408      -0.00101798
In      17.03221221       9.19404240       2.95447155      10.00000000      -0.00273096      -0.00147407      -0.00101798
In      11.15280582       6.02032010       7.55083198      10.00000000      -0.00273083      -0.00147406      -0.00101793
In      17.03221221       6.02032010       7.55083198      10.00000000      -0.00273094      -0.00147406      -0.00101792
In      14.37896455      10.93553315       7.55083198      10.00000000      -0.00273095      -0.00147402      -0.00101791
In      20.25837093      10.93553315       7.55083198      10.00000000      -0.00273095      -0.00147402      -0.00101791
In       4.40507673       2.37787445       1.64188889      10.00000000       0.00273079       0.00147406       0.00101785
In      10.28448311       2.37787445       1.64188889      10.00000000       0.00273079       0.00147405       0.00101785
In       7.63123545       7.29308750       1.64188889      10.00000000       0.00273078       0.00147407       0.00101788
In      13.51064183       7.29308750       1.64188889      10.00000000       0.00273079       0.00147409       0.00101788
In       7.63123545       4.11936520       6.23824933      10.00000000       0.00273082       0.00147410       0.00101786
In      13.51064183       4.11936520       6.23824933      10.00000000       0.00273083       0.00147411       0.00101787
In      10.85739417       9.03457825       6.23824933      10.00000000       0.00273089       0.00147407       0.00101786
In      16.73680055       9.03457825       6.23824933      10.00000000       0.00273090       0.00147406       0.00101783
In       1.76078518       0.95047746       0.65629133      10.00000000      -0.00273075      -0.00147420      -0.00101794
In       7.64019156       0.95047746       0.65629133      10.00000000      -0.00273074      -0.00147422      -0.00101795
In       4.98694390       5.86569050       0.65629133      10.00000000      -0.00273076      -0.00147411      -0.00101795
In      10.86635028       5.86569050       0.65629133      10.00000000      -0.00273074      -0.00147411      -0.00101794
In       4.98694390       2.69196821       5.25265176      10.00000000      -0.00273078      -0.00147419      -0.00101786
In      10.86635028       2.69196821       5.25265176      10.00000000      -0.00273073      -0.00147419      -0.00101787
In       8.21310263       7.60718126       5.25265176      10.00000000      -0.00273081      -0.00147425      -0.00101786
In      14.09250901       7.60718126       5.25265176      10.00000000      -0.00273086      -0.00147425      -0.00101786
O        6.02263415       2.30932705       0.21474656       4.00000000      -0.00000003       0.00904627      -0.01310132
O       11.90204053       2.30932705       0.21474656       4.00000000      -0.00000000       0.00904626      -0.01310132
O        9.24879287       7.22454010       0.21474656       4.00000000      -0.00000000       0.00904621      -0.01310133
O       15.12819925       7.22454010       0.21474656       4.00000000       0.00000001       0.00904620      -0.01310132
O        9.24879287       4.05081780       4.81110699       4.00000000      -0.00000002       0.00904627      -0.01310130
O       15.12819925       4.05081780       4.81110699       4.00000000      -0.00000000       0.00904627      -0.01310131
O       12.47495159       8.96603085       4.81110699       4.00000000       0.00000001       0.00904626      -0.01310128
O       18.35435798       8.96603085       4.81110699       4.00000000      -0.00000008       0.00904626      -0.01310125
O        7.09636398       5.12094207       1.14909010       4.00000000      -0.00756272       0.01401017       0.00000016
O       12.97577036       5.12094207       1.14909010       4.00000000      -0.00756272       0.01401016       0.00000015
O       10.32252270      10.03615511       1.14909010       4.00000000      -0.00756273       0.01401022       0.00000014
O       16.20192908      10.03615511       1.14909010       4.00000000      -0.00756271       0.01401022       0.00000017
O       10.32252270       6.86243282       5.74545054       4.00000000      -0.00756274       0.01401017       0.00000004
O       16.20192908       6.86243282       5.74545054       4.00000000      -0.00756271       0.01401018       0.00000006
O       13.54868142      11.77764587       5.74545054       4.00000000      -0.00756271       0.01401014       0.00000006
O       19.42808780      11.77764587       5.74545054       4.00000000      -0.00756271       0.01401014       0.00000006
O        8.17506304       2.18091283       2.51292678       4.00000000       0.00756274      -0.00496388      -0.01310136
O       14.05446942       2.18091283       2.51292678       4.00000000       0.00756275      -0.00496388      -0.01310138
O       11.40122176       7.09612588       2.51292678       4.00000000       0.00756274      -0.00496393      -0.01310137
O       17.28062814       7.09612588       2.51292678       4.00000000       0.00756276      -0.00496392      -0.01310137
O       11.40122176       3.92240358       7.10928721       4.00000000       0.00756271      -0.00496389      -0.01310132
O       17.28062814       3.92240358       7.10928721       4.00000000       0.00756273      -0.00496390      -0.01310133
O       14.62738048       8.83761663       7.10928721       4.00000000       0.00756275      -0.00496388      -0.01310133
O       20.50678687       8.83761663       7.10928721       4.00000000       0.00756269      -0.00496391      -0.01310130
O        4.15666079       4.47579097       2.08343366       4.00000000      -0.00756276       0.00496390       0.01310135
O       10.03606717       4.47579097       2.08343366       4.00000000      -0.00756275       0.00496390       0.01310134
O        7.38281951       9.39100402       2.08343366       4.00000000      -0.00756273       0.00496390       0.01310132
O       13.26222589       9.39100402       2.08343366       4.00000000      -0.00756274       0.00496392       0.01310134
O        7.38281951       6.21728172       6.67979410       4.00000000      -0.00756270       0.00496398       0.01310128
O       13.26222589       6.21728172       6.67979410       4.00000000      -0.00756271       0.00496398       0.01310127
O       10.60897823      11.13249477       6.67979410       4.00000000      -0.00756272       0.00496394       0.01310128
O       16.48838462      11.13249477       6.67979410       4.00000000      -0.00756278       0.00496391       0.01310130
O        6.30908968       4.34737676       4.38161388       4.00000000      -0.00000004      -0.00904629       0.01310132
O       12.18849606       4.34737676       4.38161388       4.00000000      -0.00000003      -0.00904630       0.01310131
O        9.53524840       9.26258981       4.38161388       4.00000000      -0.00000002      -0.00904629       0.01310133
O       15.41465478       9.26258981       4.38161388       4.00000000       0.00000003      -0.00904629       0.01310132
O        9.53524840       6.08886751       8.97797431       4.00000000      -0.00000004      -0.00904625       0.01310137
O       15.41465478       6.08886751       8.97797431       4.00000000       0.00000002      -0.00904625       0.01310135
O       12.76140712      11.00408056       8.97797431       4.00000000       0.00000003      -0.00904631       0.01310134
O       18.64081350      11.00408056       8.97797431       4.00000000       0.00000004      -0.00904632       0.01310134
O        5.23535984       1.53576173       3.44727032       4.00000000       0.00756277      -0.01401010       0.00000009
O       11.11476623       1.53576173       3.44727032       4.00000000       0.00756270      -0.01401009       0.00000007
O        8.46151857       6.45097478       3.44727032       4.00000000       0.00756273      -0.01401013       0.00000006
O       14.34092495       6.45097478       3.44727032       4.00000000       0.00756273      -0.01401013       0.00000006
O        8.46151857       3.27725249       8.04363076       4.00000000       0.00756272      -0.01401016       0.00000005
O       14.34092495       3.27725249       8.04363076       4.00000000       0.00756272      -0.01401016       0.00000005
O       11.68767729       8.19246553       8.04363076       4.00000000       0.00756271      -0.01401010       0.00000005
O       17.56708367       8.19246553       8.04363076       4.00000000       0.00756272      -0.01401010       0.00000004
