80
Lattice="11.758812762970885 0.0 0.0 6.452317444010323 9.830426094342354 0.0 6.452317444010323 3.4829815090918417 9.192720870539437" Properties=species:S:1:pos:R:3:initial_magmoms:R:1:forces:R:3 uid=supercell-001.xyz_R3c type=Bulk energy=-90301.43160827718 stress="0.0015638519657287639 -0.0008744747562058391 -0.0006189583157661199 -0.0008744747562058391 0.0027360317138697254 -0.0002932962808202136 -0.0006189583157661199 -0.0002932962808202136 0.0030025309438591265" virial="-2.108274738542569e-06 7.534490049217705e-07 5.296608257076208e-07 7.534490049217705e-07 -3.1079771453023037e-06 2.4106911969400687e-07 5.296608257076208e-07 2.4106911969400687e-07 -3.3412698417803747e-06" pbc="T T T"
In      10.58152218       5.70622635       3.94006911      10.00000000      -0.10102460       0.01183850       0.00767096
In      16.45034502       5.70622635       3.94006911      10.00000000       0.00057577      -0.00110943      -0.00126703
In      13.79709736      10.62143940       3.94006911      10.00000000      -0.00153965      -0.00020173      -0.00085525
In      19.67650374      10.62143940       3.94006911      10.00000000      -0.00486526      -0.00413682      -0.00113861
In      13.79709736       7.44771711       8.53642955      10.00000000      -0.00277867      -0.00005564       0.00117159
In      19.67650374       7.44771711       8.53642955      10.00000000      -0.00327764      -0.00270956      -0.00450817
In      17.02325608      12.36293015       8.53642955      10.00000000      -0.00482535      -0.00256290      -0.00084373
In      22.90266246      12.36293015       8.53642955      10.00000000      -0.00201805      -0.00146794      -0.00100977
In       7.92664710       4.27882935       2.95447155      10.00000000       0.02151755       0.01751169       0.01228841
In      13.80605348       4.27882935       2.95447155      10.00000000       0.01167477      -0.00216087      -0.00437448
In      11.15280582       9.19404240       2.95447155      10.00000000       0.00053436       0.00509073       0.00205043
In      17.03221221       9.19404240       2.95447155      10.00000000       0.00456350       0.00053058       0.00087735
In      11.15280582       6.02032010       7.55083198      10.00000000       0.00050571       0.00274283       0.00151088
In      17.03221221       6.02032010       7.55083198      10.00000000       0.00456759       0.00193292       0.00148831
In      14.37896455      10.93553315       7.55083198      10.00000000       0.00301901       0.00294939       0.00104916
In      20.25837093      10.93553315       7.55083198      10.00000000       0.00471921       0.00060089       0.00110565
In       4.40507673       2.37787445       1.64188889      10.00000000      -0.00233708      -0.00180325      -0.00240046
In      10.28448311       2.37787445       1.64188889      10.00000000      -0.00599120      -0.00045908      -0.00179351
In       7.63123545       7.29308750       1.64188889      10.00000000      -0.00047978      -0.00609048       0.00745232
In      13.51064183       7.29308750       1.64188889      10.00000000      -0.00061643       0.00279795      -0.00681726
In       7.63123545       4.11936520       6.23824933      10.00000000       0.00093123       0.00194211      -0.00624352
In      13.51064183       4.11936520       6.23824933      10.00000000       0.00076536      -0.00493120       0.00598276
In      10.85739417       9.03457825       6.23824933      10.00000000      -0.00597667      -0.00248131       0.00026139
In      16.73680055       9.03457825       6.23824933      10.00000000      -0.00235434      -0.00180545      -0.00238876
In       1.76078518       0.95047746       0.65629133      10.00000000       0.00202342       0.00004304       0.00001101
In       7.64019156       0.95047746       0.65629133      10.00000000       0.00445753       0.00244043       0.00230873
In       4.98694390       5.86569050       0.65629133      10.00000000       0.00538326       0.00240403       0.00110824
In      10.86635028       5.86569050       0.65629133      10.00000000      -0.00136392      -0.00050336      -0.00534907
In       4.98694390       2.69196821       5.25265176      10.00000000       0.00527130       0.00198970       0.00129071
In      10.86635028       2.69196821       5.25265176      10.00000000      -0.00731129      -0.00211482       0.00443022
In       8.21310263       7.60718126       5.25265176      10.00000000       0.00653043      -0.01032235      -0.00802242
In      14.09250901       7.60718126       5.25265176      10.00000000       0.00642766       0.00486633       0.00335423
O        6.02263415       2.30932705       0.21474656       4.00000000      -0.00043775       0.01447645      -0.02173604
O       11.90204053       2.30932705       0.21474656       4.00000000       0.00051279       0.01463961      -0.02099686
O        9.24879287       7.22454010       0.21474656       4.00000000       0.00111335       0.01566689      -0.02294835
O       15.12819925       7.22454010       0.21474656       4.00000000      -0.00076881       0.01455198      -0.02078438
O        9.24879287       4.05081780       4.81110699       4.00000000       0.00888256       0.01669215      -0.02116223
O       15.12819925       4.05081780       4.81110699       4.00000000      -0.00582803       0.01570252      -0.02211167
O       12.47495159       8.96603085       4.81110699       4.00000000       0.00016452       0.01379792      -0.02309291
O       18.35435798       8.96603085       4.81110699       4.00000000      -0.00156745       0.01719775      -0.02107845
O        7.09636398       5.12094207       1.14909010       4.00000000      -0.01465762       0.02120724      -0.00311327
O       12.97577036       5.12094207       1.14909010       4.00000000      -0.01266995       0.02279552       0.00224426
O       10.32252270      10.03615511       1.14909010       4.00000000      -0.01119509       0.02255009       0.00002632
O       16.20192908      10.03615511       1.14909010       4.00000000      -0.01291098       0.02273558      -0.00008295
O       10.32252270       6.86243282       5.74545054       4.00000000      -0.00556128       0.01946511      -0.00470593
O       16.20192908       6.86243282       5.74545054       4.00000000      -0.01392030       0.02333905      -0.00021825
O       13.54868142      11.77764587       5.74545054       4.00000000      -0.01333173       0.02220619      -0.00026031
O       19.42808780      11.77764587       5.74545054       4.00000000      -0.01319059       0.02757362      -0.00191562
O        8.17506304       2.18091283       2.51292678       4.00000000       0.01118981      -0.01063055      -0.02234210
O       14.05446942       2.18091283       2.51292678       4.00000000       0.01198831      -0.00568820      -0.02082424
O       11.40122176       7.09612588       2.51292678       4.00000000       0.02633441       0.00339445      -0.03417108
O       17.28062814       7.09612588       2.51292678       4.00000000       0.01002733      -0.00844170      -0.02151339
O       11.40122176       3.92240358       7.10928721       4.00000000       0.01486852      -0.00898557      -0.02218256
O       17.28062814       3.92240358       7.10928721       4.00000000       0.01126559      -0.00851958      -0.02151678
O       14.62738048       8.83761663       7.10928721       4.00000000       0.01242559      -0.00896650      -0.02215618
O       20.50678687       8.83761663       7.10928721       4.00000000       0.01209376      -0.00695613      -0.02020309
O        4.15666079       4.47579097       2.08343366       4.00000000      -0.01383941       0.00753774       0.02197541
O       10.03606717       4.47579097       2.08343366       4.00000000      -0.00391454       0.00857639       0.02235560
O        7.38281951       9.39100402       2.08343366       4.00000000      -0.01263403       0.01038338       0.02104382
O       13.26222589       9.39100402       2.08343366       4.00000000      -0.01441316       0.00522815       0.02212866
O        7.38281951       6.21728172       6.67979410       4.00000000      -0.01414618       0.00834294       0.02385525
O       13.26222589       6.21728172       6.67979410       4.00000000      -0.01272274       0.00670445       0.02014533
O       10.60897823      11.13249477       6.67979410       4.00000000      -0.01224717       0.00836348       0.02134781
O       16.48838462      11.13249477       6.67979410       4.00000000      -0.01126143       0.00764259       0.02158984
O        6.30908968       4.34737676       4.38161388       4.00000000      -0.00316783      -0.01554440       0.02153892
O       12.18849606       4.34737676       4.38161388       4.00000000       0.03565762      -0.03987051       0.02888029
O        9.53524840       9.26258981       4.38161388       4.00000000       0.00182057      -0.01178257       0.02163167
O       15.41465478       9.26258981       4.38161388       4.00000000      -0.00062751      -0.01547639       0.02183884
O        9.53524840       6.08886751       8.97797431       4.00000000       0.00004553      -0.01436998       0.02310201
O       15.41465478       6.08886751       8.97797431       4.00000000      -0.00077412      -0.01501170       0.02088654
O       12.76140712      11.00408056       8.97797431       4.00000000      -0.00046852      -0.01476523       0.02099026
O       18.64081350      11.00408056       8.97797431       4.00000000      -0.00031891      -0.01486411       0.02367687
O        5.23535984       1.53576173       3.44727032       4.00000000       0.01174594      -0.02353105      -0.00021274
O       11.11476623       1.53576173       3.44727032       4.00000000       0.01376194      -0.02264666       0.00095513
O        8.46151857       6.45097478       3.44727032       4.00000000       0.02703028      -0.02366882      -0.00074986
O       14.34092495       6.45097478       3.44727032       4.00000000       0.00977460      -0.02487386       0.00028473
O        8.46151857       3.27725249       8.04363076       4.00000000       0.01256465      -0.02315861       0.00117258
O       14.34092495       3.27725249       8.04363076       4.00000000       0.01173497      -0.02252090      -0.00092264
O       11.68767729       8.19246553       8.04363076       4.00000000       0.01250386      -0.02300463      -0.00003914
O       17.56708367       8.19246553       8.04363076       4.00000000       0.01236090      -0.02225853       0.00097053
