40
Lattice="8.95402395650479 7.017952935253641e-10 -7.997387584824795e-16 -2.9846746528299217 8.441934744501179 -1.2155400175006213e-09 -2.9846746518374334 -4.220967371548797 7.310929946638887" Properties=species:S:1:pos:R:3:spacegroup_kinds:I:1:forces:R:3 spacegroup="P 1" unit_cell=conventional occupancy="_JSON {\"0\": {\"In\": 1}, \"1\": {\"In\": 1}, \"2\": {\"In\": 1}, \"3\": {\"In\": 1}, \"4\": {\"In\": 1}, \"5\": {\"In\": 1}, \"6\": {\"In\": 1}, \"7\": {\"In\": 1}, \"8\": {\"In\": 1}, \"9\": {\"In\": 1}, \"10\": {\"In\": 1}, \"11\": {\"In\": 1}, \"12\": {\"In\": 1}, \"13\": {\"In\": 1}, \"14\": {\"In\": 1}, \"15\": {\"In\": 1}, \"16\": {\"O\": 1}, \"17\": {\"O\": 1}, \"18\": {\"O\": 1}, \"19\": {\"O\": 1}, \"20\": {\"O\": 1}, \"21\": {\"O\": 1}, \"22\": {\"O\": 1}, \"23\": {\"O\": 1}, \"24\": {\"O\": 1}, \"25\": {\"O\": 1}, \"26\": {\"O\": 1}, \"27\": {\"O\": 1}, \"28\": {\"O\": 1}, \"29\": {\"O\": 1}, \"30\": {\"O\": 1}, \"31\": {\"O\": 1}, \"32\": {\"O\": 1}, \"33\": {\"O\": 1}, \"34\": {\"O\": 1}, \"35\": {\"O\": 1}, \"36\": {\"O\": 1}, \"37\": {\"O\": 1}, \"38\": {\"O\": 1}, \"39\": {\"O\": 1}}" n_minim_iter=6 energy=-45151.90823250189 stress="-9.274860763610425e-05 -2.5362269386127687e-13 8.326843837352674e-14 -2.5362269386127687e-13 -9.274860788490618e-05 -2.523933940420877e-13 8.326843837352674e-14 -2.523933940420877e-13 -9.274860866201814e-05" free_energy=-45151.90823250189 pbc="T T T"
In      -4.27470423       3.02267235       5.73097283        0       0.00545251      -0.00385551       0.00667793
In       7.25937888       1.19829502       1.57995711        1      -0.00545251       0.00385551      -0.00667793
In       1.29002958      -0.91218866       5.23542208        2      -0.00545251       0.00385551      -0.00667793
In      -1.49233733      -2.11048368       3.65546497        3       0.00000000      -0.00000000       0.00000000
In      -1.29002958       4.07791420       3.40768960        4       0.00545251      -0.00385551      -0.00667793
In       4.67931972      -2.87961917       5.48319746        5       0.00545251       0.00771101      -0.00000000
In      -1.29002958       1.34134820       5.48319746        6       0.00545251       0.00771101      -0.00000000
In      -1.69464507       7.10058654       1.82773248        7      -0.00545251      -0.00771101      -0.00000000
In       4.27470423       0.14305318       3.90324035        8      -0.00545251       0.00385551       0.00667793
In      -1.49233733       4.22096737      -0.00000000        9       0.00000000      -0.00000000      -0.00000000
In       4.27470423       6.47450424       0.24777537       10      -0.00545251       0.00385551       0.00667793
In      -1.29002958      -2.25353686       7.06315457       11       0.00545251      -0.00385551      -0.00667793
In       4.27470423       2.87961917       1.82773248       12      -0.00545251      -0.00771101      -0.00000000
In       1.69464507       5.13315604       2.07550786       13       0.00545251      -0.00385551       0.00667793
In       4.47701198       0.00000000      -0.00000000       14      -0.00000000      -0.00000000       0.00000000
In       1.49233732       2.11048369       3.65546497       15      -0.00000000      -0.00000000       0.00000000
O        0.88404129       4.22277637       3.97461006       16       0.00093997      -0.00230015       0.00614620
O       -2.10063336       3.44120879       5.32205828       17       0.00093997       0.00647284      -0.00108112
O       -0.43877748       2.26609923       0.04647780       18       0.00424738       0.00413415       0.00296961
O       -0.88404129      -0.77794959       1.98573839       19      -0.00093997       0.00417270       0.00506509
O        3.94461388       5.02575094       1.93926059       20       0.00578933      -0.00245819       0.00209548
O        2.02473542       2.94391022       1.66659331       21      -0.00578933      -0.00304383      -0.00108112
O        2.02473542       6.30280810       0.27266728       22      -0.00578933       0.00058564       0.00317659
O       -2.28275800       5.98976803       3.70194277       23      -0.00248192      -0.00538252       0.00296961
O        3.42345213       1.95486815       7.26445214       24      -0.00424738      -0.00413415      -0.00296961
O        5.26743265      -1.76880065       3.60898717       25       0.00248192       0.00538252      -0.00296961
O        6.40812678       3.28378426       1.71620438       26      -0.00424738       0.00463884      -0.00209547
O        3.68659130       2.32157616       3.92813225       27      -0.00248192       0.00526302       0.00317659
O        0.70191665       4.35155793       6.99178486       28      -0.00248192       0.00011950      -0.00614620
O        2.28275800      -0.13059056       0.31914508       29       0.00248192      -0.00011950       0.00614620
O       -3.42345214       0.93718312       5.59472556       30       0.00424738      -0.00463884       0.00209547
O        5.08530801       0.77975859       1.98887166       31      -0.00093997      -0.00647284       0.00108112
O        0.95993922       1.27705716       5.64433663       32       0.00578933       0.00304383       0.00108112
O        3.42345213      -1.01768503       5.64120337       33      -0.00424738      -0.00050468       0.00506509
O        2.10063336      -0.00180899       3.33631988       34      -0.00093997       0.00230015      -0.00614620
O        0.95993922      -2.08184072       7.03826266       35       0.00578933      -0.00058564      -0.00317659
O       -0.70191666       1.89939121       3.38279769       36       0.00248192      -0.00526302      -0.00317659
O       -0.95993923      -0.80478357       5.37166935       37      -0.00578933       0.00245819      -0.00209547
O       -0.43877748       5.23865241       1.66972657       38       0.00424738       0.00050468      -0.00506509
O        3.86871594       4.99891697       5.32519155       39       0.00093997      -0.00417270      -0.00506509
