40
Lattice="8.574151112926035 6.720200219964854e-10 -9.885352000830112e-16 -2.8580503716089307 8.083787192933569 -1.1639778866224506e-09 -2.858050370658552 -4.04189359579476 7.000765068643753" Properties=species:S:1:pos:R:3:spacegroup_kinds:I:1:forces:R:3 spacegroup="P 1" unit_cell=conventional occupancy="_JSON {\"0\": {\"In\": 1}, \"1\": {\"In\": 1}, \"2\": {\"In\": 1}, \"3\": {\"In\": 1}, \"4\": {\"In\": 1}, \"5\": {\"In\": 1}, \"6\": {\"In\": 1}, \"7\": {\"In\": 1}, \"8\": {\"In\": 1}, \"9\": {\"In\": 1}, \"10\": {\"In\": 1}, \"11\": {\"In\": 1}, \"12\": {\"In\": 1}, \"13\": {\"In\": 1}, \"14\": {\"In\": 1}, \"15\": {\"In\": 1}, \"16\": {\"O\": 1}, \"17\": {\"O\": 1}, \"18\": {\"O\": 1}, \"19\": {\"O\": 1}, \"20\": {\"O\": 1}, \"21\": {\"O\": 1}, \"22\": {\"O\": 1}, \"23\": {\"O\": 1}, \"24\": {\"O\": 1}, \"25\": {\"O\": 1}, \"26\": {\"O\": 1}, \"27\": {\"O\": 1}, \"28\": {\"O\": 1}, \"29\": {\"O\": 1}, \"30\": {\"O\": 1}, \"31\": {\"O\": 1}, \"32\": {\"O\": 1}, \"33\": {\"O\": 1}, \"34\": {\"O\": 1}, \"35\": {\"O\": 1}, \"36\": {\"O\": 1}, \"37\": {\"O\": 1}, \"38\": {\"O\": 1}, \"39\": {\"O\": 1}}" n_minim_iter=1 energy=-45151.910842119076 stress="-0.0005978713568258322 4.364039358862357e-13 -4.4436622539441197e-13 4.364039358862357e-13 -0.0005978713573650238 2.6590889497676205e-13 -4.4436622539441197e-13 2.6590889497676205e-13 -0.0005978713580074561" free_energy=-45151.910842119076 pbc="T T T"
In      -4.08987133       2.89197575       5.49209866        0       0.00256348      -0.00181265       0.00313960
In       6.94792170       1.14991785       1.50866640        1      -0.00256348       0.00181265      -0.00313960
In       1.23182096      -0.87102895       5.00904893        2      -0.00256348       0.00181265      -0.00313960
In      -1.42902519      -2.02094680       3.50038253        3      -0.00000000       0.00000000       0.00000000
In      -1.23182096       3.90244915       3.25885767        4       0.00256348      -0.00181265      -0.00313960
In       4.48427978      -2.75253130       5.25057380        5       0.00256348       0.00362530      -0.00000000
In      -1.23182096       1.28936229       5.25057380        6       0.00256348       0.00362530       0.00000000
In      -1.62622941       6.79442490       1.75019126        7      -0.00256348      -0.00362530       0.00000000
In       4.08987133       0.13944445       3.74190740        8      -0.00256348       0.00181265       0.00313960
In      -1.42902519       4.04189360      -0.00000000        9       0.00000000       0.00000000       0.00000000
In       4.08987133       6.20228484       0.24152486       10      -0.00256348       0.00181265       0.00313960
In      -1.23182096      -2.16039124       6.75924020       11       0.00256348      -0.00181265      -0.00313960
In       4.08987133       2.75253131       1.75019126       12      -0.00256348      -0.00362530      -0.00000000
In       1.62622941       4.91292255       1.99171613       13       0.00256348      -0.00181265       0.00313960
In       4.28707556       0.00000000      -0.00000000       14      -0.00000000      -0.00000000      -0.00000000
In       1.42902518       2.02094680       3.50038253       15       0.00000000       0.00000000      -0.00000000
O        0.82335003       4.03568245       3.83312800       16      -0.00777411      -0.00008497       0.05756932
O       -2.03470034       3.32269180       5.08958008       17      -0.00777411       0.04989898      -0.02871108
O       -0.40947588       2.17348456       0.07930034       18       0.04437373       0.01302488       0.03515673
O       -0.82335003      -0.72541294       1.92194301       19       0.00777411       0.04981401       0.02885824
O        3.81089731       4.81309062       1.84264267       20       0.04963658      -0.02951626      -0.00629848
O        1.90520343       2.83171675       1.58919754       21      -0.04963658      -0.00930349      -0.02871108
O        1.90520343       6.02326747       0.25344512       22      -0.04963658      -0.02021278       0.02241259
O       -2.18567285       5.72440310       3.57968287       23       0.00251126      -0.04617758       0.03515673
O        3.26752624       1.86840904       6.92146473       24      -0.04437373      -0.01302488      -0.03515673
O        5.04372322      -1.68250950       3.42108219       25      -0.00251126       0.04617758      -0.03515673
O        6.12557661       3.17636519       1.65773986       26      -0.04437373       0.03695906       0.00629848
O        3.53042789       2.25884156       3.75382766       27       0.00251126       0.05353541       0.02241259
O        0.67237752       4.14243614       6.66801960       28       0.00251126      -0.00735783      -0.05756932
O        2.18567285      -0.10054254       0.33274546       29      -0.00251126       0.00735783       0.05756932
O       -3.26752625       0.86552842       5.34302520       30       0.04437373      -0.03695906      -0.00629848
O        4.89275071       0.71920180       1.91118499       31       0.00777411      -0.04989898       0.02871108
O        0.95284694       1.21017686       5.41156752       32       0.04963658       0.00930349       0.02871108
O        3.26752624      -1.00288063       5.42232554       33      -0.04437373      -0.02393418       0.02885824
O        2.03470034       0.00621115       3.16763707       34       0.00777411       0.00008497      -0.05756932
O        0.95284694      -1.98137387       6.74731994       35       0.04963658       0.02021278      -0.02241259
O       -0.67237752       1.78305204       3.24693741       36      -0.00251126      -0.05353541      -0.02241259
O       -0.95284694      -0.77119702       5.15812240       37      -0.04963658       0.02951626       0.00629848
O       -0.40947588       5.04477423       1.57843952       38       0.04437373       0.02393418      -0.02885824
O        3.68140040       4.76730655       5.07882206       39      -0.00777411      -0.04981401      -0.02885824
40
Lattice="8.574151112926033 6.720200219964852e-10 -9.885352000830033e-16 -2.8580503716089303 8.083787192933565 -1.1639778866224504e-09 -2.8580503706585514 -4.041893595794758 7.000765068643753" Properties=species:S:1:pos:R:3:spacegroup_kinds:I:1:forces:R:3 spacegroup="P 1" unit_cell=conventional occupancy="_JSON {\"0\": {\"In\": 1}, \"1\": {\"In\": 1}, \"2\": {\"In\": 1}, \"3\": {\"In\": 1}, \"4\": {\"In\": 1}, \"5\": {\"In\": 1}, \"6\": {\"In\": 1}, \"7\": {\"In\": 1}, \"8\": {\"In\": 1}, \"9\": {\"In\": 1}, \"10\": {\"In\": 1}, \"11\": {\"In\": 1}, \"12\": {\"In\": 1}, \"13\": {\"In\": 1}, \"14\": {\"In\": 1}, \"15\": {\"In\": 1}, \"16\": {\"O\": 1}, \"17\": {\"O\": 1}, \"18\": {\"O\": 1}, \"19\": {\"O\": 1}, \"20\": {\"O\": 1}, \"21\": {\"O\": 1}, \"22\": {\"O\": 1}, \"23\": {\"O\": 1}, \"24\": {\"O\": 1}, \"25\": {\"O\": 1}, \"26\": {\"O\": 1}, \"27\": {\"O\": 1}, \"28\": {\"O\": 1}, \"29\": {\"O\": 1}, \"30\": {\"O\": 1}, \"31\": {\"O\": 1}, \"32\": {\"O\": 1}, \"33\": {\"O\": 1}, \"34\": {\"O\": 1}, \"35\": {\"O\": 1}, \"36\": {\"O\": 1}, \"37\": {\"O\": 1}, \"38\": {\"O\": 1}, \"39\": {\"O\": 1}}" n_minim_iter=2 energy=-45151.91379790156 stress="-0.00023898330589705222 -5.234276417849947e-13 5.000905830790908e-13 -5.234276417849947e-13 -0.00023898330592526435 6.833154487404725e-14 5.000905830790908e-13 6.833154487404725e-14 -0.000238983305728453" free_energy=-45151.91379790156 pbc="T T T"
In      -4.08968823       2.89184628       5.49232292        0       0.03233969      -0.02286761       0.03960786
In       6.94773859       1.15004732       1.50844214        1      -0.03233969       0.02286761      -0.03960786
In       1.23163785      -0.87089948       5.00882468        2      -0.03233969       0.02286761      -0.03960786
In      -1.42902519      -2.02094680       3.50038253        3      -0.00000000      -0.00000000      -0.00000000
In      -1.23163786       3.90231968       3.25863341        4       0.03233969      -0.02286761      -0.03960786
In       4.48446289      -2.75227235       5.25057380        5       0.03233969       0.04573522      -0.00000000
In      -1.23163785       1.28962124       5.25057380        6       0.03233969       0.04573522      -0.00000000
In      -1.62641252       6.79416595       1.75019126        7      -0.03233969      -0.04573522       0.00000000
In       4.08968822       0.13957392       3.74213165        8      -0.03233969       0.02286761       0.03960786
In      -1.42902519       4.04189360      -0.00000000        9      -0.00000000      -0.00000000       0.00000000
In       4.08968822       6.20241432       0.24174912       10      -0.03233969       0.02286761       0.03960786
In      -1.23163785      -2.16052072       6.75901594       11       0.03233969      -0.02286761      -0.03960786
In       4.08968822       2.75227236       1.75019126       12      -0.03233969      -0.04573522      -0.00000000
In       1.62641252       4.91279308       1.99194039       13       0.03233969      -0.02286761       0.03960786
In       4.28707556       0.00000000      -0.00000000       14      -0.00000000       0.00000000      -0.00000000
In       1.42902518       2.02094680       3.50038253       15      -0.00000000       0.00000000       0.00000000
O        0.82279474       4.03567638       3.83724009       16      -0.01978406      -0.01496107      -0.00369533
O       -2.03525563       3.32625601       5.08752928       17      -0.01978406       0.00428028       0.01480433
O       -0.40630632       2.17441491       0.08181153       18      -0.01666463       0.00207451       0.01862484
O       -0.82279474      -0.72185480       1.92400431       19       0.01978406      -0.01068078       0.01110900
O        3.81444278       4.81098231       1.84219278       20       0.01063018       0.02143384      -0.00751584
O        1.90165796       2.83105221       1.58714675       21      -0.01063018       0.01722583       0.01480433
O        1.90165796       6.02182370       0.25504602       22      -0.01063018       0.00420801      -0.02232017
O       -2.18549347       5.72110470       3.58219406       23      -0.00751074       0.01502006       0.01862484
O        3.26435669       1.86747870       6.91895353       24       0.01666463      -0.00207451      -0.01862484
O        5.04354384      -1.67921110       3.41857100       25       0.00751074      -0.01502006      -0.01862484
O        6.12240706       3.17900512       1.65818975       26       0.01666463       0.01716684       0.00751584
O        3.53060727       2.26266551       3.75542856       27      -0.00751074       0.00861956      -0.02232017
O        0.67255690       4.14191058       6.66390751       28      -0.00751074      -0.02363961       0.00369533
O        2.18549347      -0.10001698       0.33685756       29       0.00751074       0.02363961      -0.00369533
O       -3.26435669       0.86288848       5.34257531       30      -0.01666463      -0.01716684      -0.00751584
O        4.89330600       0.71563759       1.91323578       31       0.01978406      -0.00428028      -0.01480433
O        0.95639241       1.21084139       5.41361831       32       0.01063018      -0.01722583      -0.01480433
O        3.26435669      -1.00459021       5.42438684       33       0.01666463      -0.01509233       0.01110900
O        2.03525563       0.00621722       3.16352497       34       0.01978406       0.01496107       0.00369533
O        0.95639241      -1.97993010       6.74571904       35       0.01063018      -0.00420801       0.02232017
O       -0.67255690       1.77922809       3.24533651       36       0.00751074      -0.00861956       0.02232017
O       -0.95639241      -0.76908871       5.15857229       37      -0.01063018      -0.02143384       0.00751584
O       -0.40630632       5.04648381       1.57637822       38      -0.01666463       0.01509233      -0.01110900
O        3.68084511       4.76374840       5.07676075       39      -0.01978406       0.01068078      -0.01110900
40
Lattice="8.574151112926033 6.720200219964852e-10 -9.88535200083003e-16 -2.8580503716089303 8.083787192933565 -1.1639778866224504e-09 -2.8580503706585514 -4.041893595794758 7.000765068643753" Properties=species:S:1:pos:R:3:spacegroup_kinds:I:1:forces:R:3 spacegroup="P 1" unit_cell=conventional occupancy="_JSON {\"0\": {\"In\": 1}, \"1\": {\"In\": 1}, \"2\": {\"In\": 1}, \"3\": {\"In\": 1}, \"4\": {\"In\": 1}, \"5\": {\"In\": 1}, \"6\": {\"In\": 1}, \"7\": {\"In\": 1}, \"8\": {\"In\": 1}, \"9\": {\"In\": 1}, \"10\": {\"In\": 1}, \"11\": {\"In\": 1}, \"12\": {\"In\": 1}, \"13\": {\"In\": 1}, \"14\": {\"In\": 1}, \"15\": {\"In\": 1}, \"16\": {\"O\": 1}, \"17\": {\"O\": 1}, \"18\": {\"O\": 1}, \"19\": {\"O\": 1}, \"20\": {\"O\": 1}, \"21\": {\"O\": 1}, \"22\": {\"O\": 1}, \"23\": {\"O\": 1}, \"24\": {\"O\": 1}, \"25\": {\"O\": 1}, \"26\": {\"O\": 1}, \"27\": {\"O\": 1}, \"28\": {\"O\": 1}, \"29\": {\"O\": 1}, \"30\": {\"O\": 1}, \"31\": {\"O\": 1}, \"32\": {\"O\": 1}, \"33\": {\"O\": 1}, \"34\": {\"O\": 1}, \"35\": {\"O\": 1}, \"36\": {\"O\": 1}, \"37\": {\"O\": 1}, \"38\": {\"O\": 1}, \"39\": {\"O\": 1}}" n_minim_iter=3 energy=-45151.91554290237 stress="-1.4859083960577007e-05 -4.0701851157261226e-13 -2.9734901326612684e-13 -4.0701851157261226e-13 -1.4859083794079127e-05 -6.086117842456578e-15 -2.9734901326612684e-13 -6.086117842456578e-15 -1.485908405489719e-05" free_energy=-45151.91554290237 pbc="T T T"
In      -4.08747123       2.89027862       5.49503818        0       0.00504123      -0.00356469       0.00617422
In       6.94552159       1.15161498       1.50572688        1      -0.00504123       0.00356469      -0.00617422
In       1.22942085      -0.86933182       5.00610942        2      -0.00504123       0.00356469      -0.00617422
In      -1.42902519      -2.02094680       3.50038253        3       0.00000000       0.00000000      -0.00000000
In      -1.22942085       3.90075202       3.25591815        4       0.00504123      -0.00356469      -0.00617422
In       4.48667989      -2.74913704       5.25057380        5       0.00504123       0.00712937       0.00000000
In      -1.22942085       1.29275656       5.25057380        6       0.00504123       0.00712937      -0.00000000
In      -1.62862952       6.79103064       1.75019126        7      -0.00504123      -0.00712937       0.00000000
In       4.08747122       0.14114158       3.74484691        8      -0.00504123       0.00356469       0.00617422
In      -1.42902519       4.04189360      -0.00000000        9      -0.00000000      -0.00000000      -0.00000000
In       4.08747122       6.20398197       0.24446438       10      -0.00504123       0.00356469       0.00617422
In      -1.22942085      -2.16208837       6.75630068       11       0.00504123      -0.00356469      -0.00617422
In       4.08747122       2.74913705       1.75019126       12      -0.00504123      -0.00712937      -0.00000000
In       1.62862952       4.91122542       1.99465565       13       0.00504123      -0.00356469       0.00617422
In       4.28707556       0.00000000      -0.00000000       14       0.00000000       0.00000000       0.00000000
In       1.42902518       2.02094680       3.50038253       15       0.00000000       0.00000000       0.00000000
O        0.82114078       4.03470356       3.83976230       16      -0.00000392       0.00653230      -0.00415292
O       -2.03690959       3.32892672       5.08711067       17      -0.00000392      -0.00686269      -0.00358068
O       -0.40525686       2.17517401       0.08470391       18      -0.00031280      -0.00664428      -0.00395897
O       -0.82114079      -0.72015691       1.92610791       19       0.00000392      -0.00033038      -0.00773360
O        3.81751207       4.81095434       1.84140399       20      -0.00646890      -0.00195533      -0.00377463
O        1.89858867       2.83172133       1.58672813       21       0.00646890       0.00229126      -0.00358068
O        1.89858867       6.02112661       0.25467585       22       0.00646890      -0.00424659      -0.00019395
O       -2.18585934       5.71986222       3.58508645       23       0.00616002       0.00250967      -0.00395897
O        3.26330723       1.86671959       6.91606115       24       0.00031280       0.00664428       0.00395897
O        5.04390971      -1.67796862       3.41567862       25      -0.00616002      -0.00250967       0.00395897
O        6.12135760       3.18188955       1.65897854       26       0.00031280      -0.00675071       0.00377463
O        3.53024140       2.26579163       3.75505839       27       0.00616002      -0.00468340      -0.00019395
O        0.67219103       4.14002694       6.66138529       28       0.00616002       0.00217374       0.00415292
O        2.18585934      -0.09813334       0.33937977       29      -0.00616002      -0.00217374      -0.00415292
O       -3.26330723       0.86000405       5.34178652       30      -0.00031280       0.00675071      -0.00377463
O        4.89495995       0.71296688       1.91365439       31       0.00000392       0.00686269       0.00358068
O        0.95946170       1.21017227       5.41403693       32      -0.00646890      -0.00229126       0.00358068
O        3.26330723      -1.00671553       5.42649044       33       0.00031280       0.00010643      -0.00773360
O        2.03690958       0.00719004       3.16100276       34       0.00000392      -0.00653230       0.00415292
O        0.95946170      -1.97923301       6.74608921       35      -0.00646890       0.00424659       0.00019395
O       -0.67219103       1.77610197       3.24570668       36      -0.00616002       0.00468340       0.00019395
O       -0.95946170      -0.76906074       5.15936107       37       0.00646890       0.00195533       0.00377463
O       -0.40525686       5.04860913       1.57427462       38      -0.00031280      -0.00010643       0.00773360
O        3.67919115       4.76205051       5.07465716       39      -0.00000392       0.00033038       0.00773360
