40
Lattice="8.574151112926033 6.720200219964852e-10 -9.88535200083003e-16 -2.8580503716089303 8.083787192933565 -1.1639778866224504e-09 -2.8580503706585514 -4.041893595794758 7.000765068643753" Properties=species:S:1:pos:R:3:spacegroup_kinds:I:1:forces:R:3 spacegroup="P 1" unit_cell=conventional occupancy="_JSON {\"0\": {\"In\": 1}, \"1\": {\"In\": 1}, \"2\": {\"In\": 1}, \"3\": {\"In\": 1}, \"4\": {\"In\": 1}, \"5\": {\"In\": 1}, \"6\": {\"In\": 1}, \"7\": {\"In\": 1}, \"8\": {\"In\": 1}, \"9\": {\"In\": 1}, \"10\": {\"In\": 1}, \"11\": {\"In\": 1}, \"12\": {\"In\": 1}, \"13\": {\"In\": 1}, \"14\": {\"In\": 1}, \"15\": {\"In\": 1}, \"16\": {\"O\": 1}, \"17\": {\"O\": 1}, \"18\": {\"O\": 1}, \"19\": {\"O\": 1}, \"20\": {\"O\": 1}, \"21\": {\"O\": 1}, \"22\": {\"O\": 1}, \"23\": {\"O\": 1}, \"24\": {\"O\": 1}, \"25\": {\"O\": 1}, \"26\": {\"O\": 1}, \"27\": {\"O\": 1}, \"28\": {\"O\": 1}, \"29\": {\"O\": 1}, \"30\": {\"O\": 1}, \"31\": {\"O\": 1}, \"32\": {\"O\": 1}, \"33\": {\"O\": 1}, \"34\": {\"O\": 1}, \"35\": {\"O\": 1}, \"36\": {\"O\": 1}, \"37\": {\"O\": 1}, \"38\": {\"O\": 1}, \"39\": {\"O\": 1}}" n_minim_iter=3 energy=-45151.91554290237 stress="-1.4859083960577007e-05 -4.0701851157261226e-13 -2.9734901326612684e-13 -4.0701851157261226e-13 -1.4859083794079127e-05 -6.086117842456578e-15 -2.9734901326612684e-13 -6.086117842456578e-15 -1.485908405489719e-05" free_energy=-45151.91554290237 pbc="T T T"
In      -4.08747123       2.89027862       5.49503818        0       0.00504123      -0.00356469       0.00617422
In       6.94552159       1.15161498       1.50572688        1      -0.00504123       0.00356469      -0.00617422
In       1.22942085      -0.86933182       5.00610942        2      -0.00504123       0.00356469      -0.00617422
In      -1.42902519      -2.02094680       3.50038253        3       0.00000000       0.00000000      -0.00000000
In      -1.22942085       3.90075202       3.25591815        4       0.00504123      -0.00356469      -0.00617422
In       4.48667989      -2.74913704       5.25057380        5       0.00504123       0.00712937       0.00000000
In      -1.22942085       1.29275656       5.25057380        6       0.00504123       0.00712937      -0.00000000
In      -1.62862952       6.79103064       1.75019126        7      -0.00504123      -0.00712937       0.00000000
In       4.08747122       0.14114158       3.74484691        8      -0.00504123       0.00356469       0.00617422
In      -1.42902519       4.04189360      -0.00000000        9      -0.00000000      -0.00000000      -0.00000000
In       4.08747122       6.20398197       0.24446438       10      -0.00504123       0.00356469       0.00617422
In      -1.22942085      -2.16208837       6.75630068       11       0.00504123      -0.00356469      -0.00617422
In       4.08747122       2.74913705       1.75019126       12      -0.00504123      -0.00712937      -0.00000000
In       1.62862952       4.91122542       1.99465565       13       0.00504123      -0.00356469       0.00617422
In       4.28707556       0.00000000      -0.00000000       14       0.00000000       0.00000000       0.00000000
In       1.42902518       2.02094680       3.50038253       15       0.00000000       0.00000000       0.00000000
O        0.82114078       4.03470356       3.83976230       16      -0.00000392       0.00653230      -0.00415292
O       -2.03690959       3.32892672       5.08711067       17      -0.00000392      -0.00686269      -0.00358068
O       -0.40525686       2.17517401       0.08470391       18      -0.00031280      -0.00664428      -0.00395897
O       -0.82114079      -0.72015691       1.92610791       19       0.00000392      -0.00033038      -0.00773360
O        3.81751207       4.81095434       1.84140399       20      -0.00646890      -0.00195533      -0.00377463
O        1.89858867       2.83172133       1.58672813       21       0.00646890       0.00229126      -0.00358068
O        1.89858867       6.02112661       0.25467585       22       0.00646890      -0.00424659      -0.00019395
O       -2.18585934       5.71986222       3.58508645       23       0.00616002       0.00250967      -0.00395897
O        3.26330723       1.86671959       6.91606115       24       0.00031280       0.00664428       0.00395897
O        5.04390971      -1.67796862       3.41567862       25      -0.00616002      -0.00250967       0.00395897
O        6.12135760       3.18188955       1.65897854       26       0.00031280      -0.00675071       0.00377463
O        3.53024140       2.26579163       3.75505839       27       0.00616002      -0.00468340      -0.00019395
O        0.67219103       4.14002694       6.66138529       28       0.00616002       0.00217374       0.00415292
O        2.18585934      -0.09813334       0.33937977       29      -0.00616002      -0.00217374      -0.00415292
O       -3.26330723       0.86000405       5.34178652       30      -0.00031280       0.00675071      -0.00377463
O        4.89495995       0.71296688       1.91365439       31       0.00000392       0.00686269       0.00358068
O        0.95946170       1.21017227       5.41403693       32      -0.00646890      -0.00229126       0.00358068
O        3.26330723      -1.00671553       5.42649044       33       0.00031280       0.00010643      -0.00773360
O        2.03690958       0.00719004       3.16100276       34       0.00000392      -0.00653230       0.00415292
O        0.95946170      -1.97923301       6.74608921       35      -0.00646890       0.00424659       0.00019395
O       -0.67219103       1.77610197       3.24570668       36      -0.00616002       0.00468340       0.00019395
O       -0.95946170      -0.76906074       5.15936107       37       0.00646890       0.00195533       0.00377463
O       -0.40525686       5.04860913       1.57427462       38      -0.00031280      -0.00010643       0.00773360
O        3.67919115       4.76205051       5.07465716       39      -0.00000392       0.00033038       0.00773360
