40
Lattice="8.329039973393986 6.528088090017477e-10 4.691533060707076e-15 -2.7763466584134697 7.852694194396675 -1.130706890070453e-09 -2.776346657490261 -3.9263470965455234 6.800632661251899" Properties=species:S:1:pos:R:3:spacegroup_kinds:I:1:forces:R:3 spacegroup="P 1" unit_cell=conventional occupancy="_JSON {\"0\": {\"In\": 1}, \"1\": {\"In\": 1}, \"2\": {\"In\": 1}, \"3\": {\"In\": 1}, \"4\": {\"In\": 1}, \"5\": {\"In\": 1}, \"6\": {\"In\": 1}, \"7\": {\"In\": 1}, \"8\": {\"In\": 1}, \"9\": {\"In\": 1}, \"10\": {\"In\": 1}, \"11\": {\"In\": 1}, \"12\": {\"In\": 1}, \"13\": {\"In\": 1}, \"14\": {\"In\": 1}, \"15\": {\"In\": 1}, \"16\": {\"O\": 1}, \"17\": {\"O\": 1}, \"18\": {\"O\": 1}, \"19\": {\"O\": 1}, \"20\": {\"O\": 1}, \"21\": {\"O\": 1}, \"22\": {\"O\": 1}, \"23\": {\"O\": 1}, \"24\": {\"O\": 1}, \"25\": {\"O\": 1}, \"26\": {\"O\": 1}, \"27\": {\"O\": 1}, \"28\": {\"O\": 1}, \"29\": {\"O\": 1}, \"30\": {\"O\": 1}, \"31\": {\"O\": 1}, \"32\": {\"O\": 1}, \"33\": {\"O\": 1}, \"34\": {\"O\": 1}, \"35\": {\"O\": 1}, \"36\": {\"O\": 1}, \"37\": {\"O\": 1}, \"38\": {\"O\": 1}, \"39\": {\"O\": 1}}" n_minim_iter=3 energy=-45151.90466313624 stress="0.00044626199844728946 -9.161215618897073e-13 -4.3810051923530523e-13 -9.161215618897073e-13 0.00044626200002033037 -1.8124567095508205e-13 -4.3810051923530523e-13 -1.8124567095508205e-13 0.0004462619988036336" free_energy=-45151.90466313624 pbc="T T T"
In      -3.96610997       2.80446325       5.34347615        0       0.00326677      -0.00230996       0.00400096
In       6.74245662       1.12188385       1.45715651        1      -0.00326677       0.00230996      -0.00400096
In       1.18976331      -0.84128970       4.85747284        2      -0.00326677       0.00230996      -0.00400096
In      -1.38817333      -1.96317355       3.40031633        3       0.00000000       0.00000000      -0.00000000
In      -1.18976331       3.78605003       3.15731467        4       0.00326677      -0.00230996      -0.00400096
In       4.36293001      -2.66416618       5.10047449        5       0.00326677       0.00461991       0.00000000
In      -1.18976331       1.26218092       5.10047449        6       0.00326677       0.00461991      -0.00000000
In      -1.58658335       6.59051328       1.70015816        7      -0.00326677      -0.00461991       0.00000000
In       3.96610996       0.14029707       3.64331798        8      -0.00326677       0.00230996       0.00400096
In      -1.38817333       3.92634710      -0.00000000        9       0.00000000      -0.00000000       0.00000000
In       3.96610996       6.02981772       0.24300165       10      -0.00326677       0.00230996       0.00400096
In      -1.18976331      -2.10347062       6.55763100       11       0.00326677      -0.00230996      -0.00400096
In       3.96610996       2.66416618       1.70015816       12      -0.00326677      -0.00461991      -0.00000000
In       1.58658335       4.76763680       1.94315982       13       0.00326677      -0.00230996       0.00400096
In       4.16451999       0.00000000      -0.00000000       14       0.00000000      -0.00000000      -0.00000000
In       1.38817333       1.96317355       3.40031633       15       0.00000000       0.00000000      -0.00000000
O        0.78826257       3.91655838       3.74586675       16       0.00218643       0.00790451       0.00068171
O       -1.98808409       3.24891013       4.93617656       17       0.00218643      -0.00336188      -0.00718636
O       -0.38516841       2.11547758       0.09870667       18       0.00501164      -0.00535961      -0.00372620
O       -0.78826257      -0.68722569       1.88141066       19      -0.00218643       0.00454263      -0.00650465
O        3.72579654       4.67056111       1.78270399       20      -0.00389842      -0.00669395      -0.00277846
O        1.82689677       2.75458716       1.53586023       21       0.00389842      -0.00094076      -0.00718636
O        1.82689677       5.84232105       0.24684375       22       0.00389842      -0.00575319       0.00440790
O       -2.12288086       5.54750171       3.49902300       23       0.00672363      -0.00293849      -0.00372620
O        3.16151506       1.81086952       6.70192599       24      -0.00501164       0.00535961       0.00372620
O        4.89922751      -1.62115461       3.30160966       25      -0.00672363       0.00293849       0.00372620
O        5.93786172       3.10639482       1.61761234       26      -0.00501164      -0.00590678       0.00277846
O        3.42981246       2.21966550       3.64716008       27       0.00672363      -0.00175774       0.00440790
O        0.65346580       4.01187409       6.45508224       28       0.00672363       0.00469622      -0.00068171
O        2.12288086      -0.08552699       0.34555042       29      -0.00672363      -0.00469622       0.00068171
O       -3.16151507       0.81995228       5.18302032       30       0.00501164       0.00590678      -0.00277846
O        4.76443075       0.67743697       1.86445609       31      -0.00218643       0.00336188       0.00718636
O        0.94944988       1.17175994       5.26477242       32      -0.00389842       0.00094076       0.00718636
O        3.16151506      -0.99091724       5.28172699       33      -0.00501164       0.00054718      -0.00650465
O        1.98808409       0.00978873       3.05476591       34      -0.00218643      -0.00790451      -0.00068171
O        0.94944988      -1.91597395       6.55378890       35      -0.00389842       0.00575319      -0.00440790
O       -0.65346580       1.70668160       3.15347257       36      -0.00672363       0.00175774      -0.00440790
O       -0.94944988      -0.74421401       5.01792867       37       0.00389842       0.00669395       0.00277846
O       -0.38516841       4.91726434       1.51890567       38       0.00501164      -0.00054718       0.00650465
O        3.56460923       4.61357279       4.91922200       39       0.00218643      -0.00454263       0.00650465
