40
Lattice="8.068585114333764 6.323966057992418e-10 4.6298795526682316e-15 -2.689528372040817 7.60713499835752 -1.095345336904214e-09 -2.689528371146477 -3.803567498546364 6.587972159325534" Properties=species:S:1:pos:R:3:spacegroup_kinds:I:1:forces:R:3 spacegroup="P 1" unit_cell=conventional occupancy="_JSON {\"0\": {\"In\": 1}, \"1\": {\"In\": 1}, \"2\": {\"In\": 1}, \"3\": {\"In\": 1}, \"4\": {\"In\": 1}, \"5\": {\"In\": 1}, \"6\": {\"In\": 1}, \"7\": {\"In\": 1}, \"8\": {\"In\": 1}, \"9\": {\"In\": 1}, \"10\": {\"In\": 1}, \"11\": {\"In\": 1}, \"12\": {\"In\": 1}, \"13\": {\"In\": 1}, \"14\": {\"In\": 1}, \"15\": {\"In\": 1}, \"16\": {\"O\": 1}, \"17\": {\"O\": 1}, \"18\": {\"O\": 1}, \"19\": {\"O\": 1}, \"20\": {\"O\": 1}, \"21\": {\"O\": 1}, \"22\": {\"O\": 1}, \"23\": {\"O\": 1}, \"24\": {\"O\": 1}, \"25\": {\"O\": 1}, \"26\": {\"O\": 1}, \"27\": {\"O\": 1}, \"28\": {\"O\": 1}, \"29\": {\"O\": 1}, \"30\": {\"O\": 1}, \"31\": {\"O\": 1}, \"32\": {\"O\": 1}, \"33\": {\"O\": 1}, \"34\": {\"O\": 1}, \"35\": {\"O\": 1}, \"36\": {\"O\": 1}, \"37\": {\"O\": 1}, \"38\": {\"O\": 1}, \"39\": {\"O\": 1}}" n_minim_iter=1 energy=-45151.72419595811 stress="-0.017363972288995316 1.0651895991696788e-14 6.85569325794701e-13 1.0651895991696788e-14 -0.017363972288590577 2.4982918859585374e-14 6.85569325794701e-13 2.4982918859585374e-14 -0.017363972289237226" free_energy=-45151.72419595811 pbc="T T T"
In      -3.83298017       2.71032627       5.18753544        0      -0.02184060       0.01544364      -0.02674916
In       6.52250853       1.09324123       1.40043672        1       0.02184060      -0.01544364       0.02674916
In       1.14345179      -0.80854251       4.69442280        2       0.02184060      -0.01544364       0.02674916
In      -1.34476419      -1.90178375       3.29398608        3       0.00000000       0.00000000      -0.00000000
In      -1.14345179       3.66121814       3.04742976        4      -0.02184060       0.01544364       0.02674916
In       4.23560495      -2.56797691       4.94097912        5      -0.02184060      -0.03088727       0.00000000
In      -1.14345179       1.23559059       4.94097912        6      -0.02184060      -0.03088727       0.00000000
In      -1.54607658       6.37154441       1.64699304        7       0.02184060       0.03088727      -0.00000000
In       3.83298016       0.14234936       3.54054240        8       0.02184060      -0.01544364      -0.02674916
In      -1.34476419       3.80356750      -0.00000000        9      -0.00000000      -0.00000000      -0.00000000
In       3.83298016       5.84770061       0.24655632       10       0.02184060      -0.01544364      -0.02674916
In      -1.14345179      -2.04413311       6.34141584       11      -0.02184060       0.01544364       0.02674916
In       3.83298016       2.56797691       1.64699304       12       0.02184060       0.03088727       0.00000000
In       1.54607658       4.61211002       1.89354936       13      -0.02184060       0.01544364      -0.02674916
In       4.03429256       0.00000000      -0.00000000       14      -0.00000000      -0.00000000       0.00000000
In       1.34476418       1.90178375       3.29398608       15       0.00000000       0.00000000       0.00000000
O        0.76230076       3.79543457       3.64438703       16       0.02173665       0.05742348       0.11469202
O       -1.92722761       3.16019822       4.77282196       17       0.02173665       0.07061446      -0.10707620
O       -0.36014192       2.05210130       0.10412996       18       0.12796088      -0.00449741       0.02302138
O       -0.76230077      -0.65150221       1.82923684       19      -0.02173665       0.12803794       0.00761581
O        3.62187265       4.51518917       1.72510687       20       0.05933040      -0.11474655      -0.01540556
O        1.75718409       2.66539196       1.47883588       21      -0.05933040      -0.04403167      -0.10707620
O        1.75718409       5.65336472       0.24627099       22      -0.05933040      -0.07071488       0.09167064
O       -2.05478697       5.36086254       3.39811604       23       0.04689383      -0.11914354       0.02302138
O        3.04967029       1.75146620       6.48384219       24      -0.12796088       0.00449741      -0.02302138
O        4.74431534      -1.55729504       3.18985611       25      -0.04689383       0.11914354      -0.02302138
O        5.73919866       3.01801360       1.56887920       26      -0.12796088       0.01768839       0.01540556
O        3.32426977       2.16420730       3.54025707       27       0.04689383       0.07950887       0.09167064
O        0.63474140       3.88563266       6.23757120       28       0.04689383       0.03963467      -0.11469202
O        2.05478697      -0.08206516       0.35040095       29      -0.04689383      -0.03963467       0.11469202
O       -3.04967029       0.78555391       5.01909295       30       0.12796088      -0.01768839      -0.01540556
O        4.61675598       0.64336928       1.81515019       31      -0.02173665      -0.07061446       0.10707620
O        0.93234428       1.13817554       5.10913627       32       0.05933040       0.04403167       0.10707620
O        3.04967029      -0.96591229       5.12322292       33      -0.12796088      -0.02218580       0.00761581
O        1.92722761       0.00813293       2.94358512       34      -0.02173665      -0.05742348      -0.11469202
O        0.93234428      -1.84979721       6.34170117       35       0.05933040       0.07071488      -0.09167064
O       -0.63474141       1.63936020       3.04771509       36      -0.04689383      -0.07950887      -0.09167064
O       -0.93234428      -0.71162167       4.86286528       37      -0.05933040       0.11474655       0.01540556
O       -0.36014192       4.76947979       1.46474924       38       0.12796088       0.02218580      -0.00761581
O        3.45182913       4.45506971       4.75873532       39       0.02173665      -0.12803794      -0.00761581
40
Lattice="8.068585114333764 6.323966057992417e-10 4.629879552668236e-15 -2.6895283720408165 7.6071349983575205 -1.0953453369042142e-09 -2.6895283711464764 -3.8035674985463643 6.5879721593255365" Properties=species:S:1:pos:R:3:spacegroup_kinds:I:1:forces:R:3 spacegroup="P 1" unit_cell=conventional occupancy="_JSON {\"0\": {\"In\": 1}, \"1\": {\"In\": 1}, \"2\": {\"In\": 1}, \"3\": {\"In\": 1}, \"4\": {\"In\": 1}, \"5\": {\"In\": 1}, \"6\": {\"In\": 1}, \"7\": {\"In\": 1}, \"8\": {\"In\": 1}, \"9\": {\"In\": 1}, \"10\": {\"In\": 1}, \"11\": {\"In\": 1}, \"12\": {\"In\": 1}, \"13\": {\"In\": 1}, \"14\": {\"In\": 1}, \"15\": {\"In\": 1}, \"16\": {\"O\": 1}, \"17\": {\"O\": 1}, \"18\": {\"O\": 1}, \"19\": {\"O\": 1}, \"20\": {\"O\": 1}, \"21\": {\"O\": 1}, \"22\": {\"O\": 1}, \"23\": {\"O\": 1}, \"24\": {\"O\": 1}, \"25\": {\"O\": 1}, \"26\": {\"O\": 1}, \"27\": {\"O\": 1}, \"28\": {\"O\": 1}, \"29\": {\"O\": 1}, \"30\": {\"O\": 1}, \"31\": {\"O\": 1}, \"32\": {\"O\": 1}, \"33\": {\"O\": 1}, \"34\": {\"O\": 1}, \"35\": {\"O\": 1}, \"36\": {\"O\": 1}, \"37\": {\"O\": 1}, \"38\": {\"O\": 1}, \"39\": {\"O\": 1}}" n_minim_iter=2 energy=-45151.72803227184 stress="-0.016821564908449164 1.3899411864203996e-13 -6.065024181699747e-13 1.3899411864203996e-13 -0.016821564907493553 7.155517387802996e-14 -6.065024181699747e-13 7.155517387802996e-14 -0.016821564907396648" free_energy=-45151.72803227184 pbc="T T T"
In      -3.83329217       2.71054689       5.18715331        0       0.03368324      -0.02381765       0.04125337
In       6.52282054       1.09302061       1.40081885        1      -0.03368324       0.02381765      -0.04125337
In       1.14376380      -0.80876314       4.69480493        2      -0.03368324       0.02381765      -0.04125337
In      -1.34476419      -1.90178375       3.29398608        3      -0.00000000       0.00000000      -0.00000000
In      -1.14376380       3.66143877       3.04781189        4       0.03368324      -0.02381765      -0.04125337
In       4.23529294      -2.56841815       4.94097912        5       0.03368324       0.04763529      -0.00000000
In      -1.14376380       1.23514935       4.94097912        6       0.03368324       0.04763529      -0.00000000
In      -1.54576457       6.37198566       1.64699304        7      -0.03368324      -0.04763529      -0.00000000
In       3.83329217       0.14212874       3.54016027        8      -0.03368324       0.02381765       0.04125337
In      -1.34476419       3.80356750      -0.00000000        9       0.00000000       0.00000000      -0.00000000
In       3.83329217       5.84747999       0.24617419       10      -0.03368324       0.02381765       0.04125337
In      -1.14376380      -2.04391248       6.34179797       11       0.03368324      -0.02381765      -0.04125337
In       3.83329217       2.56841816       1.64699304       12      -0.03368324      -0.04763529      -0.00000000
In       1.54576457       4.61233064       1.89316723       13       0.03368324      -0.02381765       0.04125337
In       4.03429256       0.00000000      -0.00000000       14       0.00000000      -0.00000000       0.00000000
In       1.34476418       1.90178375       3.29398608       15      -0.00000000      -0.00000000       0.00000000
O        0.76261129       3.79625491       3.64602549       16      -0.00327498       0.00925408       0.04676777
O       -1.92691708       3.16120700       4.77129230       17      -0.00327498       0.03587503      -0.03139816
O       -0.35831391       2.05203705       0.10445884       18       0.04145648       0.00424512       0.02338647
O       -0.76261129      -0.64967310       1.82934563       19       0.00327498       0.04512912       0.01536961
O        3.62272023       4.51354994       1.72488679       20       0.03491496      -0.03162693      -0.00801686
O        1.75633651       2.66476293       1.47730622       21      -0.03491496      -0.00887067      -0.03139816
O        1.75633651       5.65235450       0.24758057       22      -0.03491496      -0.02275627       0.02338130
O       -2.05411706       5.35916049       3.39844492       23       0.00981649      -0.04050058       0.02338647
O        3.04784228       1.75153045       6.48351332       24      -0.04145648      -0.00424512      -0.02338647
O        4.74364543      -1.55559299       3.18952724       25      -0.00981649       0.04050058      -0.02338647
O        5.73737065       3.01826629       1.56909928       26      -0.04145648       0.02237583       0.00801686
O        3.32493969       2.16534314       3.54156665       27       0.00981649       0.04050357       0.02338130
O        0.63541131       3.88619887       6.23593274       28       0.00981649      -0.00000298      -0.04676777
O        2.05411705      -0.08263137       0.35203941       29      -0.00981649       0.00000298       0.04676777
O       -3.04784228       0.78530122       5.01887287       30       0.04145648      -0.02237583      -0.00801686
O        4.61644545       0.64236051       1.81667985       31       0.00327498      -0.03587503       0.03139816
O        0.93319186       1.13880457       5.11066593       32       0.03491496       0.00887067       0.03139816
O        3.04784228      -0.96622923       5.12333171       33      -0.04145648      -0.01813072       0.01536961
O        1.92691708       0.00731259       2.94194667       34       0.00327498      -0.00925408      -0.04676777
O        0.93319186      -1.84878700       6.34039158       35       0.03491496       0.02275627      -0.02338130
O       -0.63541132       1.63822436       3.04640551       36      -0.00981649      -0.04050357      -0.02338130
O       -0.93319186      -0.70998243       4.86308536       37      -0.03491496       0.03162693       0.00801686
O       -0.35831391       4.76979673       1.46464044       38       0.04145648       0.01813072      -0.01536961
O        3.45213966       4.45324060       4.75862652       39      -0.00327498      -0.04512912      -0.01536961
40
Lattice="8.068585114333764 6.323966057992417e-10 4.6298795526682355e-15 -2.6895283720408174 7.60713499835752 -1.0953453369042146e-09 -2.6895283711464772 -3.803567498546364 6.58797215932554" Properties=species:S:1:pos:R:3:spacegroup_kinds:I:1:forces:R:3 spacegroup="P 1" unit_cell=conventional occupancy="_JSON {\"0\": {\"In\": 1}, \"1\": {\"In\": 1}, \"2\": {\"In\": 1}, \"3\": {\"In\": 1}, \"4\": {\"In\": 1}, \"5\": {\"In\": 1}, \"6\": {\"In\": 1}, \"7\": {\"In\": 1}, \"8\": {\"In\": 1}, \"9\": {\"In\": 1}, \"10\": {\"In\": 1}, \"11\": {\"In\": 1}, \"12\": {\"In\": 1}, \"13\": {\"In\": 1}, \"14\": {\"In\": 1}, \"15\": {\"In\": 1}, \"16\": {\"O\": 1}, \"17\": {\"O\": 1}, \"18\": {\"O\": 1}, \"19\": {\"O\": 1}, \"20\": {\"O\": 1}, \"21\": {\"O\": 1}, \"22\": {\"O\": 1}, \"23\": {\"O\": 1}, \"24\": {\"O\": 1}, \"25\": {\"O\": 1}, \"26\": {\"O\": 1}, \"27\": {\"O\": 1}, \"28\": {\"O\": 1}, \"29\": {\"O\": 1}, \"30\": {\"O\": 1}, \"31\": {\"O\": 1}, \"32\": {\"O\": 1}, \"33\": {\"O\": 1}, \"34\": {\"O\": 1}, \"35\": {\"O\": 1}, \"36\": {\"O\": 1}, \"37\": {\"O\": 1}, \"38\": {\"O\": 1}, \"39\": {\"O\": 1}}" n_minim_iter=3 energy=-45151.73170092694 stress="-0.015604259455448107 -4.547466713782784e-13 -2.069344130833579e-14 -4.547466713782784e-13 -0.015604259454851367 1.8273070034874508e-13 -2.069344130833579e-14 1.8273070034874508e-13 -0.015604259455904629" free_energy=-45151.73170092694 pbc="T T T"
In      -3.83150567       2.70928364       5.18934132        0       0.08348500      -0.05903281       0.10224783
In       6.52103403       1.09428386       1.39863083        1      -0.08348500       0.05903281      -0.10224783
In       1.14197729      -0.80749989       4.69261691        2      -0.08348500       0.05903281      -0.10224783
In      -1.34476419      -1.90178375       3.29398608        3       0.00000000       0.00000000      -0.00000000
In      -1.14197729       3.66017551       3.04562387        4       0.08348500      -0.05903281      -0.10224783
In       4.23707945      -2.56589165       4.94097912        5       0.08348500       0.11806562       0.00000000
In      -1.14197729       1.23767585       4.94097912        6       0.08348500       0.11806562      -0.00000000
In      -1.54755108       6.36945915       1.64699304        7      -0.08348500      -0.11806562       0.00000000
In       3.83150566       0.14339199       3.54234829        8      -0.08348500       0.05903281       0.10224783
In      -1.34476419       3.80356750      -0.00000000        9      -0.00000000      -0.00000000      -0.00000000
In       3.83150566       5.84874324       0.24836221       10      -0.08348500       0.05903281       0.10224783
In      -1.14197729      -2.04517574       6.33960995       11       0.08348500      -0.05903281      -0.10224783
In       3.83150566       2.56589165       1.64699304       12      -0.08348500      -0.11806562       0.00000000
In       1.54755108       4.61106739       1.89535524       13       0.08348500      -0.05903281       0.10224783
In       4.03429256       0.00000000      -0.00000000       14       0.00000000       0.00000000      -0.00000000
In       1.34476418       1.90178375       3.29398608       15      -0.00000000      -0.00000000       0.00000000
O        0.76269146       3.79756669       3.65038308       16      -0.01721966      -0.05417704      -0.03480938
O       -1.92683691       3.16432489       4.76797747       17      -0.01721966      -0.00305729       0.06432338
O       -0.35411085       2.05223962       0.10619349       18      -0.05970093       0.02698150       0.01229467
O       -0.76269146      -0.64524342       1.83038839       19       0.01721966      -0.05723433       0.02951400
O        3.62563308       4.51012177       1.72419490       20       0.00285745       0.06433266       0.01721933
O        1.75342366       2.66364805       1.47399139       21      -0.00285745       0.01725395       0.06432338
O        1.75342366       5.65004122       0.25020350       22      -0.00285745       0.04707871      -0.04710405
O       -2.05290702       5.35513028       3.40017957       23      -0.04533871       0.04729274       0.01229467
O        3.04363921       1.75132788       6.48177866       24       0.05970093      -0.02698150      -0.01229467
O        4.74243539      -1.55156278       3.18779258       25       0.04533871      -0.04729274      -0.01229467
O        5.73316759       3.01986983       1.56979118       26       0.05970093       0.02413824      -0.01721933
O        3.32614972       2.16886050       3.54418958       27      -0.04533871      -0.01299888      -0.04710405
O        0.63662135       3.88671172       6.23157515       28      -0.04533871      -0.03429387       0.03480938
O        2.05290702      -0.08314422       0.35639700       29       0.04533871       0.03429387      -0.03480938
O       -3.04363922       0.78369768       5.01818098       30      -0.05970093      -0.02413824       0.01721933
O        4.61636528       0.63924261       1.81999469       31       0.01721966       0.00305729      -0.06432338
O        0.93610471       1.13991945       5.11398076       32       0.00285745      -0.01725395      -0.06432338
O        3.04363921      -0.96763020       5.12437447       33       0.05970093       0.00284325       0.02951400
O        1.92683691       0.00600081       2.93758907       34       0.01721966       0.05417704       0.03480938
O        0.93610471      -1.84647371       6.33776865       35       0.00285745      -0.04707871       0.04710405
O       -0.63662135       1.63470700       3.04378257       36       0.04533871       0.01299888       0.04710405
O       -0.93610471      -0.70655426       4.86377726       37      -0.00285745      -0.06433266      -0.01721933
O       -0.35411085       4.77119771       1.46359768       38      -0.05970093      -0.00284325      -0.02951400
O        3.45221983       4.44881092       4.75758376       39      -0.01721966       0.05723433      -0.02951400
40
Lattice="8.06858511433376 6.323966057992413e-10 4.629879552668243e-15 -2.6895283720408165 7.607134998357514 -1.0953453369042142e-09 -2.6895283711464764 -3.8035674985463612 6.58797215932554" Properties=species:S:1:pos:R:3:spacegroup_kinds:I:1:forces:R:3 spacegroup="P 1" unit_cell=conventional occupancy="_JSON {\"0\": {\"In\": 1}, \"1\": {\"In\": 1}, \"2\": {\"In\": 1}, \"3\": {\"In\": 1}, \"4\": {\"In\": 1}, \"5\": {\"In\": 1}, \"6\": {\"In\": 1}, \"7\": {\"In\": 1}, \"8\": {\"In\": 1}, \"9\": {\"In\": 1}, \"10\": {\"In\": 1}, \"11\": {\"In\": 1}, \"12\": {\"In\": 1}, \"13\": {\"In\": 1}, \"14\": {\"In\": 1}, \"15\": {\"In\": 1}, \"16\": {\"O\": 1}, \"17\": {\"O\": 1}, \"18\": {\"O\": 1}, \"19\": {\"O\": 1}, \"20\": {\"O\": 1}, \"21\": {\"O\": 1}, \"22\": {\"O\": 1}, \"23\": {\"O\": 1}, \"24\": {\"O\": 1}, \"25\": {\"O\": 1}, \"26\": {\"O\": 1}, \"27\": {\"O\": 1}, \"28\": {\"O\": 1}, \"29\": {\"O\": 1}, \"30\": {\"O\": 1}, \"31\": {\"O\": 1}, \"32\": {\"O\": 1}, \"33\": {\"O\": 1}, \"34\": {\"O\": 1}, \"35\": {\"O\": 1}, \"36\": {\"O\": 1}, \"37\": {\"O\": 1}, \"38\": {\"O\": 1}, \"39\": {\"O\": 1}}" n_minim_iter=4 energy=-45151.73958487775 stress="-0.013939802773741265 9.112373587205563e-14 -4.624503237582934e-13 9.112373587205563e-14 -0.013939802773964557 1.1203435549076964e-13 -4.624503237582934e-13 1.1203435549076964e-13 -0.0139398027731122" free_energy=-45151.73958487775 pbc="T T T"
In      -3.82455005       2.70436527       5.19786018        0      -0.00333219       0.00235622      -0.00408109
In       6.51407842       1.09920223       1.39011197        1       0.00333219      -0.00235622       0.00408109
In       1.13502167      -0.80258152       4.68409805        2       0.00333219      -0.00235622       0.00408109
In      -1.34476419      -1.90178375       3.29398608        3      -0.00000000       0.00000000      -0.00000000
In      -1.13502168       3.65525715       3.03710501        4      -0.00333219       0.00235622       0.00408109
In       4.24403507      -2.55605492       4.94097912        5      -0.00333219      -0.00471244       0.00000000
In      -1.13502168       1.24751258       4.94097912        6      -0.00333219      -0.00471244       0.00000000
In      -1.55450670       6.35962242       1.64699304        7       0.00333219       0.00471244      -0.00000000
In       3.82455004       0.14831035       3.55086714        8       0.00333219      -0.00235622      -0.00408109
In      -1.34476419       3.80356750      -0.00000000        9       0.00000000      -0.00000000       0.00000000
In       3.82455004       5.85366160       0.25688106       10       0.00333219      -0.00235622      -0.00408109
In      -1.13502168      -2.05009410       6.33109109       11      -0.00333219       0.00235622       0.00408109
In       3.82455004       2.55605492       1.64699304       12       0.00333219       0.00471244       0.00000000
In       1.55450670       4.60614902       1.90387410       13      -0.00333219       0.00235622      -0.00408109
In       4.03429256       0.00000000      -0.00000000       14      -0.00000000       0.00000000       0.00000000
In       1.34476418       1.90178375       3.29398608       15       0.00000000       0.00000000      -0.00000000
O        0.76226431       3.79743803       3.65690438       16       0.03749151      -0.02377337       0.00724739
O       -1.92726407       3.17003684       4.76482824       17       0.03749151       0.01816311       0.01696465
O       -0.34898926       2.05402802       0.10984006       18       0.00720776       0.03957695      -0.02012521
O       -0.76226431      -0.63966014       1.83376047       19      -0.03749151      -0.00561027       0.02421204
O        3.63116074       4.50664383       1.72392041       20       0.00462717      -0.00600903       0.04433725
O        1.74789600       2.66214679       1.47084216       21      -0.00462717      -0.04140170       0.01696465
O        1.74789600       5.64806454       0.25307824       22      -0.00462717       0.03539267       0.02737260
O       -2.05288594       5.34970547       3.40382614       23      -0.03491092      -0.01998786      -0.02012521
O        3.03851763       1.74953948       6.47813210       24      -0.00720776      -0.03957695       0.02012521
O        4.74241431      -1.54613797       3.18414602       25       0.03491092       0.01998786       0.02012521
O        5.72804600       3.02392204       1.57006566       26      -0.00720776       0.00235953      -0.04433725
O        3.32617080       2.17473092       3.54706432       27      -0.03491092      -0.00743502       0.02737260
O        0.63664243       3.88626611       6.22505385       28      -0.03491092       0.02742287      -0.00724739
O        2.05288594      -0.08269860       0.36291830       29       0.03491092      -0.02742287       0.00724739
O       -3.03851763       0.77964546       5.01790649       30       0.00720776      -0.00235953       0.04433725
O        4.61679243       0.63353067       1.82314391       31      -0.03749151      -0.01816311      -0.01696465
O        0.94163237       1.14142071       5.11712999       32       0.00462717       0.04140170      -0.01696465
O        3.03851763      -0.96989402       5.12774655       33      -0.00720776       0.03721742       0.02421204
O        1.92726406       0.00612948       2.93106777       34      -0.03749151       0.02377337      -0.00724739
O        0.94163237      -1.84449703       6.33489391       35       0.00462717      -0.03539267      -0.02737260
O       -0.63664243       1.62883658       3.04090783       36       0.03491092       0.00743502      -0.02737260
O       -0.94163237      -0.70307633       4.86405174       37      -0.00462717       0.00600903      -0.04433725
O       -0.34898926       4.77346152       1.46022560       38       0.00720776      -0.03721742      -0.02421204
O        3.45179268       4.44322764       4.75421168       39       0.03749151       0.00561027      -0.02421204
40
Lattice="8.068585114333757 6.323966057992411e-10 4.629879552668238e-15 -2.6895283720408156 7.607134998357513 -1.0953453369042138e-09 -2.6895283711464755 -3.803567498546361 6.58797215932554" Properties=species:S:1:pos:R:3:spacegroup_kinds:I:1:forces:R:3 spacegroup="P 1" unit_cell=conventional occupancy="_JSON {\"0\": {\"In\": 1}, \"1\": {\"In\": 1}, \"2\": {\"In\": 1}, \"3\": {\"In\": 1}, \"4\": {\"In\": 1}, \"5\": {\"In\": 1}, \"6\": {\"In\": 1}, \"7\": {\"In\": 1}, \"8\": {\"In\": 1}, \"9\": {\"In\": 1}, \"10\": {\"In\": 1}, \"11\": {\"In\": 1}, \"12\": {\"In\": 1}, \"13\": {\"In\": 1}, \"14\": {\"In\": 1}, \"15\": {\"In\": 1}, \"16\": {\"O\": 1}, \"17\": {\"O\": 1}, \"18\": {\"O\": 1}, \"19\": {\"O\": 1}, \"20\": {\"O\": 1}, \"21\": {\"O\": 1}, \"22\": {\"O\": 1}, \"23\": {\"O\": 1}, \"24\": {\"O\": 1}, \"25\": {\"O\": 1}, \"26\": {\"O\": 1}, \"27\": {\"O\": 1}, \"28\": {\"O\": 1}, \"29\": {\"O\": 1}, \"30\": {\"O\": 1}, \"31\": {\"O\": 1}, \"32\": {\"O\": 1}, \"33\": {\"O\": 1}, \"34\": {\"O\": 1}, \"35\": {\"O\": 1}, \"36\": {\"O\": 1}, \"37\": {\"O\": 1}, \"38\": {\"O\": 1}, \"39\": {\"O\": 1}}" n_minim_iter=5 energy=-45151.74093999654 stress="-0.013716614324283533 -4.880839538638918e-13 2.309544440358687e-13 -4.880839538638918e-13 -0.013716614324512983 5.745093898027092e-14 2.309544440358687e-13 5.745093898027092e-14 -0.013716614325402705" free_energy=-45151.74093999654 pbc="T T T"
In      -3.82362168       2.70370882       5.19899720        0      -0.00009268       0.00006554      -0.00011351
In       6.51315005       1.09985868       1.38897496        1       0.00009268      -0.00006554       0.00011351
In       1.13409330      -0.80192507       4.68296104        2       0.00009268      -0.00006554       0.00011351
In      -1.34476419      -1.90178375       3.29398608        3      -0.00000000      -0.00000000       0.00000000
In      -1.13409331       3.65460069       3.03596800        4      -0.00009268       0.00006554       0.00011351
In       4.24496344      -2.55474201       4.94097912        5      -0.00009268      -0.00013107       0.00000000
In      -1.13409331       1.24882549       4.94097912        6      -0.00009268      -0.00013107      -0.00000000
In      -1.55543507       6.35830951       1.64699304        7       0.00009268       0.00013107      -0.00000000
In       3.82362168       0.14896681       3.55200416        8       0.00009268      -0.00006554      -0.00011351
In      -1.34476419       3.80356750      -0.00000000        9      -0.00000000      -0.00000000      -0.00000000
In       3.82362168       5.85431806       0.25801808       10       0.00009268      -0.00006554      -0.00011351
In      -1.13409331      -2.05075056       6.32995408       11      -0.00009268       0.00006554       0.00011351
In       3.82362168       2.55474201       1.64699304       12       0.00009268       0.00013107      -0.00000000
In       1.55543506       4.60549257       1.90501112       13      -0.00009268       0.00006554      -0.00011351
In       4.03429256       0.00000000      -0.00000000       14       0.00000000       0.00000000      -0.00000000
In       1.34476418       1.90178375       3.29398608       15       0.00000000      -0.00000000       0.00000000
O        0.76426341       3.79604354       3.65822916       16       0.00478464       0.00739028       0.00067183
O       -1.92526496       3.17188137       4.76537352       17       0.00478464      -0.00311332      -0.00673609
O       -0.34789859       2.05651491       0.10927274       18       0.00562724      -0.00370912      -0.00570412
O       -0.76426341      -0.63921009       1.83563052       19      -0.00478464       0.00427696      -0.00606425
O        3.63223342       4.50586624       1.72635778       20      -0.00453014      -0.00757024      -0.00036014
O        1.74682332       2.65964717       1.47138744       21       0.00453014      -0.00347323      -0.00673609
O        1.74682332       5.64978657       0.25497034       22       0.00453014      -0.00409701       0.00637595
O       -2.05486705       5.34784821       3.40325882       23       0.00537274      -0.00406904      -0.00570412
O        3.03742695       1.74705259       6.47869941       24      -0.00562724       0.00370912       0.00570412
O        4.74439542      -1.54428071       3.18471334       25      -0.00537274       0.00406904       0.00570412
O        5.72695533       3.02467418       1.56762829       26      -0.00562724      -0.00679447       0.00036014
O        3.32418970       2.17516824       3.54895642       27       0.00537274      -0.00290539       0.00637595
O        0.63466132       3.88768605       6.22372907       28       0.00537274       0.00697443      -0.00067183
O        2.05486704      -0.08411855       0.36424308       29      -0.00537274      -0.00697443       0.00067183
O       -3.03742696       0.77889333       5.02034386       30       0.00562724       0.00679447      -0.00036014
O        4.61479333       0.63168613       1.82259864       31      -0.00478464       0.00311332       0.00673609
O        0.94270505       1.14392033       5.11658472       32      -0.00453014       0.00347323       0.00673609
O        3.03742695      -0.96815926       5.12961660       33      -0.00562724       0.00308535      -0.00606425
O        1.92526496       0.00752397       2.92974299       34      -0.00478464      -0.00739028      -0.00067183
O        0.94270505      -1.84621906       6.33300181       35      -0.00453014       0.00409701      -0.00637595
O       -0.63466133       1.62839926       3.03901573       36      -0.00537274       0.00290539      -0.00637595
O       -0.94270505      -0.70229874       4.86161437       37       0.00453014       0.00757024       0.00036014
O       -0.34789859       4.77172677       1.45835555       38       0.00562724      -0.00308535       0.00606425
O        3.45379178       4.44277759       4.75234163       39       0.00478464      -0.00427696       0.00606425
