40
Lattice="8.65281744392497 6.781869212946588e-10 -7.951321247681214e-16 -2.884272481947723 8.157954521065397 -1.1746546888609687e-09 -2.8842724809886255 -4.07897725985451 7.064995858943855" Properties=species:S:1:pos:R:3:spacegroup_kinds:I:1:forces:R:3 spacegroup="P 1" unit_cell=conventional occupancy="_JSON {\"0\": {\"In\": 1}, \"1\": {\"In\": 1}, \"2\": {\"In\": 1}, \"3\": {\"In\": 1}, \"4\": {\"In\": 1}, \"5\": {\"In\": 1}, \"6\": {\"In\": 1}, \"7\": {\"In\": 1}, \"8\": {\"In\": 1}, \"9\": {\"In\": 1}, \"10\": {\"In\": 1}, \"11\": {\"In\": 1}, \"12\": {\"In\": 1}, \"13\": {\"In\": 1}, \"14\": {\"In\": 1}, \"15\": {\"In\": 1}, \"16\": {\"O\": 1}, \"17\": {\"O\": 1}, \"18\": {\"O\": 1}, \"19\": {\"O\": 1}, \"20\": {\"O\": 1}, \"21\": {\"O\": 1}, \"22\": {\"O\": 1}, \"23\": {\"O\": 1}, \"24\": {\"O\": 1}, \"25\": {\"O\": 1}, \"26\": {\"O\": 1}, \"27\": {\"O\": 1}, \"28\": {\"O\": 1}, \"29\": {\"O\": 1}, \"30\": {\"O\": 1}, \"31\": {\"O\": 1}, \"32\": {\"O\": 1}, \"33\": {\"O\": 1}, \"34\": {\"O\": 1}, \"35\": {\"O\": 1}, \"36\": {\"O\": 1}, \"37\": {\"O\": 1}, \"38\": {\"O\": 1}, \"39\": {\"O\": 1}}" n_minim_iter=4 energy=-45151.91034763222 stress="0.0005239796044533349 -6.09272760636578e-13 1.5878534276000027e-14 -6.09272760636578e-13 0.0005239796057665115 -5.455767449530389e-13 1.5878534276000027e-14 -5.455767449530389e-13 0.0005239796047454234" free_energy=-45151.91034763222 pbc="T T T"
In      -4.12739518       2.91850912       5.54248770        0       0.00170099      -0.00120278       0.00208327
In       7.01166766       1.16046814       1.52250815        1      -0.00170099       0.00120278      -0.00208327
In       1.24312270      -0.87902049       5.05500608        2      -0.00170099       0.00120278      -0.00208327
In      -1.44213624      -2.03948863       3.53249793        3       0.00000000       0.00000000      -0.00000000
In      -1.24312270       3.93825344       3.28875711        4       0.00170099      -0.00120278      -0.00208327
In       4.52542226      -2.77778529       5.29874689        5       0.00170099       0.00240556      -0.00000000
In      -1.24312270       1.30119197       5.29874689        6       0.00170099       0.00240556      -0.00000000
In      -1.64114978       6.85676256       1.76624896        7      -0.00170099      -0.00240556       0.00000000
In       4.12739518       0.14072383       3.77623874        8      -0.00170099       0.00120278       0.00208327
In      -1.44213624       4.07897726      -0.00000000        9      -0.00000000       0.00000000       0.00000000
In       4.12739518       6.25918972       0.24374081       10      -0.00170099       0.00120278       0.00208327
In      -1.24312270      -2.18021245       6.82125504       11       0.00170099      -0.00120278      -0.00208327
In       4.12739518       2.77778530       1.76624896       12      -0.00170099      -0.00240556       0.00000000
In       1.64114978       4.95799775       2.00998978       13       0.00170099      -0.00120278       0.00208327
In       4.32640872       0.00000000      -0.00000000       14       0.00000000       0.00000000       0.00000000
In       1.44213624       2.03948863       3.53249793       15      -0.00000000       0.00000000       0.00000000
O        0.83090412       4.07270913       3.86829627       16       0.00048279       0.00651996       0.00021823
O       -2.05336836       3.35317691       5.13627608       17       0.00048279      -0.00307099      -0.00575557
O       -0.41323275       2.19342590       0.08002790       18       0.00341266      -0.00514271      -0.00216723
O       -0.83090413      -0.73206848       1.93957650       19      -0.00048279       0.00344897      -0.00553734
O        3.84586163       4.85724988       1.85954859       20      -0.00305628      -0.00470023      -0.00337010
O        1.92268333       2.85769725       1.60377815       21       0.00305628       0.00056848      -0.00575557
O        1.92268333       6.07852989       0.25577044       22       0.00305628      -0.00526871       0.00238547
O       -2.20572601       5.77692349       3.61252583       23       0.00598615      -0.00150325      -0.00216723
O        3.29750522       1.88555137       6.98496795       24      -0.00341266       0.00514271       0.00216723
O        5.08999849      -1.69794623       3.45247002       25      -0.00598615       0.00150325       0.00216723
O        6.18177770       3.20550778       1.67294933       26      -0.00341266      -0.00444824       0.00337010
O        3.56281895       2.27956603       3.78826837       27       0.00598615      -0.00112526       0.00238547
O        0.67854647       4.18044226       6.72919751       28       0.00598615       0.00262850      -0.00021823
O        2.20572601      -0.10146500       0.33579834       29      -0.00598615      -0.00262850       0.00021823
O       -3.29750523       0.87346949       5.39204652       30       0.00341266       0.00444824      -0.00337010
O        4.93764084       0.72580035       1.92871977       31      -0.00048279       0.00307099       0.00575557
O        0.96158914       1.22128002       5.46121770       32      -0.00305628      -0.00056848       0.00575557
O        3.29750522      -1.01208188       5.47207443       33      -0.00341266      -0.00069448      -0.00553734
O        2.05336836       0.00626813       3.19669958       34      -0.00048279      -0.00651996      -0.00021823
O        0.96158914      -1.99955263       6.80922542       35      -0.00305628       0.00526871      -0.00238547
O       -0.67854647       1.79941123       3.27672749       36      -0.00598615       0.00112526      -0.00238547
O       -0.96158915      -0.77827261       5.20544726       37       0.00305628       0.00470023       0.00337010
O       -0.41323275       5.09105914       1.59292143       38       0.00341266       0.00069448       0.00553734
O        3.71517660       4.81104575       5.12541936       39       0.00048279      -0.00344897       0.00553734
