40
Lattice="8.329039973393986 6.528088090017477e-10 4.691533060707076e-15 -2.7763466584134697 7.852694194396675 -1.130706890070453e-09 -2.776346657490261 -3.9263470965455234 6.800632661251899" Properties=species:S:1:pos:R:3:spacegroup_kinds:I:1:forces:R:3 spacegroup="P 1" unit_cell=conventional occupancy="_JSON {\"0\": {\"In\": 1}, \"1\": {\"In\": 1}, \"2\": {\"In\": 1}, \"3\": {\"In\": 1}, \"4\": {\"In\": 1}, \"5\": {\"In\": 1}, \"6\": {\"In\": 1}, \"7\": {\"In\": 1}, \"8\": {\"In\": 1}, \"9\": {\"In\": 1}, \"10\": {\"In\": 1}, \"11\": {\"In\": 1}, \"12\": {\"In\": 1}, \"13\": {\"In\": 1}, \"14\": {\"In\": 1}, \"15\": {\"In\": 1}, \"16\": {\"O\": 1}, \"17\": {\"O\": 1}, \"18\": {\"O\": 1}, \"19\": {\"O\": 1}, \"20\": {\"O\": 1}, \"21\": {\"O\": 1}, \"22\": {\"O\": 1}, \"23\": {\"O\": 1}, \"24\": {\"O\": 1}, \"25\": {\"O\": 1}, \"26\": {\"O\": 1}, \"27\": {\"O\": 1}, \"28\": {\"O\": 1}, \"29\": {\"O\": 1}, \"30\": {\"O\": 1}, \"31\": {\"O\": 1}, \"32\": {\"O\": 1}, \"33\": {\"O\": 1}, \"34\": {\"O\": 1}, \"35\": {\"O\": 1}, \"36\": {\"O\": 1}, \"37\": {\"O\": 1}, \"38\": {\"O\": 1}, \"39\": {\"O\": 1}}" n_minim_iter=1 energy=-45151.900070407675 stress="-0.00016838520711884658 2.3587746024635445e-13 -5.820176540878314e-13 2.3587746024635445e-13 -0.0001683852090008403 1.6826589104899481e-13 -5.820176540878314e-13 1.6826589104899481e-13 -0.00016838520879988857" free_energy=-45151.900070407675 pbc="T T T"
In      -3.96873698       2.80632083       5.34025872        0       0.00271289      -0.00191830       0.00332259
In       6.74508364       1.12002627       1.46037393        1      -0.00271289       0.00191830      -0.00332259
In       1.19239032      -0.84314728       4.86069026        2      -0.00271289       0.00191830      -0.00332259
In      -1.38817333      -1.96317355       3.40031633        3      -0.00000000      -0.00000000       0.00000000
In      -1.19239033       3.78790761       3.16053210        4       0.00271289      -0.00191830      -0.00332259
In       4.36030299      -2.66788134       5.10047449        5       0.00271289       0.00383660      -0.00000000
In      -1.19239033       1.25846576       5.10047449        6       0.00271289       0.00383660      -0.00000000
In      -1.58395634       6.59422844       1.70015816        7      -0.00271289      -0.00383660       0.00000000
In       3.96873698       0.13843949       3.64010056        8      -0.00271289       0.00191830       0.00332259
In      -1.38817333       3.92634710      -0.00000000        9      -0.00000000       0.00000000       0.00000000
In       3.96873698       6.02796014       0.23978423       10      -0.00271289       0.00191830       0.00332259
In      -1.19239033      -2.10161304       6.56084843       11       0.00271289      -0.00191830      -0.00332259
In       3.96873698       2.66788134       1.70015816       12      -0.00271289      -0.00383660      -0.00000000
In       1.58395633       4.76949438       1.93994239       13       0.00271289      -0.00191830       0.00332259
In       4.16451999       0.00000000      -0.00000000       14      -0.00000000       0.00000000      -0.00000000
In       1.38817333       1.96317355       3.40031633       15      -0.00000000      -0.00000000       0.00000000
O        0.79005769       3.91806001       3.73934481       16      -0.00432458      -0.00221662       0.05543569
O       -1.98628897       3.24251115       4.93813709       17      -0.00432458       0.04911702      -0.02579820
O       -0.38918730       2.11318973       0.09354650       18       0.04277660       0.01581146       0.03188873
O       -0.79005769      -0.69212304       1.87684924       19       0.00432458       0.04690040       0.02963749
O        3.71916515       4.67247924       1.78330273       20       0.04774950      -0.02848944      -0.00225124
O        1.83352817       2.75502770       1.53782076       21      -0.04774950      -0.01229509      -0.02579820
O        1.83352817       5.84379864       0.24548197       22      -0.04774950      -0.01619435       0.02354695
O       -2.12206348       5.55205338       3.49386283       23      -0.00064832      -0.04560065       0.03188873
O        3.16553396       1.81315737       6.70708615       24      -0.04277660      -0.01581146      -0.03188873
O        4.89841014      -1.62570628       3.30676982       25       0.00064832       0.04560065      -0.03188873
O        5.94188062       3.10078206       1.61701359       26      -0.04277660       0.03552218       0.00225124
O        3.43062983       2.21292083       3.64579830       27      -0.00064832       0.05041678       0.02354695
O        0.65428317       4.01406709       6.46160418       28      -0.00064832      -0.00481613      -0.05543569
O        2.12206348      -0.08771998       0.33902848       29       0.00064832       0.00481613       0.05543569
O       -3.16553396       0.82556504       5.18361906       30       0.04277660      -0.03552218      -0.00225124
O        4.76263562       0.68383595       1.86249557       31       0.00432458      -0.04911702       0.02579820
O        0.94281849       1.17131940       5.26281190       32       0.04774950       0.01229509       0.02579820
O        3.16553396      -0.98759233       5.27716557       33      -0.04277660      -0.01971072       0.02963749
O        1.98628897       0.00828709       3.06128785       34       0.00432458       0.00221662      -0.05543569
O        0.94281849      -1.91745154       6.55515068       35       0.04774950       0.01619435      -0.02354695
O       -0.65428318       1.71342627       3.15483435       36       0.00064832      -0.05041678      -0.02354695
O       -0.94281849      -0.74613214       5.01732992       37      -0.04774950       0.02848944       0.00225124
O       -0.38918730       4.91393943       1.52346709       38       0.04277660       0.01971072      -0.02963749
O        3.56640435       4.61847014       4.92378342       39      -0.00432458      -0.04690040      -0.02963749
40
Lattice="8.329039973393986 6.528088090017477e-10 4.691533060707076e-15 -2.7763466584134697 7.852694194396675 -1.130706890070453e-09 -2.776346657490261 -3.9263470965455234 6.800632661251899" Properties=species:S:1:pos:R:3:spacegroup_kinds:I:1:forces:R:3 spacegroup="P 1" unit_cell=conventional occupancy="_JSON {\"0\": {\"In\": 1}, \"1\": {\"In\": 1}, \"2\": {\"In\": 1}, \"3\": {\"In\": 1}, \"4\": {\"In\": 1}, \"5\": {\"In\": 1}, \"6\": {\"In\": 1}, \"7\": {\"In\": 1}, \"8\": {\"In\": 1}, \"9\": {\"In\": 1}, \"10\": {\"In\": 1}, \"11\": {\"In\": 1}, \"12\": {\"In\": 1}, \"13\": {\"In\": 1}, \"14\": {\"In\": 1}, \"15\": {\"In\": 1}, \"16\": {\"O\": 1}, \"17\": {\"O\": 1}, \"18\": {\"O\": 1}, \"19\": {\"O\": 1}, \"20\": {\"O\": 1}, \"21\": {\"O\": 1}, \"22\": {\"O\": 1}, \"23\": {\"O\": 1}, \"24\": {\"O\": 1}, \"25\": {\"O\": 1}, \"26\": {\"O\": 1}, \"27\": {\"O\": 1}, \"28\": {\"O\": 1}, \"29\": {\"O\": 1}, \"30\": {\"O\": 1}, \"31\": {\"O\": 1}, \"32\": {\"O\": 1}, \"33\": {\"O\": 1}, \"34\": {\"O\": 1}, \"35\": {\"O\": 1}, \"36\": {\"O\": 1}, \"37\": {\"O\": 1}, \"38\": {\"O\": 1}, \"39\": {\"O\": 1}}" n_minim_iter=2 energy=-45151.902320987625 stress="0.00014128378876405746 3.3579246230102357e-13 1.0181362121996359e-12 3.3579246230102357e-13 0.00014128378885970577 1.5109180666342816e-13 1.0181362121996359e-12 1.5109180666342816e-13 0.00014128378999688296" free_energy=-45151.902320987625 pbc="T T T"
In      -3.96857304       2.80620491       5.34045951        0       0.04040955      -0.02857387       0.04949139
In       6.74491969       1.12014219       1.46017314        1      -0.04040955       0.02857387      -0.04949139
In       1.19222638      -0.84303136       4.86048947        2      -0.04040955       0.02857387      -0.04949139
In      -1.38817333      -1.96317355       3.40031633        3       0.00000000      -0.00000000      -0.00000000
In      -1.19222638       3.78779168       3.16033131        4       0.04040955      -0.02857387      -0.04949139
In       4.36046693      -2.66764949       5.10047449        5       0.04040955       0.05714774       0.00000000
In      -1.19222638       1.25869761       5.10047449        6       0.04040955       0.05714774       0.00000000
In      -1.58412028       6.59399659       1.70015816        7      -0.04040955      -0.05714774      -0.00000000
In       3.96857304       0.13855542       3.64030135        8      -0.04040955       0.02857387       0.04949139
In      -1.38817333       3.92634710      -0.00000000        9       0.00000000      -0.00000000       0.00000000
In       3.96857304       6.02807606       0.23998502       10      -0.04040955       0.02857387       0.04949139
In      -1.19222638      -2.10172896       6.56064764       11       0.04040955      -0.02857387      -0.04949139
In       3.96857304       2.66764949       1.70015816       12      -0.04040955      -0.05714774       0.00000000
In       1.58412028       4.76937846       1.94014318       13       0.04040955      -0.02857387       0.04949139
In       4.16451999       0.00000000      -0.00000000       14      -0.00000000       0.00000000      -0.00000000
In       1.38817333       1.96317355       3.40031633       15       0.00000000       0.00000000      -0.00000000
O        0.78979635       3.91792605       3.74269488       16      -0.02224134      -0.02165078      -0.00555747
O       -1.98655031       3.24547937       4.93657806       17      -0.02224134       0.00601248       0.02152886
O       -0.38660224       2.11414524       0.09547359       18      -0.02215771       0.00595335       0.02163128
O       -0.78979635      -0.68928877       1.87864028       19       0.02224134      -0.01563830       0.01597139
O        3.72205073       4.67075758       1.78316668       20       0.01308240       0.02812712      -0.00565989
O        1.83064258       2.75428469       1.53626173       21      -0.01308240       0.01896517       0.02152886
O        1.83064258       5.84281999       0.24690495       22      -0.01308240       0.00916195      -0.02718875
O       -2.12210266       5.54929766       3.49578992       23      -0.01299877       0.01890604       0.02163128
O        3.16294890       1.81220186       6.70515907       24       0.02215771      -0.00595335      -0.02163128
O        4.89844932      -1.62295056       3.30484274       25       0.01299877      -0.01890604      -0.02163128
O        5.93929556       3.10292873       1.61714964       26       0.02215771       0.02170992       0.00565989
O        3.43059065       2.21596760       3.64722128       27      -0.01299877       0.00928022      -0.02718875
O        0.65424400       4.01377604       6.45825411       28      -0.01299877      -0.02818626       0.00555747
O        2.12210266      -0.08742894       0.34237855       29       0.01299877       0.02818626      -0.00555747
O       -3.16294890       0.82341837       5.18348302       30      -0.02215771      -0.02170992      -0.00565989
O        4.76289697       0.68086773       1.86405460       31       0.02224134      -0.00601248      -0.02152886
O        0.94570407       1.17206241       5.26437093       32       0.01308240      -0.01896517      -0.02152886
O        3.16294890      -0.98878348       5.27895661       33       0.02215771      -0.01575657       0.01597139
O        1.98655031       0.00842105       3.05793778       34       0.02224134       0.02165078       0.00555747
O        0.94570407      -1.91647289       6.55372770       35       0.01308240      -0.00916195       0.02718875
O       -0.65424400       1.71037950       3.15341137       36       0.01299877      -0.00928022       0.02718875
O       -0.94570407      -0.74441048       5.01746597       37      -0.01308240      -0.02812712       0.00565989
O       -0.38660224       4.91513058       1.52167605       38      -0.02215771       0.01575657      -0.01597139
O        3.56614300       4.61563588       4.92199238       39      -0.02224134       0.01563830      -0.01597139
40
Lattice="8.329039973393986 6.528088090017477e-10 4.691533060707076e-15 -2.7763466584134697 7.852694194396675 -1.130706890070453e-09 -2.776346657490261 -3.9263470965455234 6.800632661251899" Properties=species:S:1:pos:R:3:spacegroup_kinds:I:1:forces:R:3 spacegroup="P 1" unit_cell=conventional occupancy="_JSON {\"0\": {\"In\": 1}, \"1\": {\"In\": 1}, \"2\": {\"In\": 1}, \"3\": {\"In\": 1}, \"4\": {\"In\": 1}, \"5\": {\"In\": 1}, \"6\": {\"In\": 1}, \"7\": {\"In\": 1}, \"8\": {\"In\": 1}, \"9\": {\"In\": 1}, \"10\": {\"In\": 1}, \"11\": {\"In\": 1}, \"12\": {\"In\": 1}, \"13\": {\"In\": 1}, \"14\": {\"In\": 1}, \"15\": {\"In\": 1}, \"16\": {\"O\": 1}, \"17\": {\"O\": 1}, \"18\": {\"O\": 1}, \"19\": {\"O\": 1}, \"20\": {\"O\": 1}, \"21\": {\"O\": 1}, \"22\": {\"O\": 1}, \"23\": {\"O\": 1}, \"24\": {\"O\": 1}, \"25\": {\"O\": 1}, \"26\": {\"O\": 1}, \"27\": {\"O\": 1}, \"28\": {\"O\": 1}, \"29\": {\"O\": 1}, \"30\": {\"O\": 1}, \"31\": {\"O\": 1}, \"32\": {\"O\": 1}, \"33\": {\"O\": 1}, \"34\": {\"O\": 1}, \"35\": {\"O\": 1}, \"36\": {\"O\": 1}, \"37\": {\"O\": 1}, \"38\": {\"O\": 1}, \"39\": {\"O\": 1}}" n_minim_iter=3 energy=-45151.90466313624 stress="0.00044626199844728946 -9.161215618897073e-13 -4.3810051923530523e-13 -9.161215618897073e-13 0.00044626200002033037 -1.8124567095508205e-13 -4.3810051923530523e-13 -1.8124567095508205e-13 0.0004462619988036336" free_energy=-45151.90466313624 pbc="T T T"
In      -3.96610997       2.80446325       5.34347615        0       0.00326677      -0.00230996       0.00400096
In       6.74245662       1.12188385       1.45715651        1      -0.00326677       0.00230996      -0.00400096
In       1.18976331      -0.84128970       4.85747284        2      -0.00326677       0.00230996      -0.00400096
In      -1.38817333      -1.96317355       3.40031633        3       0.00000000       0.00000000      -0.00000000
In      -1.18976331       3.78605003       3.15731467        4       0.00326677      -0.00230996      -0.00400096
In       4.36293001      -2.66416618       5.10047449        5       0.00326677       0.00461991       0.00000000
In      -1.18976331       1.26218092       5.10047449        6       0.00326677       0.00461991      -0.00000000
In      -1.58658335       6.59051328       1.70015816        7      -0.00326677      -0.00461991       0.00000000
In       3.96610996       0.14029707       3.64331798        8      -0.00326677       0.00230996       0.00400096
In      -1.38817333       3.92634710      -0.00000000        9       0.00000000      -0.00000000       0.00000000
In       3.96610996       6.02981772       0.24300165       10      -0.00326677       0.00230996       0.00400096
In      -1.18976331      -2.10347062       6.55763100       11       0.00326677      -0.00230996      -0.00400096
In       3.96610996       2.66416618       1.70015816       12      -0.00326677      -0.00461991      -0.00000000
In       1.58658335       4.76763680       1.94315982       13       0.00326677      -0.00230996       0.00400096
In       4.16451999       0.00000000      -0.00000000       14       0.00000000      -0.00000000      -0.00000000
In       1.38817333       1.96317355       3.40031633       15       0.00000000       0.00000000      -0.00000000
O        0.78826257       3.91655838       3.74586675       16       0.00218643       0.00790451       0.00068171
O       -1.98808409       3.24891013       4.93617656       17       0.00218643      -0.00336188      -0.00718636
O       -0.38516841       2.11547758       0.09870667       18       0.00501164      -0.00535961      -0.00372620
O       -0.78826257      -0.68722569       1.88141066       19      -0.00218643       0.00454263      -0.00650465
O        3.72579654       4.67056111       1.78270399       20      -0.00389842      -0.00669395      -0.00277846
O        1.82689677       2.75458716       1.53586023       21       0.00389842      -0.00094076      -0.00718636
O        1.82689677       5.84232105       0.24684375       22       0.00389842      -0.00575319       0.00440790
O       -2.12288086       5.54750171       3.49902300       23       0.00672363      -0.00293849      -0.00372620
O        3.16151506       1.81086952       6.70192599       24      -0.00501164       0.00535961       0.00372620
O        4.89922751      -1.62115461       3.30160966       25      -0.00672363       0.00293849       0.00372620
O        5.93786172       3.10639482       1.61761234       26      -0.00501164      -0.00590678       0.00277846
O        3.42981246       2.21966550       3.64716008       27       0.00672363      -0.00175774       0.00440790
O        0.65346580       4.01187409       6.45508224       28       0.00672363       0.00469622      -0.00068171
O        2.12288086      -0.08552699       0.34555042       29      -0.00672363      -0.00469622       0.00068171
O       -3.16151507       0.81995228       5.18302032       30       0.00501164       0.00590678      -0.00277846
O        4.76443075       0.67743697       1.86445609       31      -0.00218643       0.00336188       0.00718636
O        0.94944988       1.17175994       5.26477242       32      -0.00389842       0.00094076       0.00718636
O        3.16151506      -0.99091724       5.28172699       33      -0.00501164       0.00054718      -0.00650465
O        1.98808409       0.00978873       3.05476591       34      -0.00218643      -0.00790451      -0.00068171
O        0.94944988      -1.91597395       6.55378890       35      -0.00389842       0.00575319      -0.00440790
O       -0.65346580       1.70668160       3.15347257       36      -0.00672363       0.00175774      -0.00440790
O       -0.94944988      -0.74421401       5.01792867       37       0.00389842       0.00669395       0.00277846
O       -0.38516841       4.91726434       1.51890567       38       0.00501164      -0.00054718       0.00650465
O        3.56460923       4.61357279       4.91922200       39       0.00218643      -0.00454263       0.00650465
