40
Lattice="9.026236945647746 7.074561650549754e-10 2.3247819594152935e-15 -3.0087456492162437 8.510017803582944 -1.2253498878487903e-09 -3.0087456482157546 -4.255008901084017 7.369891605377577" Properties=species:S:1:pos:R:3:spacegroup_kinds:I:1:forces:R:3 spacegroup="P 1" unit_cell=conventional occupancy="_JSON {\"0\": {\"In\": 1}, \"1\": {\"In\": 1}, \"2\": {\"In\": 1}, \"3\": {\"In\": 1}, \"4\": {\"In\": 1}, \"5\": {\"In\": 1}, \"6\": {\"In\": 1}, \"7\": {\"In\": 1}, \"8\": {\"In\": 1}, \"9\": {\"In\": 1}, \"10\": {\"In\": 1}, \"11\": {\"In\": 1}, \"12\": {\"In\": 1}, \"13\": {\"In\": 1}, \"14\": {\"In\": 1}, \"15\": {\"In\": 1}, \"16\": {\"O\": 1}, \"17\": {\"O\": 1}, \"18\": {\"O\": 1}, \"19\": {\"O\": 1}, \"20\": {\"O\": 1}, \"21\": {\"O\": 1}, \"22\": {\"O\": 1}, \"23\": {\"O\": 1}, \"24\": {\"O\": 1}, \"25\": {\"O\": 1}, \"26\": {\"O\": 1}, \"27\": {\"O\": 1}, \"28\": {\"O\": 1}, \"29\": {\"O\": 1}, \"30\": {\"O\": 1}, \"31\": {\"O\": 1}, \"32\": {\"O\": 1}, \"33\": {\"O\": 1}, \"34\": {\"O\": 1}, \"35\": {\"O\": 1}, \"36\": {\"O\": 1}, \"37\": {\"O\": 1}, \"38\": {\"O\": 1}, \"39\": {\"O\": 1}}" n_minim_iter=1 energy=-45151.89885191859 stress="0.0017344283733596586 1.0559780538938413e-13 -1.412966127299894e-13 1.0559780538938413e-13 0.0017344283735250946 -3.724861011987532e-14 -1.412966127299894e-13 -3.724861011987532e-14 0.0017344283726405494" free_energy=-45151.89885191859 pbc="T T T"
In      -4.30917914       3.04704979       5.77719235        0       0.03565960      -0.02521515       0.04367391
In       7.31792479       1.20795911       1.59269925        1      -0.03565960       0.02521515      -0.04367391
In       1.30043349      -0.91954534       5.27764505        2      -0.03565960       0.02521515      -0.04367391
In      -1.50437283      -2.12750445       3.68494580        3      -0.00000000      -0.00000000       0.00000000
In      -1.30043350       4.11080202       3.43517215        4       0.03565960      -0.02521515      -0.04367391
In       4.71705780      -2.90284291       5.52741870        5       0.03565960       0.05043029       0.00000000
In      -1.30043350       1.35216600       5.52741870        6       0.03565960       0.05043029       0.00000000
In      -1.70831216       7.15785181       1.84247290        7      -0.03565960      -0.05043029      -0.00000000
In       4.30917914       0.14420689       3.93471945        8      -0.03565960       0.02521515       0.04367391
In      -1.50437283       4.25500890      -0.00000000        9       0.00000000       0.00000000      -0.00000000
In       4.30917914       6.52672024       0.24977365       10      -0.03565960       0.02521515       0.04367391
In      -1.30043349      -2.27171133       7.12011795       11       0.03565960      -0.02521515      -0.04367391
In       4.30917914       2.90284291       1.84247290       12      -0.03565960      -0.05043029      -0.00000000
In       1.70831215       5.17455425       2.09224655       13       0.03565960      -0.02521515       0.04367391
In       4.51311847       0.00000000      -0.00000000       14       0.00000000       0.00000000       0.00000000
In       1.50437282       2.12750445       3.68494580       15      -0.00000000       0.00000000      -0.00000000
O        0.89117096       4.25683248       4.00666475       16       0.01895804       0.01571311      -0.03874194
O       -2.11757469       3.46896167       5.36497996       17       0.01895804      -0.04140806       0.00576301
O       -0.44231616       2.28437501       0.04685264       18      -0.01790608      -0.01534119      -0.03938613
O       -0.89117097      -0.78422365       2.00175311       19      -0.01895804      -0.02569495      -0.03297892
O        3.97642665       5.06628294       1.95490046       20      -0.04535924       0.00295535       0.00640720
O        2.04106464       2.96765246       1.68003416       21       0.04535924      -0.00407113       0.00576301
O        2.04106464       6.35363939       0.27486630       22       0.04535924       0.00702648       0.00064419
O       -2.30116813       6.03807470       3.73179844       23       0.00849512       0.02199574      -0.03938613
O        3.45106181       1.97063390       7.32303896       24       0.01790608       0.01534119       0.03938613
O        5.30991378      -1.78306579       3.63809316       25      -0.00849512      -0.02199574       0.03938613
O        6.45980746       3.31026753       1.73004533       26       0.01790608      -0.04177998      -0.00640720
O        3.71632316       2.34029936       3.95981211       27       0.00849512      -0.04510726       0.00064419
O        0.70757751       4.38665266       7.04817265       28       0.00849512       0.02311152       0.03874194
O        2.30116813      -0.13164375       0.32171895       29      -0.00849512      -0.02311152      -0.03874194
O       -3.45106181       0.94474137       5.63984627       30      -0.01790608       0.04177998       0.00640720
O        5.12632033       0.78604724       2.00491164       31      -0.01895804       0.04140806      -0.00576301
O        0.96768100       1.28735645       5.68985744       32      -0.04535924       0.00407113      -0.00576301
O        3.45106181      -1.02589252       5.68669891       33       0.01790608       0.02643879      -0.03297892
O        2.11757468      -0.00182358       3.36322685       34      -0.01895804      -0.01571311       0.03874194
O        0.96768100      -2.09863048       7.09502529       35      -0.04535924      -0.00702648      -0.00064419
O       -0.70757752       1.91470955       3.41007949       36      -0.00849512       0.04510726      -0.00064419
O       -0.96768101      -0.81127404       5.41499114       37       0.04535924      -0.00295535      -0.00640720
O       -0.44231616       5.28090143       1.68319269       38      -0.01790608      -0.02643879       0.03297892
O        3.89991661       5.03923256       5.36813849       39       0.01895804       0.02569495       0.03297892
40
Lattice="9.026236945647744 7.074561650549753e-10 2.3247819594152915e-15 -3.0087456492162437 8.51001780358294 -1.2253498878487907e-09 -3.0087456482157546 -4.2550089010840155 7.369891605377579" Properties=species:S:1:pos:R:3:spacegroup_kinds:I:1:forces:R:3 spacegroup="P 1" unit_cell=conventional occupancy="_JSON {\"0\": {\"In\": 1}, \"1\": {\"In\": 1}, \"2\": {\"In\": 1}, \"3\": {\"In\": 1}, \"4\": {\"In\": 1}, \"5\": {\"In\": 1}, \"6\": {\"In\": 1}, \"7\": {\"In\": 1}, \"8\": {\"In\": 1}, \"9\": {\"In\": 1}, \"10\": {\"In\": 1}, \"11\": {\"In\": 1}, \"12\": {\"In\": 1}, \"13\": {\"In\": 1}, \"14\": {\"In\": 1}, \"15\": {\"In\": 1}, \"16\": {\"O\": 1}, \"17\": {\"O\": 1}, \"18\": {\"O\": 1}, \"19\": {\"O\": 1}, \"20\": {\"O\": 1}, \"21\": {\"O\": 1}, \"22\": {\"O\": 1}, \"23\": {\"O\": 1}, \"24\": {\"O\": 1}, \"25\": {\"O\": 1}, \"26\": {\"O\": 1}, \"27\": {\"O\": 1}, \"28\": {\"O\": 1}, \"29\": {\"O\": 1}, \"30\": {\"O\": 1}, \"31\": {\"O\": 1}, \"32\": {\"O\": 1}, \"33\": {\"O\": 1}, \"34\": {\"O\": 1}, \"35\": {\"O\": 1}, \"36\": {\"O\": 1}, \"37\": {\"O\": 1}, \"38\": {\"O\": 1}, \"39\": {\"O\": 1}}" n_minim_iter=2 energy=-45151.90314209134 stress="0.0012065663094054445 3.6636749355428015e-13 3.673233605262716e-14 3.6636749355428015e-13 0.0012065663090334864 3.1012941130391983e-13 3.673233605262716e-14 3.1012941130391983e-13 0.0012065663095643883" free_energy=-45151.90314209134 pbc="T T T"
In      -4.30663203       3.04524871       5.78031192        0       0.00493269      -0.00348794       0.00604128
In       7.31537767       1.20976019       1.58957968        1      -0.00493269       0.00348794      -0.00604128
In       1.29788638      -0.91774426       5.27452549        2      -0.00493269       0.00348794      -0.00604128
In      -1.50437283      -2.12750445       3.68494580        3       0.00000000       0.00000000      -0.00000000
In      -1.29788638       4.10900094       3.43205258        4       0.00493269      -0.00348794      -0.00604128
In       4.71960492      -2.89924074       5.52741870        5       0.00493269       0.00697587       0.00000000
In      -1.29788638       1.35576816       5.52741870        6       0.00493269       0.00697587      -0.00000000
In      -1.71085927       7.15424965       1.84247290        7      -0.00493269      -0.00697587      -0.00000000
In       4.30663203       0.14600797       3.93783901        8      -0.00493269       0.00348794       0.00604128
In      -1.50437283       4.25500890      -0.00000000        9       0.00000000       0.00000000      -0.00000000
In       4.30663203       6.52852132       0.25289321       10      -0.00493269       0.00348794       0.00604128
In      -1.29788638      -2.27351241       7.11699839       11       0.00493269      -0.00348794      -0.00604128
In       4.30663203       2.89924075       1.84247290       12      -0.00493269      -0.00697587      -0.00000000
In       1.71085927       5.17275316       2.09536611       13       0.00493269      -0.00348794       0.00604128
In       4.51311847       0.00000000      -0.00000000       14       0.00000000       0.00000000      -0.00000000
In       1.50437282       2.12750445       3.68494580       15      -0.00000000      -0.00000000      -0.00000000
O        0.89252511       4.25795485       4.00389747       16       0.02665887       0.00948635      -0.00163785
O       -2.11622054       3.46600395       5.36539160       17       0.02665887      -0.00616160      -0.00739650
O       -0.44359517       2.28327921       0.04403934       18       0.01202090       0.00418901      -0.02532428
O       -0.89252511      -0.78605900       1.99939747       19      -0.02665887       0.00332476      -0.00903435
O        3.97318671       5.06649404       1.95535812       20      -0.01469550      -0.01794573       0.01628993
O        2.04430459       2.96736166       1.68044580       21       0.01469550      -0.02308036      -0.00739650
O        2.04430459       6.35414128       0.27491232       22       0.01469550       0.00513463       0.02368643
O       -2.30056134       6.03964582       3.72898514       23       0.00005753      -0.01272975      -0.02532428
O        3.45234082       1.97172970       7.32585226       24      -0.01202090      -0.00418901       0.02532428
O        5.30930698      -1.78463692       3.64090645       25      -0.00005753       0.01272975       0.02532428
O        6.46108646       3.30728325       1.72958767       26      -0.01202090      -0.01983696      -0.01628993
O        3.71692996       2.33707741       3.95985812       27       0.00005753      -0.01556659       0.02368643
O        0.70818431       4.38830348       7.05093993       28       0.00005753       0.02829634       0.00163785
O        2.30056134      -0.13329457       0.31895166       29      -0.00005753      -0.02829634      -0.00163785
O       -3.45234082       0.94772566       5.64030392       30       0.01202090       0.01983696       0.01628993
O        5.12496619       0.78900495       2.00450000       31      -0.02665887       0.00616160       0.00739650
O        0.96444106       1.28764724       5.68944580       32      -0.01469550       0.02308036       0.00739650
O        3.45234082      -1.02400404       5.68434327       33      -0.01202090       0.02402597      -0.00903435
O        2.11622054      -0.00294594       3.36599413       34      -0.02665887      -0.00948635       0.00163785
O        0.96444106      -2.09913237       7.09497928       35      -0.01469550      -0.00513463      -0.02368643
O       -0.70818431       1.91793149       3.41003348       36      -0.00005753       0.01556659      -0.02368643
O       -0.96444106      -0.81148513       5.41453348       37       0.01469550       0.01794573      -0.01628993
O       -0.44359517       5.27901294       1.68554833       38       0.01202090      -0.02402597       0.00903435
O        3.90127076       5.04106791       5.37049413       39       0.02665887      -0.00332476       0.00903435
40
Lattice="9.026236945647744 7.074561650549753e-10 2.324781959415289e-15 -3.0087456492162437 8.51001780358294 -1.2253498878487907e-09 -3.0087456482157546 -4.2550089010840155 7.369891605377579" Properties=species:S:1:pos:R:3:spacegroup_kinds:I:1:forces:R:3 spacegroup="P 1" unit_cell=conventional occupancy="_JSON {\"0\": {\"In\": 1}, \"1\": {\"In\": 1}, \"2\": {\"In\": 1}, \"3\": {\"In\": 1}, \"4\": {\"In\": 1}, \"5\": {\"In\": 1}, \"6\": {\"In\": 1}, \"7\": {\"In\": 1}, \"8\": {\"In\": 1}, \"9\": {\"In\": 1}, \"10\": {\"In\": 1}, \"11\": {\"In\": 1}, \"12\": {\"In\": 1}, \"13\": {\"In\": 1}, \"14\": {\"In\": 1}, \"15\": {\"In\": 1}, \"16\": {\"O\": 1}, \"17\": {\"O\": 1}, \"18\": {\"O\": 1}, \"19\": {\"O\": 1}, \"20\": {\"O\": 1}, \"21\": {\"O\": 1}, \"22\": {\"O\": 1}, \"23\": {\"O\": 1}, \"24\": {\"O\": 1}, \"25\": {\"O\": 1}, \"26\": {\"O\": 1}, \"27\": {\"O\": 1}, \"28\": {\"O\": 1}, \"29\": {\"O\": 1}, \"30\": {\"O\": 1}, \"31\": {\"O\": 1}, \"32\": {\"O\": 1}, \"33\": {\"O\": 1}, \"34\": {\"O\": 1}, \"35\": {\"O\": 1}, \"36\": {\"O\": 1}, \"37\": {\"O\": 1}, \"38\": {\"O\": 1}, \"39\": {\"O\": 1}}" n_minim_iter=3 energy=-45151.903758801745 stress="0.001002430077466857 2.325651406794804e-13 3.999265826761919e-14 2.325651406794804e-13 0.0010024300772638274 -3.841079060326082e-13 3.999265826761919e-14 -3.841079060326082e-13 0.0010024300777971438" free_energy=-45151.903758801745 pbc="T T T"
In      -4.30574579       3.04462205       5.78139733        0      -0.00456451       0.00322760      -0.00559037
In       7.31449144       1.21038686       1.58849427        1       0.00456451      -0.00322760       0.00559037
In       1.29700014      -0.91711759       5.27344007        2       0.00456451      -0.00322760       0.00559037
In      -1.50437283      -2.12750445       3.68494580        3      -0.00000000       0.00000000      -0.00000000
In      -1.29700014       4.10837427       3.43096717        4      -0.00456451       0.00322760       0.00559037
In       4.72049116      -2.89798741       5.52741870        5      -0.00456451      -0.00645520       0.00000000
In      -1.29700014       1.35702149       5.52741870        6      -0.00456451      -0.00645520       0.00000000
In      -1.71174551       7.15299632       1.84247290        7       0.00456451       0.00645520      -0.00000000
In       4.30574579       0.14663463       3.93892443        8       0.00456451      -0.00322760      -0.00559037
In      -1.50437283       4.25500890      -0.00000000        9       0.00000000      -0.00000000      -0.00000000
In       4.30574579       6.52914799       0.25397863       10       0.00456451      -0.00322760      -0.00559037
In      -1.29700014      -2.27413908       7.11591297       11      -0.00456451       0.00322760       0.00559037
In       4.30574579       2.89798742       1.84247290       12       0.00456451       0.00645520       0.00000000
In       1.71174551       5.17212650       2.09645153       13      -0.00456451       0.00322760      -0.00559037
In       4.51311847       0.00000000      -0.00000000       14      -0.00000000      -0.00000000      -0.00000000
In       1.50437282       2.12750445       3.68494580       15      -0.00000000       0.00000000       0.00000000
O        0.89345080       4.25848365       4.00300499       16       0.02785028       0.00508145       0.00982695
O       -2.11529485       3.46496665       5.36537989       17       0.02785028       0.00596966      -0.00931414
O       -0.44376603       2.28301728       0.04268463       18       0.01970251       0.01173100      -0.01929307
O       -0.89345080      -0.78656751       1.99849328       19      -0.02785028       0.01105111       0.00051281
O        3.97190016       5.06622040       1.95580864       20      -0.00365518      -0.02218997       0.01980588
O        2.04559113       2.96683468       1.68043408       21       0.00365518      -0.02824738      -0.00931414
O        2.04559113       6.35439462       0.27537455       22       0.00365518       0.00605741       0.02912002
O       -2.30037135       6.03989422       3.72763043       23      -0.00449259      -0.02248604      -0.01929307
O        3.45251168       1.97199162       7.32720697       24      -0.01970251      -0.01173100       0.01929307
O        5.30911699      -1.78488531       3.64226117       25       0.00449259       0.02248604       0.01929307
O        6.46125733       3.30597907       1.72913715       26      -0.01970251      -0.01084279      -0.01980588
O        3.71711995       2.33578000       3.96032036       27      -0.00449259      -0.00546527       0.02912002
O        0.70837430       4.38935249       7.05183241       28      -0.00449259       0.02795131      -0.00982695
O        2.30037134      -0.13434359       0.31805919       29       0.00449259      -0.02795131       0.00982695
O       -3.45251168       0.94902984       5.64075445       30       0.01970251       0.01084279       0.01980588
O        5.12404050       0.79004226       2.00451171       31      -0.02785028      -0.00596966       0.00931414
O        0.96315451       1.28817423       5.68945751       32      -0.00365518       0.02824738       0.00931414
O        3.45251168      -1.02296179       5.68343908       33      -0.01970251       0.02257379       0.00051281
O        2.11529485      -0.00347474       3.36688661       34      -0.02785028      -0.00508145      -0.00982695
O        0.96315451      -2.09938572       7.09451704       35      -0.00365518      -0.00605741      -0.02912002
O       -0.70837431       1.91922891       3.40957124       36       0.00449259       0.00546527      -0.02912002
O       -0.96315452      -0.81121150       5.41408296       37       0.00365518       0.02218997      -0.01980588
O       -0.44376603       5.27797069       1.68645252       38       0.01970251      -0.02257379      -0.00051281
O        3.90219645       5.04157642       5.37139832       39       0.02785028      -0.01105111      -0.00051281
40
Lattice="9.026236945647746 7.074561650549755e-10 2.3247819594152844e-15 -3.0087456492162445 8.510017803582942 -1.225349887848791e-09 -3.0087456482157555 -4.255008901084016 7.369891605377581" Properties=species:S:1:pos:R:3:spacegroup_kinds:I:1:forces:R:3 spacegroup="P 1" unit_cell=conventional occupancy="_JSON {\"0\": {\"In\": 1}, \"1\": {\"In\": 1}, \"2\": {\"In\": 1}, \"3\": {\"In\": 1}, \"4\": {\"In\": 1}, \"5\": {\"In\": 1}, \"6\": {\"In\": 1}, \"7\": {\"In\": 1}, \"8\": {\"In\": 1}, \"9\": {\"In\": 1}, \"10\": {\"In\": 1}, \"11\": {\"In\": 1}, \"12\": {\"In\": 1}, \"13\": {\"In\": 1}, \"14\": {\"In\": 1}, \"15\": {\"In\": 1}, \"16\": {\"O\": 1}, \"17\": {\"O\": 1}, \"18\": {\"O\": 1}, \"19\": {\"O\": 1}, \"20\": {\"O\": 1}, \"21\": {\"O\": 1}, \"22\": {\"O\": 1}, \"23\": {\"O\": 1}, \"24\": {\"O\": 1}, \"25\": {\"O\": 1}, \"26\": {\"O\": 1}, \"27\": {\"O\": 1}, \"28\": {\"O\": 1}, \"29\": {\"O\": 1}, \"30\": {\"O\": 1}, \"31\": {\"O\": 1}, \"32\": {\"O\": 1}, \"33\": {\"O\": 1}, \"34\": {\"O\": 1}, \"35\": {\"O\": 1}, \"36\": {\"O\": 1}, \"37\": {\"O\": 1}, \"38\": {\"O\": 1}, \"39\": {\"O\": 1}}" n_minim_iter=4 energy=-45151.90473475664 stress="0.0005771004029436582 -7.243918412894265e-15 1.1333868049227138e-13 -7.243918412894265e-15 0.0005771004041215609 4.896003973957388e-14 1.1333868049227138e-13 4.896003973957388e-14 0.0005771004031192082" free_energy=-45151.90473475664 pbc="T T T"
In      -4.30413709       3.04348453       5.78336758        0      -0.01700898       0.01202716      -0.02083166
In       7.31288274       1.21152438       1.58652402        1       0.01700898      -0.01202716       0.02083166
In       1.29539144      -0.91598007       5.27146982        2       0.01700898      -0.01202716       0.02083166
In      -1.50437283      -2.12750445       3.68494580        3      -0.00000000      -0.00000000       0.00000000
In      -1.29539144       4.10723675       3.42899692        4      -0.01700898       0.01202716       0.02083166
In       4.72209985      -2.89571237       5.52741870        5      -0.01700898      -0.02405433       0.00000000
In      -1.29539144       1.35929653       5.52741870        6      -0.01700898      -0.02405433       0.00000000
In      -1.71335421       7.15072127       1.84247290        7       0.01700898       0.02405433      -0.00000000
In       4.30413709       0.14777216       3.94089468        8       0.01700898      -0.01202716      -0.02083166
In      -1.50437283       4.25500890      -0.00000000        9       0.00000000       0.00000000       0.00000000
In       4.30413709       6.53028551       0.25594887       10       0.01700898      -0.01202716      -0.02083166
In      -1.29539144      -2.27527660       7.11394273       11      -0.01700898       0.01202716       0.02083166
In       4.30413709       2.89571237       1.84247290       12       0.01700898       0.02405433       0.00000000
In       1.71335421       5.17098898       2.09842178       13      -0.01700898       0.01202716      -0.02083166
In       4.51311847       0.00000000      -0.00000000       14       0.00000000       0.00000000       0.00000000
In       1.50437282       2.12750445       3.68494580       15      -0.00000000       0.00000000      -0.00000000
O        0.89699511       4.25987175       4.00168538       16       0.02428733      -0.00932194       0.02501672
O       -2.11175054       3.46312978       5.36483756       17       0.02428733       0.02632608      -0.00443532
O       -0.44300769       2.28315040       0.03873020       18       0.02412744       0.02643915      -0.00463115
O       -0.89699512      -0.78701628       1.99663134       19      -0.02428733       0.01700414       0.02058140
O        3.96898691       5.06438607       1.95790114       20       0.01672469      -0.01967794       0.02521255
O        2.04850438       2.96410536       1.67989176       21      -0.01672469      -0.03167368      -0.00443532
O        2.04850438       6.35528962       0.27800938       22      -0.01672469       0.01199574       0.02964787
O       -2.30024407       6.03913488       3.72367600       23      -0.01688459      -0.03156062      -0.00463115
O        3.45175334       1.97185851       7.33116140       24      -0.02412744      -0.02643915       0.00463115
O        5.30898972      -1.78412597       3.64621560       25       0.01688459       0.03156062       0.00463115
O        6.46049899       3.30262099       1.72704465       26      -0.02412744       0.00920888      -0.02521255
O        3.71724723       2.33273503       3.96295518       27      -0.01688459       0.01176961       0.02964787
O        0.70850158       4.39315681       7.05315202       28      -0.01688459       0.01979101      -0.02501672
O        2.30024407      -0.13814790       0.31673958       29       0.01688459      -0.01979101       0.02501672
O       -3.45175334       0.95238792       5.64284695       30       0.02412744      -0.00920888       0.02521255
O        5.12049618       0.79187912       2.00505404       31      -0.02428733      -0.02632608       0.00443532
O        0.96024126       1.29090355       5.68999984       32       0.01672469       0.03167368       0.00443532
O        3.45175334      -1.01947059       5.68157715       33      -0.02412744       0.01723027       0.02058140
O        2.11175053      -0.00486284       3.36820622       34      -0.02428733       0.00932194      -0.02501672
O        0.96024126      -2.10028071       7.09188222       35       0.01672469      -0.01199574      -0.02964787
O       -0.70850158       1.92227388       3.40693641       36       0.01688459      -0.01176961      -0.02964787
O       -0.96024127      -0.80937717       5.41199046       37      -0.01672469       0.01967794      -0.02521255
O       -0.44300769       5.27447949       1.68831445       38       0.02412744      -0.01723027      -0.02058140
O        3.90574076       5.04202518       5.37326026       39       0.02428733      -0.01700414      -0.02058140
40
Lattice="9.026236945647748 7.074561650549756e-10 2.324781959415284e-15 -3.008745649216245 8.510017803582944 -1.2253498878487913e-09 -3.008745648215756 -4.255008901084017 7.369891605377583" Properties=species:S:1:pos:R:3:spacegroup_kinds:I:1:forces:R:3 spacegroup="P 1" unit_cell=conventional occupancy="_JSON {\"0\": {\"In\": 1}, \"1\": {\"In\": 1}, \"2\": {\"In\": 1}, \"3\": {\"In\": 1}, \"4\": {\"In\": 1}, \"5\": {\"In\": 1}, \"6\": {\"In\": 1}, \"7\": {\"In\": 1}, \"8\": {\"In\": 1}, \"9\": {\"In\": 1}, \"10\": {\"In\": 1}, \"11\": {\"In\": 1}, \"12\": {\"In\": 1}, \"13\": {\"In\": 1}, \"14\": {\"In\": 1}, \"15\": {\"In\": 1}, \"16\": {\"O\": 1}, \"17\": {\"O\": 1}, \"18\": {\"O\": 1}, \"19\": {\"O\": 1}, \"20\": {\"O\": 1}, \"21\": {\"O\": 1}, \"22\": {\"O\": 1}, \"23\": {\"O\": 1}, \"24\": {\"O\": 1}, \"25\": {\"O\": 1}, \"26\": {\"O\": 1}, \"27\": {\"O\": 1}, \"28\": {\"O\": 1}, \"29\": {\"O\": 1}, \"30\": {\"O\": 1}, \"31\": {\"O\": 1}, \"32\": {\"O\": 1}, \"33\": {\"O\": 1}, \"34\": {\"O\": 1}, \"35\": {\"O\": 1}, \"36\": {\"O\": 1}, \"37\": {\"O\": 1}, \"38\": {\"O\": 1}, \"39\": {\"O\": 1}}" n_minim_iter=5 energy=-45151.9070755583 stress="0.0005519562043019606 5.421152267812532e-13 5.811588821195604e-15 5.421152267812532e-13 0.000551956203961603 -6.963826248471171e-14 5.811588821195604e-15 -6.963826248471171e-14 0.0005519562037965553" free_energy=-45151.9070755583 pbc="T T T"
In      -4.30469478       3.04387887       5.78268456        0       0.00673040      -0.00475911       0.00824302
In       7.31344042       1.21113004       1.58720704        1      -0.00673040       0.00475911      -0.00824302
In       1.29594912      -0.91637441       5.27215285        2      -0.00673040       0.00475911      -0.00824302
In      -1.50437283      -2.12750445       3.68494580        3      -0.00000000      -0.00000000      -0.00000000
In      -1.29594913       4.10763109       3.42967994        4       0.00673040      -0.00475911      -0.00824302
In       4.72154217      -2.89650105       5.52741870        5       0.00673040       0.00951822      -0.00000000
In      -1.29594913       1.35850785       5.52741870        6       0.00673040       0.00951822      -0.00000000
In      -1.71279652       7.15150996       1.84247290        7      -0.00673040      -0.00951822       0.00000000
In       4.30469477       0.14737781       3.94021166        8      -0.00673040       0.00475911       0.00824302
In      -1.50437283       4.25500890      -0.00000000        9      -0.00000000      -0.00000000      -0.00000000
In       4.30469477       6.52989117       0.25526585       10      -0.00673040       0.00475911       0.00824302
In      -1.29594913      -2.27488226       7.11462575       11       0.00673040      -0.00475911      -0.00824302
In       4.30469477       2.89650106       1.84247290       12      -0.00673040      -0.00951822       0.00000000
In       1.71279652       5.17138332       2.09773875       13       0.00673040      -0.00475911       0.00824302
In       4.51311847       0.00000000      -0.00000000       14       0.00000000      -0.00000000       0.00000000
In       1.50437282       2.12750445       3.68494580       15      -0.00000000       0.00000000      -0.00000000
O        0.90301002       4.26059243       4.00337308       16       0.00432574      -0.02146090      -0.00288636
O       -2.10573563       3.46423103       5.36336959       17       0.00432574       0.00823079       0.02002887
O       -0.43928499       2.28587249       0.03445485       18      -0.01103156       0.01909004       0.00122009
O       -0.90301003      -0.78519435       1.99685106       19      -0.00432574      -0.01323012       0.01714250
O        3.96802021       5.06009577       1.96239621       20       0.00631814       0.01393454       0.01592241
O        2.04947109       2.95806736       1.67842379       21      -0.00631814      -0.00682195       0.02002887
O        2.04947109       6.35703731       0.28397242       22      -0.00631814       0.02075648      -0.00410646
O       -2.30156958       6.03471772       3.71940065       23      -0.02167545       0.00403731       0.00122009
O        3.44803064       1.96913642       7.33543675       24       0.01103156      -0.01909004      -0.00122009
O        5.31031522      -1.77970882       3.65049095       25       0.02167545      -0.00403731      -0.00122009
O        6.45677629       3.30027947       1.72254958       26       0.01103156       0.01060165      -0.01592241
O        3.71592172       2.33124104       3.96891823       27      -0.02167545      -0.00096202      -0.00410646
O        0.70717607       4.39906794       7.05146432       28      -0.02167545      -0.00307528       0.00288636
O        2.30156958      -0.14405904       0.31842727       29       0.02167545       0.00307528      -0.00288637
O       -3.44803064       0.95472944       5.64734202       30      -0.01103156      -0.01060165       0.01592241
O        5.11448127       0.79077788       2.00652201       31      -0.00432574      -0.00823079      -0.02002887
O        0.95927456       1.29694154       5.69146781       32       0.00631814       0.00682195      -0.02002887
O        3.44803064      -1.01440698       5.68179687       33       0.01103156       0.00848839       0.01714250
O        2.10573562      -0.00558352       3.36651852       34      -0.00432574       0.02146090       0.00288636
O        0.95927456      -2.10202841       7.08591918       35       0.00631814      -0.02075648       0.00410646
O       -0.70717607       1.92376786       3.40097337       36       0.02167545       0.00096202       0.00410646
O       -0.95927456      -0.80508687       5.40749539       37      -0.00631814      -0.01393454      -0.01592241
O       -0.43928499       5.26941589       1.68809473       38      -0.01103156      -0.00848839      -0.01714250
O        3.91175567       5.04020326       5.37304054       39       0.00432574       0.01323012      -0.01714250
40