40
Lattice="9.566365456627318 7.497879869695879e-10 8.211638450243451e-15 -3.1887884862493476 9.01925584733663 -1.2987046572285867e-09 -3.1887884851889927 -4.509627922918503 7.810904687890659" Properties=species:S:1:pos:R:3:spacegroup_kinds:I:1:forces:R:3 spacegroup="P 1" unit_cell=conventional occupancy="_JSON {\"0\": {\"In\": 1}, \"1\": {\"In\": 1}, \"2\": {\"In\": 1}, \"3\": {\"In\": 1}, \"4\": {\"In\": 1}, \"5\": {\"In\": 1}, \"6\": {\"In\": 1}, \"7\": {\"In\": 1}, \"8\": {\"In\": 1}, \"9\": {\"In\": 1}, \"10\": {\"In\": 1}, \"11\": {\"In\": 1}, \"12\": {\"In\": 1}, \"13\": {\"In\": 1}, \"14\": {\"In\": 1}, \"15\": {\"In\": 1}, \"16\": {\"O\": 1}, \"17\": {\"O\": 1}, \"18\": {\"O\": 1}, \"19\": {\"O\": 1}, \"20\": {\"O\": 1}, \"21\": {\"O\": 1}, \"22\": {\"O\": 1}, \"23\": {\"O\": 1}, \"24\": {\"O\": 1}, \"25\": {\"O\": 1}, \"26\": {\"O\": 1}, \"27\": {\"O\": 1}, \"28\": {\"O\": 1}, \"29\": {\"O\": 1}, \"30\": {\"O\": 1}, \"31\": {\"O\": 1}, \"32\": {\"O\": 1}, \"33\": {\"O\": 1}, \"34\": {\"O\": 1}, \"35\": {\"O\": 1}, \"36\": {\"O\": 1}, \"37\": {\"O\": 1}, \"38\": {\"O\": 1}, \"39\": {\"O\": 1}}" n_minim_iter=5 energy=-45151.56882641431 stress="0.007105443623998561 1.3539291237834544e-13 -2.8545606861379846e-13 1.3539291237834544e-13 0.007105443623991675 -1.2216094629620698e-14 -2.8545606861379846e-13 -1.2216094629620698e-14 0.0071054436240909295" free_energy=-45151.56882641431 pbc="T T T"
In      -4.50836663       3.18789662       6.19475812        0       0.00312468      -0.00220948       0.00382693
In       7.69715511       1.32173131       1.61614656        1      -0.00312468       0.00220948      -0.00382693
In       1.31957814      -0.93308265       5.52159890        2      -0.00312468       0.00220948      -0.00382693
In      -1.59439424      -2.25481396       3.90545234        3       0.00000000      -0.00000000      -0.00000000
In      -1.31957814       4.31530360       3.56887273        4       0.00312468      -0.00220948      -0.00382693
In       5.05799883      -2.99357228       5.85817851        5       0.00312468       0.00441896      -0.00000000
In      -1.31957814       1.51605564       5.85817851        6       0.00312468       0.00441896      -0.00000000
In      -1.86921035       7.50320021       1.95272617        7      -0.00312468      -0.00441896       0.00000000
In       4.50836662       0.19432433       4.24203195        8      -0.00312468       0.00220948       0.00382693
In      -1.59439424       4.50962793      -0.00000000        9      -0.00000000      -0.00000000       0.00000000
In       4.50836662       6.95876622       0.33657961       10      -0.00312468       0.00220948       0.00382693
In      -1.31957814      -2.44913829       7.47432507       11       0.00312468      -0.00220948      -0.00382693
In       4.50836662       2.99357229       1.95272617       12      -0.00312468      -0.00441896       0.00000000
In       1.86921034       5.44271058       2.28930578       13       0.00312468      -0.00220948       0.00382693
In       4.78318273       0.00000000      -0.00000000       14       0.00000000      -0.00000000      -0.00000000
In       1.59439424       2.25481396       3.90545234       15      -0.00000000       0.00000000       0.00000000
O        1.08650140       4.52315561       4.19190283       16      -0.00193952       0.00494771       0.00686070
O       -2.10228708       3.62353050       5.70323795       17      -0.00193952       0.00346768      -0.00771519
O       -0.46049951       2.46261138      -0.09689582       18       0.00728760      -0.00305688       0.00358568
O       -1.08650141      -0.87256974       2.08423610       19       0.00193952       0.00841539      -0.00085449
O        4.11705968       5.32625484       2.18113192       20       0.00391587      -0.00634520      -0.00444017
O        2.26051729       3.02902573       1.79778561       21      -0.00391587       0.00067271      -0.00771519
O        2.26051729       6.80685703       0.38334630       22      -0.00391587      -0.00701790       0.00327501
O       -2.47527211       6.37773453       3.80855652       23       0.00531125      -0.00585185       0.00358568
O        3.64928799       2.04701655       7.90780050       24      -0.00728760       0.00305688      -0.00358568
O        5.66406059      -1.86810660       4.00234816       25      -0.00531125       0.00585185      -0.00358568
O        6.83807648       3.40220541       1.72432042       26      -0.00728760       0.00157685       0.00444017
O        3.90230487       2.36425340       4.28879865       27       0.00531125       0.00603122       0.00327501
O        0.71351638       4.78689585       7.52445420       28       0.00531125      -0.00017936      -0.00686070
O        2.47527210      -0.27726792       0.28645049       29      -0.00531125       0.00017936       0.00686070
O       -3.64928799       1.10742252       6.08658426       30       0.00728760      -0.00157685      -0.00444017
O        5.29107557       0.88609742       2.10766673       31       0.00193952      -0.00346768       0.00771519
O        0.92827119       1.48060220       6.01311907       32       0.00391587      -0.00067271       0.00771519
O        3.64928799      -0.93959403       5.98968844       33      -0.00728760      -0.00463373      -0.00085449
O        2.10228708      -0.01352768       3.61900185       34       0.00193952      -0.00494771      -0.00686070
O        0.92827119      -2.29722910       7.42755838       35       0.00391587       0.00701790      -0.00327501
O       -0.71351638       2.14537452       3.52210603       36      -0.00531125      -0.00603122      -0.00327501
O       -0.92827120      -0.81662691       5.62977277       37      -0.00391587       0.00634520       0.00444017
O       -0.46049951       5.44922196       1.82121624       38       0.00728760       0.00463373       0.00085449
O        4.27528989       5.38219767       5.72666858       39      -0.00193952      -0.00841539       0.00085449
