40
Lattice="8.244043838912237 6.461459998288722e-10 2.5653318892788753e-15 -2.74801461357994 7.77255907030998 -1.1191673261973768e-09 -2.7480146126661515 -3.886279534508836 6.731233608049709" Properties=species:S:1:pos:R:3:spacegroup_kinds:I:1:forces:R:3 spacegroup="P 1" unit_cell=conventional occupancy="_JSON {\"0\": {\"In\": 1}, \"1\": {\"In\": 1}, \"2\": {\"In\": 1}, \"3\": {\"In\": 1}, \"4\": {\"In\": 1}, \"5\": {\"In\": 1}, \"6\": {\"In\": 1}, \"7\": {\"In\": 1}, \"8\": {\"In\": 1}, \"9\": {\"In\": 1}, \"10\": {\"In\": 1}, \"11\": {\"In\": 1}, \"12\": {\"In\": 1}, \"13\": {\"In\": 1}, \"14\": {\"In\": 1}, \"15\": {\"In\": 1}, \"16\": {\"O\": 1}, \"17\": {\"O\": 1}, \"18\": {\"O\": 1}, \"19\": {\"O\": 1}, \"20\": {\"O\": 1}, \"21\": {\"O\": 1}, \"22\": {\"O\": 1}, \"23\": {\"O\": 1}, \"24\": {\"O\": 1}, \"25\": {\"O\": 1}, \"26\": {\"O\": 1}, \"27\": {\"O\": 1}, \"28\": {\"O\": 1}, \"29\": {\"O\": 1}, \"30\": {\"O\": 1}, \"31\": {\"O\": 1}, \"32\": {\"O\": 1}, \"33\": {\"O\": 1}, \"34\": {\"O\": 1}, \"35\": {\"O\": 1}, \"36\": {\"O\": 1}, \"37\": {\"O\": 1}, \"38\": {\"O\": 1}, \"39\": {\"O\": 1}}" n_minim_iter=1 energy=-45151.90046253155 stress="-0.0016973207649064019 4.4462677301445336e-13 1.7035198281996256e-13 4.4462677301445336e-13 -0.0016973207652077873 -2.010517569059917e-13 1.7035198281996256e-13 -2.010517569059917e-13 -0.0016973207629991764" free_energy=-45151.90046253155 pbc="T T T"
In      -3.92563663       2.77584428       5.28894708        0       0.00151749      -0.00107303       0.00185854
In       6.67365124       1.11043525       1.44228652        1      -0.00151749       0.00107303      -0.00185854
In       1.17762202      -0.83270451       4.80790333        2      -0.00151749       0.00107303      -0.00185854
In      -1.37400731      -1.94313977       3.36561680        3       0.00000000      -0.00000000      -0.00000000
In      -1.17762202       3.74741417       3.12509493        4       0.00151749      -0.00107303      -0.00185854
In       4.31840721      -2.63697891       5.04842520        5       0.00151749       0.00214606      -0.00000000
In      -1.17762202       1.24930062       5.04842520        6       0.00151749       0.00214606       0.00000000
In      -1.57039260       6.52325845       1.68280840        7      -0.00151749      -0.00214606       0.00000000
In       3.92563663       0.13886537       3.60613868        8      -0.00151749       0.00107303       0.00185854
In      -1.37400731       3.88627954      -0.00000000        9       0.00000000      -0.00000000      -0.00000000
In       3.92563663       5.96828467       0.24052187       10      -0.00151749       0.00107303       0.00185854
In      -1.17762202      -2.08200513       6.49071173       11       0.00151749      -0.00107303      -0.00185854
In       3.92563663       2.63697892       1.68280840       12      -0.00151749      -0.00214606      -0.00000000
In       1.57039259       4.71898405       1.92333027       13       0.00151749      -0.00107303       0.00185854
In       4.12202192       0.00000000      -0.00000000       14       0.00000000      -0.00000000       0.00000000
In       1.37400730       1.94313977       3.36561680       15      -0.00000000       0.00000000      -0.00000000
O        0.78021851       3.87659071       3.70764095       16      -0.00537239       0.02916658       0.06142763
O       -1.96779610       3.21575567       4.88580390       17      -0.00537239       0.03861460      -0.05597282
O       -0.38123784       2.09388957       0.09769938       18       0.06211391      -0.00910543       0.02668069
O       -0.78021851      -0.68021269       1.86221125       19       0.00537239       0.06778118       0.00545481
O        3.68777555       4.62289900       1.76451186       20       0.03819699      -0.05237708      -0.02122587
O        1.80825367       2.72647717       1.52018710       21      -0.03819699      -0.00780639      -0.05597282
O        1.80825367       5.78270137       0.24432476       22      -0.03819699      -0.04457068       0.03474694
O       -2.10121730       5.49089060       3.46331619       23       0.02928932      -0.05552641       0.02668069
O        3.12925245       1.79238997       6.63353422       24      -0.06211391       0.00910543      -0.02668069
O        4.84923191      -1.60461106       3.26791742       25      -0.02928932       0.05552641      -0.02668069
O        5.87726707       3.07469470       1.60110494       26      -0.06211391       0.01855344       0.02122587
O        3.39481193       2.19701427       3.60994157       27       0.02928932       0.05086936       0.03474694
O        0.64679731       3.97093374       6.38920945       28       0.02928932       0.00465705      -0.06142763
O        2.10121730      -0.08465420       0.34202415       29      -0.02928932      -0.00465705       0.06142763
O       -3.12925246       0.81158483       5.13012867       30       0.06211391      -0.01855344      -0.02122587
O        4.71581071       0.67052387       1.84542970       31       0.00537239      -0.03861460       0.05597282
O        0.93976094       1.15980237       5.21104650       32       0.03819699       0.00780639       0.05597282
O        3.12925245      -0.98080513       5.22782805       33      -0.06211391      -0.02765887       0.00545481
O        1.96779610       0.00968883       3.02359265       34       0.00537239      -0.02916658      -0.06142763
O        0.93976094      -1.89642183       6.48690884       35       0.03819699       0.04457068      -0.03474694
O       -0.64679732       1.68926527       3.12129204       36      -0.02928932      -0.05086936      -0.03474694
O       -0.93976094      -0.73661946       4.96672174       37      -0.03819699       0.05237708       0.02122587
O       -0.38123784       4.86708467       1.50340555       38       0.06211391       0.02765887      -0.00545481
O        3.52823312       4.56649223       4.86902235       39      -0.00537239      -0.06778118      -0.00545481
40
Lattice="8.244043838912237 6.461459998288722e-10 2.5653318892788698e-15 -2.74801461357994 7.77255907030998 -1.1191673261973768e-09 -2.7480146126661515 -3.886279534508836 6.731233608049709" Properties=species:S:1:pos:R:3:spacegroup_kinds:I:1:forces:R:3 spacegroup="P 1" unit_cell=conventional occupancy="_JSON {\"0\": {\"In\": 1}, \"1\": {\"In\": 1}, \"2\": {\"In\": 1}, \"3\": {\"In\": 1}, \"4\": {\"In\": 1}, \"5\": {\"In\": 1}, \"6\": {\"In\": 1}, \"7\": {\"In\": 1}, \"8\": {\"In\": 1}, \"9\": {\"In\": 1}, \"10\": {\"In\": 1}, \"11\": {\"In\": 1}, \"12\": {\"In\": 1}, \"13\": {\"In\": 1}, \"14\": {\"In\": 1}, \"15\": {\"In\": 1}, \"16\": {\"O\": 1}, \"17\": {\"O\": 1}, \"18\": {\"O\": 1}, \"19\": {\"O\": 1}, \"20\": {\"O\": 1}, \"21\": {\"O\": 1}, \"22\": {\"O\": 1}, \"23\": {\"O\": 1}, \"24\": {\"O\": 1}, \"25\": {\"O\": 1}, \"26\": {\"O\": 1}, \"27\": {\"O\": 1}, \"28\": {\"O\": 1}, \"29\": {\"O\": 1}, \"30\": {\"O\": 1}, \"31\": {\"O\": 1}, \"32\": {\"O\": 1}, \"33\": {\"O\": 1}, \"34\": {\"O\": 1}, \"35\": {\"O\": 1}, \"36\": {\"O\": 1}, \"37\": {\"O\": 1}, \"38\": {\"O\": 1}, \"39\": {\"O\": 1}}" n_minim_iter=2 energy=-45151.90259702015 stress="-0.0013605121925717063 3.668281688758247e-14 -5.189128749129342e-13 3.668281688758247e-14 -0.0013605121944183219 -1.5885900135853785e-13 -5.189128749129342e-13 -1.5885900135853785e-13 -0.0013605121926867185" free_energy=-45151.90259702015 pbc="T T T"
In      -3.92557863       2.77580327       5.28901811        0       0.04275903      -0.03023520       0.05236890
In       6.67359324       1.11047627       1.44221549        1      -0.04275903       0.03023520      -0.05236890
In       1.17756402      -0.83266350       4.80783229        2      -0.04275903       0.03023520      -0.05236890
In      -1.37400731      -1.94313977       3.36561680        3      -0.00000000      -0.00000000       0.00000000
In      -1.17756402       3.74737316       3.12502389        4       0.04275903      -0.03023520      -0.05236890
In       4.31846521      -2.63689689       5.04842520        5       0.04275903       0.06047039      -0.00000000
In      -1.17756402       1.24938265       5.04842520        6       0.04275903       0.06047039       0.00000000
In      -1.57045060       6.52317642       1.68280840        7      -0.04275903      -0.06047039      -0.00000000
In       3.92557863       0.13890638       3.60620971        8      -0.04275903       0.03023520       0.05236890
In      -1.37400731       3.88627954      -0.00000000        9      -0.00000000      -0.00000000       0.00000000
In       3.92557863       5.96832569       0.24059291       10      -0.04275903       0.03023520       0.05236890
In      -1.17756402      -2.08204615       6.49064069       11       0.04275903      -0.03023520      -0.05236890
In       3.92557863       2.63689689       1.68280840       12      -0.04275903      -0.06047039      -0.00000000
In       1.57045059       4.71894304       1.92340131       13       0.04275903      -0.03023520       0.05236890
In       4.12202192       0.00000000      -0.00000000       14       0.00000000      -0.00000000      -0.00000000
In       1.37400730       1.94313977       3.36561680       15      -0.00000000       0.00000000       0.00000000
O        0.78001317       3.87770549       3.70998881       16      -0.02005307      -0.01460020       0.00350383
O       -1.96800144       3.21723158       4.88366454       17      -0.02005307       0.01033451       0.01089223
O       -0.37886376       2.09354155       0.09871916       18      -0.01070609       0.00372520       0.02233990
O       -0.78001317      -0.67762200       1.86241974       19       0.02005307      -0.00426569       0.01439606
O        3.68923550       4.62089707       1.76370058       20       0.01642783       0.01716364      -0.00794383
O        1.80679372       2.72617880       1.51804774       21      -0.01642783       0.01546138       0.01089223
O        1.80679372       5.78099781       0.24565284       22      -0.01642783       0.00170226      -0.01883606
O       -2.10009782       5.48876830       3.46433596       23      -0.00708085       0.00885206       0.02233990
O        3.12687837       1.79273799       6.63251444       24       0.01070609      -0.00372520      -0.02233990
O        4.84811243      -1.60248876       3.26689764       25       0.00708085      -0.00885206      -0.02233990
O        5.87489298       3.07540384       1.60191622       26       0.01070609       0.02120952       0.00794383
O        3.39593141       2.19895857       3.61126964       27      -0.00708085       0.01492088      -0.01883606
O        0.64791679       3.97111174       6.38686160       28      -0.00708085      -0.02377295      -0.00350383
O        2.10009782      -0.08483220       0.34437200       29       0.00708085       0.02377295       0.00350383
O       -3.12687837       0.81087570       5.12931738       30      -0.01070609      -0.02120952      -0.00794383
O        4.71601605       0.66904796       1.84756906       31       0.02005307      -0.01033451      -0.01089223
O        0.94122089       1.16010074       5.21318587       32       0.01642783      -0.01546138      -0.01089223
O        3.12687837      -0.98186229       5.22803654       33       0.01070609      -0.01748432       0.01439606
O        1.96800144       0.00857404       3.02124480       34       0.02005307       0.01460020      -0.00350383
O        0.94122089      -1.89471827       6.48558076       35       0.01642783      -0.00170226       0.01883606
O       -0.64791680       1.68732097       3.11996396       36       0.00708085      -0.01492088       0.01883606
O       -0.94122089      -0.73461753       4.96753302       37      -0.01642783      -0.01716364       0.00794383
O       -0.37886376       4.86814183       1.50319706       38      -0.01070609       0.01748432      -0.01439606
O        3.52802778       4.56390154       4.86881386       39      -0.02005307       0.00426569      -0.01439606
40
Lattice="8.244043838912237 6.461459998288722e-10 2.5653318892788682e-15 -2.74801461357994 7.77255907030998 -1.1191673261973768e-09 -2.7480146126661515 -3.886279534508836 6.731233608049709" Properties=species:S:1:pos:R:3:spacegroup_kinds:I:1:forces:R:3 spacegroup="P 1" unit_cell=conventional occupancy="_JSON {\"0\": {\"In\": 1}, \"1\": {\"In\": 1}, \"2\": {\"In\": 1}, \"3\": {\"In\": 1}, \"4\": {\"In\": 1}, \"5\": {\"In\": 1}, \"6\": {\"In\": 1}, \"7\": {\"In\": 1}, \"8\": {\"In\": 1}, \"9\": {\"In\": 1}, \"10\": {\"In\": 1}, \"11\": {\"In\": 1}, \"12\": {\"In\": 1}, \"13\": {\"In\": 1}, \"14\": {\"In\": 1}, \"15\": {\"In\": 1}, \"16\": {\"O\": 1}, \"17\": {\"O\": 1}, \"18\": {\"O\": 1}, \"19\": {\"O\": 1}, \"20\": {\"O\": 1}, \"21\": {\"O\": 1}, \"22\": {\"O\": 1}, \"23\": {\"O\": 1}, \"24\": {\"O\": 1}, \"25\": {\"O\": 1}, \"26\": {\"O\": 1}, \"27\": {\"O\": 1}, \"28\": {\"O\": 1}, \"29\": {\"O\": 1}, \"30\": {\"O\": 1}, \"31\": {\"O\": 1}, \"32\": {\"O\": 1}, \"33\": {\"O\": 1}, \"34\": {\"O\": 1}, \"35\": {\"O\": 1}, \"36\": {\"O\": 1}, \"37\": {\"O\": 1}, \"38\": {\"O\": 1}, \"39\": {\"O\": 1}}" n_minim_iter=3 energy=-45151.905461300485 stress="-0.000876804785111452 -4.3592711372143587e-13 -8.748294038420179e-13 -4.3592711372143587e-13 -0.0008768047840963023 -6.437248517728031e-13 -8.748294038420179e-13 -6.437248517728031e-13 -0.0008768047848746863" free_energy=-45151.905461300485 pbc="T T T"
In      -3.92246390       2.77360082       5.29283287        0       0.00024460      -0.00017296       0.00029958
In       6.67047851       1.11267872       1.43840073        1      -0.00024460       0.00017296      -0.00029958
In       1.17444928      -0.83046105       4.80401754        2      -0.00024460       0.00017296      -0.00029958
In      -1.37400731      -1.94313977       3.36561680        3       0.00000000       0.00000000      -0.00000000
In      -1.17444928       3.74517070       3.12120913        4       0.00024460      -0.00017296      -0.00029958
In       4.32157994      -2.63249198       5.04842520        5       0.00024460       0.00034592       0.00000000
In      -1.17444928       1.25378755       5.04842520        6       0.00024460       0.00034592       0.00000000
In      -1.57356533       6.51877152       1.68280840        7      -0.00024460      -0.00034592      -0.00000000
In       3.92246389       0.14110884       3.61002447        8      -0.00024460       0.00017296       0.00029958
In      -1.37400731       3.88627954      -0.00000000        9      -0.00000000       0.00000000       0.00000000
In       3.92246389       5.97052814       0.24440767       10      -0.00024460       0.00017296       0.00029958
In      -1.17444928      -2.08424860       6.48682594       11       0.00024460      -0.00017296      -0.00029958
In       3.92246389       2.63249199       1.68280840       12      -0.00024460      -0.00034592      -0.00000000
In       1.57356533       4.71674059       1.92721607       13       0.00024460      -0.00017296       0.00029958
In       4.12202192       0.00000000      -0.00000000       14       0.00000000       0.00000000       0.00000000
In       1.37400730       1.94313977       3.36561680       15      -0.00000000      -0.00000000       0.00000000
O        0.77831378       3.87816191       3.71338296       16       0.01649236      -0.01655141       0.01014857
O       -1.96970083       3.21994280       4.88157219       17       0.01649236       0.01706463       0.00925965
O       -0.37644375       2.09333991       0.10167203       18       0.00598132       0.02449705      -0.00361369
O       -0.77831378      -0.67445436       1.86372155       19      -0.01649236       0.00051322       0.01940823
O        3.69235812       4.61943428       1.76204952       20       0.01059123      -0.00259958       0.02302191
O        1.80367110       2.72687726       1.51595539       21      -0.01059123      -0.02123735       0.00925965
O        1.80367110       5.77883656       0.24609413       22      -0.01059123       0.01863777       0.01376226
O       -2.09910104       5.48655390       3.46728883       23      -0.02110227      -0.01380493      -0.00361369
O        3.12445836       1.79293963       6.62956158       24      -0.00598132      -0.02449705       0.00361369
O        4.84711565      -1.60027436       3.26394477       25       0.02110227       0.01380493       0.00361369
O        5.87247297       3.07786028       1.60356728       26      -0.00598132       0.00911898      -0.02302191
O        3.39692818       2.20262303       3.61171093       27      -0.02110227       0.00377292       0.01376226
O        0.64891357       3.96966168       6.38346744       28      -0.02110227       0.01003201      -0.01014857
O        2.09910104      -0.08338214       0.34776616       29       0.02110227      -0.01003201       0.01014857
O       -3.12445836       0.80841926       5.12766633       30       0.00598132      -0.00911898       0.02302191
O        4.71771544       0.66633674       1.84966141       31      -0.01649236      -0.01706463      -0.00925965
O        0.94434351       1.15940228       5.21527821       32       0.01059123       0.02123735      -0.00925965
O        3.12445836      -0.98452037       5.22933835       33      -0.00598132       0.01537807       0.01940823
O        1.96970083       0.00811763       3.01785064       34      -0.01649236       0.01655141      -0.01014857
O        0.94434351      -1.89255702       6.48513947       35       0.01059123      -0.01863777      -0.01376226
O       -0.64891357       1.68365651       3.11952267       36       0.02110227      -0.00377292      -0.01376226
O       -0.94434351      -0.73315474       4.96918408       37      -0.01059123       0.00259958      -0.02302191
O       -0.37644375       4.87079991       1.50189525       38       0.00598132      -0.01537807      -0.01940823
O        3.52632839       4.56073390       4.86751205       39       0.01649236      -0.00051322      -0.01940823
40
Lattice="8.244043838912237 6.461459998288722e-10 2.5653318892788674e-15 -2.74801461357994 7.77255907030998 -1.1191673261973768e-09 -2.7480146126661515 -3.886279534508836 6.731233608049709" Properties=species:S:1:pos:R:3:spacegroup_kinds:I:1:forces:R:3 spacegroup="P 1" unit_cell=conventional occupancy="_JSON {\"0\": {\"In\": 1}, \"1\": {\"In\": 1}, \"2\": {\"In\": 1}, \"3\": {\"In\": 1}, \"4\": {\"In\": 1}, \"5\": {\"In\": 1}, \"6\": {\"In\": 1}, \"7\": {\"In\": 1}, \"8\": {\"In\": 1}, \"9\": {\"In\": 1}, \"10\": {\"In\": 1}, \"11\": {\"In\": 1}, \"12\": {\"In\": 1}, \"13\": {\"In\": 1}, \"14\": {\"In\": 1}, \"15\": {\"In\": 1}, \"16\": {\"O\": 1}, \"17\": {\"O\": 1}, \"18\": {\"O\": 1}, \"19\": {\"O\": 1}, \"20\": {\"O\": 1}, \"21\": {\"O\": 1}, \"22\": {\"O\": 1}, \"23\": {\"O\": 1}, \"24\": {\"O\": 1}, \"25\": {\"O\": 1}, \"26\": {\"O\": 1}, \"27\": {\"O\": 1}, \"28\": {\"O\": 1}, \"29\": {\"O\": 1}, \"30\": {\"O\": 1}, \"31\": {\"O\": 1}, \"32\": {\"O\": 1}, \"33\": {\"O\": 1}, \"34\": {\"O\": 1}, \"35\": {\"O\": 1}, \"36\": {\"O\": 1}, \"37\": {\"O\": 1}, \"38\": {\"O\": 1}, \"39\": {\"O\": 1}}" n_minim_iter=4 energy=-45151.90599298864 stress="-0.0007522573825610884 4.029858864984283e-13 1.3068897020202454e-13 4.029858864984283e-13 -0.0007522573808308905 9.09190329592472e-13 1.3068897020202454e-13 9.09190329592472e-13 -0.0007522573821037151" free_energy=-45151.90599298864 pbc="T T T"
In      -3.92183162       2.77315373       5.29360725        0       0.00324502      -0.00229457       0.00397432
In       6.66984623       1.11312581       1.43762635        1      -0.00324502       0.00229457      -0.00397432
In       1.17381700      -0.83001396       4.80324316        2      -0.00324502       0.00229457      -0.00397432
In      -1.37400731      -1.94313977       3.36561680        3      -0.00000000       0.00000000       0.00000000
In      -1.17381701       3.74472362       3.12043475        4       0.00324502      -0.00229457      -0.00397432
In       4.32221222      -2.63159781       5.04842520        5       0.00324502       0.00458915      -0.00000000
In      -1.17381701       1.25468173       5.04842520        6       0.00324502       0.00458915      -0.00000000
In      -1.57419761       6.51787735       1.68280840        7      -0.00324502      -0.00458915      -0.00000000
In       3.92183162       0.14155592       3.61079885        8      -0.00324502       0.00229457       0.00397432
In      -1.37400731       3.88627954      -0.00000000        9       0.00000000      -0.00000000      -0.00000000
In       3.92183161       5.97097523       0.24518204       10      -0.00324502       0.00229457       0.00397432
In      -1.17381700      -2.08469569       6.48605156       11       0.00324502      -0.00229457      -0.00397432
In       3.92183161       2.63159781       1.68280840       12      -0.00324502      -0.00458915       0.00000000
In       1.57419761       4.71629350       1.92799045       13       0.00324502      -0.00229457       0.00397432
In       4.12202192       0.00000000      -0.00000000       14      -0.00000000      -0.00000000       0.00000000
In       1.37400730       1.94313977       3.36561680       15       0.00000000      -0.00000000      -0.00000000
O        0.77910502       3.87713911       3.71479368       16       0.00241904       0.00045523      -0.00333523
O       -1.96890959       3.22167592       4.88175261       17       0.00241904      -0.00311601       0.00127337
O       -0.37551031       2.09497248       0.10202660       18      -0.00170226      -0.00020181      -0.00377417
O       -0.77910503      -0.67374405       1.86531268       19      -0.00241904      -0.00266078      -0.00206186
O        3.69372837       4.61892867       1.76328608       20      -0.00374415       0.00048176       0.00171231
O        1.80230085       2.72555356       1.51613580       21       0.00374415      -0.00124202       0.00127337
O        1.80230085       5.77965465       0.24715028       22       0.00374415       0.00172378       0.00043894
O       -2.10032910       5.48512966       3.46764340       23      -0.00037715       0.00167218      -0.00377417
O        3.12352492       1.79130706       6.62920701       24       0.00170226       0.00020181       0.00377417
O        4.84834371      -1.59885012       3.26359020       25       0.00037715      -0.00167218       0.00377417
O        5.87153953       3.07898363       1.60233071       26       0.00170226      -0.00336943      -0.00171231
O        3.39570013       2.20364222       3.61276708       27      -0.00037715      -0.00410461       0.00043894
O        0.64768551       3.97006673       6.38205673       28      -0.00037715       0.00243244       0.00333523
O        2.10032910      -0.08378720       0.34917688       29       0.00037715      -0.00243244      -0.00333523
O       -3.12352492       0.80729590       5.12890289       30      -0.00170226       0.00336943       0.00171231
O        4.71692420       0.66460362       1.84948099       31      -0.00241904       0.00311601      -0.00127337
O        0.94571376       1.16072598       5.21509780       32      -0.00374415       0.00124202      -0.00127337
O        3.12352492      -0.98401115       5.23092949       33       0.00170226       0.00316762      -0.00206186
O        1.96890959       0.00914043       3.01643992       34      -0.00241904      -0.00045523       0.00333523
O        0.94571376      -1.89337511       6.48408332       35      -0.00374415      -0.00172378      -0.00043894
O       -0.64768552       1.68263732       3.11846652       36       0.00037715       0.00410461      -0.00043894
O       -0.94571376      -0.73264913       4.96794752       37       0.00374415      -0.00048176      -0.00171231
O       -0.37551031       4.87029069       1.50030411       38      -0.00170226      -0.00316762       0.00206186
O        3.52711964       4.56002359       4.86592092       39       0.00241904       0.00266078       0.00206186
