40
Lattice="9.167294681760723 7.185124024403427e-10 5.770700727071907e-15 -3.05576489459766 8.64300831257167 -1.2445020926007454e-09 -3.0557648935815376 -4.32150415556732 7.485064764636803" Properties=species:S:1:pos:R:3:spacegroup_kinds:I:1:forces:R:3 spacegroup="P 1" unit_cell=conventional occupancy="_JSON {\"0\": {\"In\": 1}, \"1\": {\"In\": 1}, \"2\": {\"In\": 1}, \"3\": {\"In\": 1}, \"4\": {\"In\": 1}, \"5\": {\"In\": 1}, \"6\": {\"In\": 1}, \"7\": {\"In\": 1}, \"8\": {\"In\": 1}, \"9\": {\"In\": 1}, \"10\": {\"In\": 1}, \"11\": {\"In\": 1}, \"12\": {\"In\": 1}, \"13\": {\"In\": 1}, \"14\": {\"In\": 1}, \"15\": {\"In\": 1}, \"16\": {\"O\": 1}, \"17\": {\"O\": 1}, \"18\": {\"O\": 1}, \"19\": {\"O\": 1}, \"20\": {\"O\": 1}, \"21\": {\"O\": 1}, \"22\": {\"O\": 1}, \"23\": {\"O\": 1}, \"24\": {\"O\": 1}, \"25\": {\"O\": 1}, \"26\": {\"O\": 1}, \"27\": {\"O\": 1}, \"28\": {\"O\": 1}, \"29\": {\"O\": 1}, \"30\": {\"O\": 1}, \"31\": {\"O\": 1}, \"32\": {\"O\": 1}, \"33\": {\"O\": 1}, \"34\": {\"O\": 1}, \"35\": {\"O\": 1}, \"36\": {\"O\": 1}, \"37\": {\"O\": 1}, \"38\": {\"O\": 1}, \"39\": {\"O\": 1}}" n_minim_iter=1 energy=-45151.85946351059 stress="0.003630276078233232 -2.193775808528812e-13 3.2040022099465764e-13 -2.193775808528812e-13 0.0036302760764846936 -2.2337432570396812e-13 3.2040022099465764e-13 -2.2337432570396812e-13 0.0036302760783158213" free_energy=-45151.85946351059 pbc="T T T"
In      -4.36527316       3.08671425       5.88125123        0       0.04262984      -0.03014385       0.05221067
In       7.42103805       1.23478991       1.60381353        1      -0.04262984       0.03014385      -0.05221067
In       1.30950826      -0.92596217       5.34634591        2      -0.04262984       0.03014385      -0.05221067
In      -1.52788245      -2.16075208       3.74253238        3       0.00000000      -0.00000000       0.00000000
In      -1.30950827       4.16709029       3.47507972        4       0.04262984      -0.03014385      -0.05221067
In       4.80202152      -2.93230038       5.61379857        5       0.04262984       0.06028769       0.00000000
In      -1.30950827       1.38920377       5.61379857        6       0.04262984       0.06028769      -0.00000000
In      -1.74625663       7.25380454       1.87126619        7      -0.04262984      -0.06028769      -0.00000000
In       4.36527316       0.15441387       4.00998504        8      -0.04262984       0.03014385       0.05221067
In      -1.52788245       4.32150416      -0.00000000        9       0.00000000       0.00000000      -0.00000000
In       4.36527316       6.63667010       0.26745266       10      -0.04262984       0.03014385       0.05221067
In      -1.30950826      -2.31516594       7.21761210       11       0.04262984      -0.03014385      -0.05221067
In       4.36527316       2.93230039       1.87126619       12      -0.04262984      -0.06028769      -0.00000000
In       1.74625663       5.24746633       2.13871885       13       0.04262984      -0.03014385       0.05221067
In       4.58364734       0.00000000      -0.00000000       14       0.00000000       0.00000000       0.00000000
In       1.52788245       2.16075208       3.74253238       15       0.00000000      -0.00000000      -0.00000000
O        0.93544036       4.32891938       4.06161647       16       0.02224460       0.00043435      -0.04205679
O       -2.12032454       3.51375543       5.44783476       17       0.02224460      -0.03663942       0.02065224
O       -0.44274821       2.32752984       0.01737299       18      -0.02671961      -0.00201650      -0.03931642
O       -0.93544036      -0.80033350       2.02438646       19      -0.02224460      -0.03620508      -0.02140455
O        4.01957523       5.13186797       2.00701346       20      -0.04195885       0.01350573       0.01791187
O        2.09195455       2.98856141       1.70530237       21       0.04195885      -0.00875927       0.02065224
O        2.09195455       6.46481071       0.30171109       22       0.04195885       0.02226500      -0.00274037
O       -2.34199891       6.12383997       3.75990537       23      -0.00700536       0.02586365      -0.03931642
O        3.49851310       1.99397432       7.46769177       24       0.02671961       0.00201650       0.03931642
O        5.39776380      -1.80233581       3.72515938       25       0.00700536      -0.02586365       0.03931642
O        6.55427800       3.33956245       1.73551891       26       0.02671961      -0.03505727      -0.01791187
O        3.76953088       2.35500567       4.04424347       27      -0.00700536      -0.04698085      -0.00274037
O        0.71376598       4.48566683       7.16598067       28      -0.00700536       0.02111719       0.04205679
O        2.34199891      -0.16416267       0.31908408       29       0.00700536      -0.02111719      -0.04205679
O       -3.49851311       0.98194171       5.74954585       30      -0.02671961       0.03505727       0.01791187
O        5.17608943       0.80774873       2.03723000       31      -0.02224460       0.03663942      -0.02065224
O        0.96381034       1.33294275       5.77976238       32      -0.04195885       0.00875927      -0.02065224
O        3.49851310      -1.01203261       5.76691884       33       0.02671961       0.03304077      -0.02140455
O        2.12032453      -0.00741522       3.42344829       34      -0.02224460      -0.00043435       0.04205679
O        0.96381034      -2.14330655       7.18335367       35      -0.04195885      -0.02226500       0.00274037
O       -0.71376599       1.96649849       3.44082129       36       0.00700536       0.04698085       0.00274037
O       -0.96381034      -0.81036380       5.47805129       37       0.04195885      -0.01350573      -0.01791187
O       -0.44274821       5.33353677       1.71814592       38      -0.02671961      -0.03304077       0.02140455
O        3.99120525       5.12183766       5.46067830       39       0.02224460       0.03620508       0.02140455
40
Lattice="9.167294681760724 7.18512402440343e-10 5.770700727071915e-15 -3.055764894597662 8.643008312571668 -1.244502092600746e-09 -3.05576489358154 -4.321504155567319 7.485064764636808" Properties=species:S:1:pos:R:3:spacegroup_kinds:I:1:forces:R:3 spacegroup="P 1" unit_cell=conventional occupancy="_JSON {\"0\": {\"In\": 1}, \"1\": {\"In\": 1}, \"2\": {\"In\": 1}, \"3\": {\"In\": 1}, \"4\": {\"In\": 1}, \"5\": {\"In\": 1}, \"6\": {\"In\": 1}, \"7\": {\"In\": 1}, \"8\": {\"In\": 1}, \"9\": {\"In\": 1}, \"10\": {\"In\": 1}, \"11\": {\"In\": 1}, \"12\": {\"In\": 1}, \"13\": {\"In\": 1}, \"14\": {\"In\": 1}, \"15\": {\"In\": 1}, \"16\": {\"O\": 1}, \"17\": {\"O\": 1}, \"18\": {\"O\": 1}, \"19\": {\"O\": 1}, \"20\": {\"O\": 1}, \"21\": {\"O\": 1}, \"22\": {\"O\": 1}, \"23\": {\"O\": 1}, \"24\": {\"O\": 1}, \"25\": {\"O\": 1}, \"26\": {\"O\": 1}, \"27\": {\"O\": 1}, \"28\": {\"O\": 1}, \"29\": {\"O\": 1}, \"30\": {\"O\": 1}, \"31\": {\"O\": 1}, \"32\": {\"O\": 1}, \"33\": {\"O\": 1}, \"34\": {\"O\": 1}, \"35\": {\"O\": 1}, \"36\": {\"O\": 1}, \"37\": {\"O\": 1}, \"38\": {\"O\": 1}, \"39\": {\"O\": 1}}" n_minim_iter=2 energy=-45151.865044261096 stress="0.00294140767232909 8.86596880710209e-14 -1.2822427967699364e-13 8.86596880710209e-14 0.002941407672094683 1.1933540680747793e-13 -1.2822427967699364e-13 1.1933540680747793e-13 0.0029414076708390836" free_energy=-45151.865044261096 pbc="T T T"
In      -4.36222817       3.08456112       5.88498057        0       0.01196896      -0.00846333       0.01465892
In       7.41799306       1.23694304       1.60008419        1      -0.01196896       0.00846333      -0.01465892
In       1.30646327      -0.92380904       5.34261658        2      -0.01196896       0.00846333      -0.01465892
In      -1.52788245      -2.16075208       3.74253238        3      -0.00000000      -0.00000000      -0.00000000
In      -1.30646328       4.16493716       3.47135038        4       0.01196896      -0.00846333      -0.01465892
In       4.80506651      -2.92799412       5.61379857        5       0.01196896       0.01692666       0.00000000
In      -1.30646328       1.39351004       5.61379857        6       0.01196896       0.01692666       0.00000000
In      -1.74930162       7.24949828       1.87126619        7      -0.01196896      -0.01692666      -0.00000000
In       4.36222817       0.15656700       4.01371437        8      -0.01196896       0.00846333       0.01465892
In      -1.52788245       4.32150416      -0.00000000        9       0.00000000      -0.00000000       0.00000000
In       4.36222817       6.63882323       0.27118199       10      -0.01196896       0.00846333       0.01465892
In      -1.30646328      -2.31731907       7.21388277       11       0.01196896      -0.00846333      -0.01465892
In       4.36222817       2.92799412       1.87126619       12      -0.01196896      -0.01692666       0.00000000
In       1.74930162       5.24531320       2.14244818       13       0.01196896      -0.00846333       0.01465892
In       4.58364734       0.00000000      -0.00000000       14       0.00000000      -0.00000000      -0.00000000
In       1.52788245       2.16075208       3.74253238       15       0.00000000      -0.00000000       0.00000000
O        0.93702926       4.32895041       4.05861241       16       0.02632130       0.00845342      -0.00383986
O       -2.11873564       3.51113833       5.44930992       17       0.02632130      -0.00755213      -0.00540094
O       -0.44465675       2.32738580       0.01456468       18       0.00962351       0.00425499      -0.02585147
O       -0.93702926      -0.80291958       2.02285756       19      -0.02632130       0.00090129      -0.00924081
O        4.01657817       5.13283266       2.00829288       20      -0.01589398      -0.01582664       0.01661066
O        2.09495161       2.98793575       1.70677753       21       0.01589398      -0.02229858      -0.00540094
O        2.09495161       6.46640107       0.30151535       22       0.01589398       0.00647193       0.02201161
O       -2.34249930       6.12568738       3.75709706       23      -0.00080380      -0.01049146      -0.02585147
O        3.50042165       1.99411836       7.47050008       24      -0.00962351      -0.00425499       0.02585147
O        5.39826419      -1.80418322       3.72796770       25       0.00080380       0.01049146       0.02585147
O        6.55618654       3.33705836       1.73423949       26      -0.00962351      -0.02026054      -0.01661066
O        3.76903049       2.35164989       4.04404773       27      -0.00080380      -0.01714230       0.02201161
O        0.71326560       4.48717521       7.16898473       28      -0.00080380       0.02763376       0.00383986
O        2.34249929      -0.16567105       0.31608003       29       0.00080380      -0.02763376      -0.00383986
O       -3.50042165       0.98444580       5.75082527       30       0.00962351       0.02026054       0.01661066
O        5.17450053       0.81036583       2.03575484       31      -0.02632130       0.00755213       0.00540094
O        0.96081328       1.33356841       5.77828722       32      -0.01589398       0.02229858       0.00540094
O        3.50042165      -1.00967256       5.76538995       33      -0.00962351       0.02451553      -0.00924081
O        2.11873563      -0.00744624       3.42645235       34      -0.02632130      -0.00845342       0.00383986
O        0.96081328      -2.14489691       7.18354941       35      -0.01589398      -0.00647193      -0.02201161
O       -0.71326560       1.96985427       3.44101703       36       0.00080380       0.01714230      -0.02201161
O       -0.96081328      -0.81132850       5.47677187       37       0.01589398       0.01582664      -0.01661066
O       -0.44465676       5.33117672       1.71967481       38       0.00962351      -0.02451553       0.00924081
O        3.99279415       5.12442374       5.46220719       39       0.02632130      -0.00090129       0.00924081
40
Lattice="9.167294681760728 7.185124024403434e-10 5.770700727071912e-15 -3.0557648945976634 8.643008312571672 -1.2445020926007466e-09 -3.055764893581541 -4.321504155567321 7.485064764636811" Properties=species:S:1:pos:R:3:spacegroup_kinds:I:1:forces:R:3 spacegroup="P 1" unit_cell=conventional occupancy="_JSON {\"0\": {\"In\": 1}, \"1\": {\"In\": 1}, \"2\": {\"In\": 1}, \"3\": {\"In\": 1}, \"4\": {\"In\": 1}, \"5\": {\"In\": 1}, \"6\": {\"In\": 1}, \"7\": {\"In\": 1}, \"8\": {\"In\": 1}, \"9\": {\"In\": 1}, \"10\": {\"In\": 1}, \"11\": {\"In\": 1}, \"12\": {\"In\": 1}, \"13\": {\"In\": 1}, \"14\": {\"In\": 1}, \"15\": {\"In\": 1}, \"16\": {\"O\": 1}, \"17\": {\"O\": 1}, \"18\": {\"O\": 1}, \"19\": {\"O\": 1}, \"20\": {\"O\": 1}, \"21\": {\"O\": 1}, \"22\": {\"O\": 1}, \"23\": {\"O\": 1}, \"24\": {\"O\": 1}, \"25\": {\"O\": 1}, \"26\": {\"O\": 1}, \"27\": {\"O\": 1}, \"28\": {\"O\": 1}, \"29\": {\"O\": 1}, \"30\": {\"O\": 1}, \"31\": {\"O\": 1}, \"32\": {\"O\": 1}, \"33\": {\"O\": 1}, \"34\": {\"O\": 1}, \"35\": {\"O\": 1}, \"36\": {\"O\": 1}, \"37\": {\"O\": 1}, \"38\": {\"O\": 1}, \"39\": {\"O\": 1}}" n_minim_iter=3 energy=-45151.865971386535 stress="0.0025953998538636664 5.290417214923969e-14 7.07208931706128e-13 5.290417214923969e-14 0.002595399853378553 -4.0569843136457515e-13 7.07208931706128e-13 -4.0569843136457515e-13 0.0025953998532959968" free_energy=-45151.865971386535 pbc="T T T"
In      -4.36078513       3.08354074       5.88674792        0      -0.00170038       0.00120235      -0.00208253
In       7.41655002       1.23796342       1.59831684        1       0.00170038      -0.00120235       0.00208253
In       1.30502024      -0.92278866       5.34084922        2       0.00170038      -0.00120235       0.00208253
In      -1.52788245      -2.16075208       3.74253238        3      -0.00000000      -0.00000000       0.00000000
In      -1.30502024       4.16391678       3.46958303        4      -0.00170038       0.00120235       0.00208253
In       4.80650955      -2.92595336       5.61379857        5      -0.00170038      -0.00240470       0.00000000
In      -1.30502024       1.39555080       5.61379857        6      -0.00170038      -0.00240470      -0.00000000
In      -1.75074466       7.24745752       1.87126619        7       0.00170038       0.00240470      -0.00000000
In       4.36078513       0.15758738       4.01548173        8       0.00170038      -0.00120235      -0.00208253
In      -1.52788245       4.32150416      -0.00000000        9       0.00000000       0.00000000       0.00000000
In       4.36078513       6.63984362       0.27294934       10       0.00170038      -0.00120235      -0.00208253
In      -1.30502024      -2.31833945       7.21211542       11      -0.00170038       0.00120235       0.00208253
In       4.36078513       2.92595336       1.87126619       12       0.00170038       0.00240470       0.00000000
In       1.75074465       5.24429282       2.14421553       13      -0.00170038       0.00120235      -0.00208253
In       4.58364734       0.00000000      -0.00000000       14       0.00000000       0.00000000      -0.00000000
In       1.52788245       2.16075208       3.74253238       15       0.00000000      -0.00000000       0.00000000
O        0.93819421       4.32913607       4.05735228       16       0.02708896       0.00952315       0.01226682
O       -2.11757069       3.50995419       5.44977919       17       0.02708896       0.00586180      -0.01438070
O       -0.44520980       2.32741647       0.01292984       18       0.02353472       0.00837503      -0.01873373
O       -0.93819421      -0.80391805       2.02206671       19      -0.02708896       0.01538495      -0.00211388
O        4.01507344       5.13288725       2.00913687       20      -0.00350309      -0.02620088       0.01661985
O        2.09645634       2.98723214       1.70724681       21       0.00350309      -0.02749365      -0.01438070
O        2.09645634       6.46715928       0.30189006       22       0.00350309       0.00129277       0.03100055
O       -2.34271256       6.12619857       3.75546222       23      -0.00005114      -0.02498043      -0.01873373
O        3.50097469       1.99408769       7.47213492       24      -0.02353472      -0.00837503       0.01873373
O        5.39847745      -1.80469441       3.72960254       25       0.00005114       0.02498043       0.01873373
O        6.55673959       3.33565789       1.73339551       26      -0.02353472      -0.01203637      -0.01661985
O        3.76881723       2.34997848       4.04442244       27      -0.00005114      -0.00373367       0.03100055
O        0.71305233       4.48833542       7.17024486       28      -0.00005114       0.02871410      -0.01226682
O        2.34271256      -0.16683126       0.31481990       29       0.00005114      -0.02871410       0.01226682
O       -3.50097470       0.98584627       5.75166925       30       0.02353472       0.01203637       0.01661985
O        5.17333558       0.81154997       2.03528557       31      -0.02708896      -0.00586180       0.01438070
O        0.95930855       1.33427202       5.77781795       32      -0.00350309       0.02749365       0.01438070
O        3.50097469      -1.00824141       5.76459909       33      -0.02353472       0.02041140      -0.00211388
O        2.11757068      -0.00763191       3.42771248       34      -0.02708896      -0.00952315      -0.01226682
O        0.95930855      -2.14565511       7.18317470       35      -0.00350309      -0.00129277      -0.03100055
O       -0.71305233       1.97152568       3.44064232       36       0.00005114       0.00373367      -0.03100055
O       -0.95930855      -0.81138309       5.47592789       37       0.00350309       0.02620088      -0.01661985
O       -0.44520980       5.32974557       1.72046567       38       0.02353472      -0.02041140       0.00211388
O        3.99395910       5.12542221       5.46299805       39       0.02708896      -0.01538495       0.00211388
40
Lattice="9.167294681760742 7.185124024403443e-10 5.77070072707194e-15 -3.0557648945976683 8.643008312571682 -1.2445020926007483e-09 -3.055764893581546 -4.321504155567326 7.485064764636821" Properties=species:S:1:pos:R:3:spacegroup_kinds:I:1:forces:R:3 spacegroup="P 1" unit_cell=conventional occupancy="_JSON {\"0\": {\"In\": 1}, \"1\": {\"In\": 1}, \"2\": {\"In\": 1}, \"3\": {\"In\": 1}, \"4\": {\"In\": 1}, \"5\": {\"In\": 1}, \"6\": {\"In\": 1}, \"7\": {\"In\": 1}, \"8\": {\"In\": 1}, \"9\": {\"In\": 1}, \"10\": {\"In\": 1}, \"11\": {\"In\": 1}, \"12\": {\"In\": 1}, \"13\": {\"In\": 1}, \"14\": {\"In\": 1}, \"15\": {\"In\": 1}, \"16\": {\"O\": 1}, \"17\": {\"O\": 1}, \"18\": {\"O\": 1}, \"19\": {\"O\": 1}, \"20\": {\"O\": 1}, \"21\": {\"O\": 1}, \"22\": {\"O\": 1}, \"23\": {\"O\": 1}, \"24\": {\"O\": 1}, \"25\": {\"O\": 1}, \"26\": {\"O\": 1}, \"27\": {\"O\": 1}, \"28\": {\"O\": 1}, \"29\": {\"O\": 1}, \"30\": {\"O\": 1}, \"31\": {\"O\": 1}, \"32\": {\"O\": 1}, \"33\": {\"O\": 1}, \"34\": {\"O\": 1}, \"35\": {\"O\": 1}, \"36\": {\"O\": 1}, \"37\": {\"O\": 1}, \"38\": {\"O\": 1}, \"39\": {\"O\": 1}}" n_minim_iter=4 energy=-45151.867062445395 stress="0.0020389076372130236 -1.8825379613042426e-13 -4.664322921974998e-13 -1.8825379613042426e-13 0.002038907637355256 -1.952892838759031e-13 -4.664322921974998e-13 -1.952892838759031e-13 0.002038907637555221" free_energy=-45151.867062445395 pbc="T T T"
In      -4.35860164       3.08199678       5.88942214        0      -0.01841576       0.01302191      -0.02255461
In       7.41436653       1.23950738       1.59564262        1       0.01841576      -0.01302191       0.02255461
In       1.30283675      -0.92124470       5.33817501        2       0.01841576      -0.01302191       0.02255461
In      -1.52788245      -2.16075208       3.74253238        3       0.00000000       0.00000000       0.00000000
In      -1.30283675       4.16237282       3.46690881        4      -0.01841576       0.01302191       0.02255461
In       4.80869304      -2.92286544       5.61379857        5      -0.01841576      -0.02604382       0.00000000
In      -1.30283675       1.39863872       5.61379857        6      -0.01841576      -0.02604382       0.00000000
In      -1.75292815       7.24436960       1.87126619        7       0.01841576       0.02604382      -0.00000000
In       4.35860164       0.15913134       4.01815595        8       0.01841576      -0.01302191      -0.02255461
In      -1.52788245       4.32150416      -0.00000000        9       0.00000000      -0.00000000       0.00000000
In       4.35860164       6.64138758       0.27562356       10       0.01841576      -0.01302191      -0.02255461
In      -1.30283675      -2.31988342       7.20944120       11      -0.01841576       0.01302191       0.02255461
In       4.35860164       2.92286544       1.87126619       12       0.01841576       0.02604382      -0.00000000
In       1.75292814       5.24274886       2.14688975       13      -0.01841576       0.01302191      -0.02255461
In       4.58364734       0.00000000      -0.00000000       14      -0.00000000      -0.00000000      -0.00000000
In       1.52788245       2.16075208       3.74253238       15       0.00000000       0.00000000      -0.00000000
O        0.94197022       4.33009294       4.05620496       16       0.02353467       0.00176075       0.02765096
O       -2.11379468       3.50848215       5.44952418       17       0.02353467       0.02306606      -0.01535034
O       -0.44443685       2.32806791       0.00899685       18       0.03125183       0.01760920      -0.00589878
O       -0.94197022      -0.80443323       2.02066438       19      -0.02353467       0.02482681       0.01230062
O        4.01242692       5.13113172       2.01166752       20       0.01390200      -0.02823247       0.01819940
O        2.09910287       2.98416276       1.70699180       21      -0.01390200      -0.02987738      -0.01535034
O        2.09910287       6.46847312       0.30467572       22      -0.01390200       0.00164491       0.03354974
O       -2.34306909       6.12525268       3.75152924       23      -0.00618483      -0.03533424      -0.00589878
O        3.50020174       1.99343625       7.47606790       24      -0.03125183      -0.01760920       0.00589878
O        5.39883398      -1.80374852       3.73353552       25       0.00618483       0.03533424       0.00589878
O        6.55596663       3.33257754       1.73086486       26      -0.03125183       0.00369611      -0.01819940
O        3.76846069       2.34704537       4.04720810       27      -0.00618483       0.01255863       0.03354974
O        0.71269580       4.49221443       7.17139218       28      -0.00618483       0.02277561      -0.02765096
O        2.34306909      -0.17071027       0.31367258       29       0.00618483      -0.02277561       0.02765096
O       -3.50020174       0.98892662       5.75419990       30       0.03125183      -0.00369611       0.01819940
O        5.16955957       0.81302201       2.03554058       31      -0.02353467      -0.02306606       0.01535034
O        0.95666202       1.33734140       5.77807296       32       0.01390200       0.02987738       0.01535034
O        3.50020174      -1.00450963       5.76319676       33      -0.03125183       0.01391309       0.01230062
O        2.11379467      -0.00858878       3.42885980       34      -0.02353467      -0.00176075      -0.02765096
O        0.95666202      -2.14696896       7.18038904       35       0.01390200      -0.00164491      -0.03354974
O       -0.71269580       1.97445879       3.43785666       36       0.00618483      -0.01255863      -0.03354974
O       -0.95666203      -0.80962756       5.47339724       37      -0.01390200       0.02823247      -0.01819940
O       -0.44443685       5.32601379       1.72186800       38       0.03125183      -0.01391309      -0.01230062
O        3.99773511       5.12593739       5.46440038       39       0.02353467      -0.02482681      -0.01230062
40
Lattice="9.167294681760763 7.185124024403459e-10 5.7707007270719885e-15 -3.055764894597675 8.6430083125717 -1.2445020926007512e-09 -3.0557648935815527 -4.321504155567335 7.485064764636838" Properties=species:S:1:pos:R:3:spacegroup_kinds:I:1:forces:R:3 spacegroup="P 1" unit_cell=conventional occupancy="_JSON {\"0\": {\"In\": 1}, \"1\": {\"In\": 1}, \"2\": {\"In\": 1}, \"3\": {\"In\": 1}, \"4\": {\"In\": 1}, \"5\": {\"In\": 1}, \"6\": {\"In\": 1}, \"7\": {\"In\": 1}, \"8\": {\"In\": 1}, \"9\": {\"In\": 1}, \"10\": {\"In\": 1}, \"11\": {\"In\": 1}, \"12\": {\"In\": 1}, \"13\": {\"In\": 1}, \"14\": {\"In\": 1}, \"15\": {\"In\": 1}, \"16\": {\"O\": 1}, \"17\": {\"O\": 1}, \"18\": {\"O\": 1}, \"19\": {\"O\": 1}, \"20\": {\"O\": 1}, \"21\": {\"O\": 1}, \"22\": {\"O\": 1}, \"23\": {\"O\": 1}, \"24\": {\"O\": 1}, \"25\": {\"O\": 1}, \"26\": {\"O\": 1}, \"27\": {\"O\": 1}, \"28\": {\"O\": 1}, \"29\": {\"O\": 1}, \"30\": {\"O\": 1}, \"31\": {\"O\": 1}, \"32\": {\"O\": 1}, \"33\": {\"O\": 1}, \"34\": {\"O\": 1}, \"35\": {\"O\": 1}, \"36\": {\"O\": 1}, \"37\": {\"O\": 1}, \"38\": {\"O\": 1}, \"39\": {\"O\": 1}}" n_minim_iter=5 energy=-45151.86999752959 stress="0.0020133907675215063 -1.859871644368885e-14 -1.1676008039453023e-13 -1.859871644368885e-14 0.0020133907672297644 5.298807571093735e-13 -1.1676008039453023e-13 5.298807571093735e-13 0.0020133907673813636" free_energy=-45151.86999752959 pbc="T T T"
In      -4.35879242       3.08213168       5.88918849        0      -0.00223867       0.00158298      -0.00274179
In       7.41455731       1.23937248       1.59587627        1       0.00223867      -0.00158298       0.00274179
In       1.30302752      -0.92137959       5.33840865        2       0.00223867      -0.00158298       0.00274179
In      -1.52788245      -2.16075208       3.74253238        3       0.00000000      -0.00000000      -0.00000000
In      -1.30302752       4.16250772       3.46714246        4      -0.00223867       0.00158298       0.00274179
In       4.80850226      -2.92313523       5.61379857        5      -0.00223867      -0.00316595      -0.00000000
In      -1.30302752       1.39836893       5.61379857        6      -0.00223867      -0.00316595      -0.00000000
In      -1.75273737       7.24463939       1.87126619        7       0.00223867       0.00316595      -0.00000000
In       4.35879241       0.15899644       4.01792230        8       0.00223867      -0.00158298      -0.00274179
In      -1.52788245       4.32150416      -0.00000000        9       0.00000000       0.00000000       0.00000000
In       4.35879241       6.64125268       0.27538991       10       0.00223867      -0.00158298      -0.00274179
In      -1.30302752      -2.31974852       7.20967485       11      -0.00223867       0.00158298       0.00274179
In       4.35879241       2.92313524       1.87126619       12       0.00223867       0.00316595      -0.00000000
In       1.75273737       5.24288376       2.14665610       13      -0.00223867       0.00158298      -0.00274179
In       4.58364734       0.00000000      -0.00000000       14      -0.00000000      -0.00000000      -0.00000000
In       1.52788245       2.16075208       3.74253238       15      -0.00000000      -0.00000000       0.00000000
O        0.94887664       4.33195774       4.05886826       16       0.00794982      -0.02275512      -0.00502781
O       -2.10688825       3.50985624       5.44657756       17       0.00794982       0.00702335       0.02222042
O       -0.43908105       2.33053846       0.00415111       18      -0.01218212       0.02125878      -0.00243607
O       -0.94887665      -0.80119434       2.02038106       19      -0.00794982      -0.01573177       0.01719261
O        4.01142027       5.12509514       2.01622995       20       0.00397174       0.01432531       0.01962868
O        2.10010951       2.97719329       1.70404518       21      -0.00397174      -0.00983628       0.02222042
O        2.10010951       6.46940601       0.31218477       22      -0.00397174       0.02416159      -0.00259174
O       -2.34361308       6.11937967       3.74668349       23      -0.02410368       0.00439915      -0.00243607
O        3.49484594       1.99096570       7.48091365       24       0.01218212      -0.02125878       0.00243607
O        5.39937797      -1.79787551       3.73838127       25       0.02410368      -0.00439915       0.00243607
O        6.55061084       3.32961628       1.72630243       26       0.01218212       0.00851969      -0.01962868
O        3.76791671       2.34578533       4.05471715       27      -0.02410368      -0.00430927      -0.00259174
O        0.71215181       4.49934747       7.16872888       28      -0.02410368      -0.00008988       0.00502781
O        2.34361308      -0.17784331       0.31633588       29       0.02410368       0.00008988      -0.00502781
O       -3.49484595       0.99188788       5.75876233       30      -0.01218212      -0.00851969       0.01962868
O        5.16265314       0.81164792       2.03848720       31      -0.00794982      -0.00702335      -0.02222042
O        0.95565538       1.34431087       5.78101958       32       0.00397174       0.00983628      -0.02222042
O        3.49484594      -0.99907782       5.76291344       33       0.01218212       0.01273909       0.01719261
O        2.10688825      -0.01045358       3.42619650       34      -0.00794982       0.02275512       0.00502781
O        0.95565538      -2.14790185       7.17287999       35       0.00397174      -0.02416159       0.00259174
O       -0.71215182       1.97571883       3.43034761       36       0.02410368       0.00430927       0.00259174
O       -0.95565538      -0.80359098       5.46883481       37      -0.00397174      -0.01432531      -0.01962868
O       -0.43908105       5.32058198       1.72215132       38      -0.01218212      -0.01273909      -0.01719261
O        4.00464154       5.12269850       5.46468370       39       0.00794982       0.01573177      -0.01719261
40