40
Lattice="9.502159727060468 7.447565248983161e-10 9.621243506010219e-15 -3.167386576388986 8.958722104981298 -1.2899821182539115e-09 -3.1673865753357493 -4.479361051745874 7.758480929218993" Properties=species:S:1:pos:R:3:spacegroup_kinds:I:1:forces:R:3 spacegroup="P 1" unit_cell=conventional occupancy="_JSON {\"0\": {\"In\": 1}, \"1\": {\"In\": 1}, \"2\": {\"In\": 1}, \"3\": {\"In\": 1}, \"4\": {\"In\": 1}, \"5\": {\"In\": 1}, \"6\": {\"In\": 1}, \"7\": {\"In\": 1}, \"8\": {\"In\": 1}, \"9\": {\"In\": 1}, \"10\": {\"In\": 1}, \"11\": {\"In\": 1}, \"12\": {\"In\": 1}, \"13\": {\"In\": 1}, \"14\": {\"In\": 1}, \"15\": {\"In\": 1}, \"16\": {\"O\": 1}, \"17\": {\"O\": 1}, \"18\": {\"O\": 1}, \"19\": {\"O\": 1}, \"20\": {\"O\": 1}, \"21\": {\"O\": 1}, \"22\": {\"O\": 1}, \"23\": {\"O\": 1}, \"24\": {\"O\": 1}, \"25\": {\"O\": 1}, \"26\": {\"O\": 1}, \"27\": {\"O\": 1}, \"28\": {\"O\": 1}, \"29\": {\"O\": 1}, \"30\": {\"O\": 1}, \"31\": {\"O\": 1}, \"32\": {\"O\": 1}, \"33\": {\"O\": 1}, \"34\": {\"O\": 1}, \"35\": {\"O\": 1}, \"36\": {\"O\": 1}, \"37\": {\"O\": 1}, \"38\": {\"O\": 1}, \"39\": {\"O\": 1}}" n_minim_iter=8 energy=-45151.646609151285 stress="0.004280675264539755 1.4554953154943257e-13 2.791174703626031e-14 1.4554953154943257e-13 0.004280675263980794 1.7016218853781226e-13 2.791174703626031e-14 1.7016218853781226e-13 0.004280675263718091" free_energy=-45151.646609151285 pbc="T T T"
In      -4.48769823       3.17328185       6.14143600        0      -0.00486066       0.00343700      -0.00595306
In       7.65508480       1.30607921       1.61704492        1       0.00486066      -0.00343700       0.00595306
In       1.32031165      -0.93360132       5.49628539        2       0.00486066      -0.00343700       0.00595306
In      -1.58369329      -2.23968052       3.87924046        3       0.00000000       0.00000000       0.00000000
In      -1.32031166       4.29312211       3.55666516        4      -0.00486066       0.00343700       0.00595306
In       5.01446150      -2.98704291       5.81886069        5      -0.00486066      -0.00687400       0.00000000
In      -1.32031166       1.49231814       5.81886069        6      -0.00486066      -0.00687400      -0.00000000
In      -1.84707492       7.46640396       1.93962023        7       0.00486066       0.00687400      -0.00000000
In       4.48769823       0.18623894       4.20181577        8       0.00486066      -0.00343700      -0.00595306
In      -1.58369329       4.47936105      -0.00000000        9      -0.00000000      -0.00000000       0.00000000
In       4.48769823       6.90528052       0.32257530       10       0.00486066      -0.00343700      -0.00595306
In      -1.32031165      -2.42591946       7.43590562       11      -0.00486066       0.00343700       0.00595306
In       4.48769823       2.98704291       1.93962023       12       0.00486066       0.00687400       0.00000000
In       1.84707492       5.41296238       2.26219553       13      -0.00486066       0.00343700      -0.00595306
In       4.75107986       0.00000000      -0.00000000       14      -0.00000000      -0.00000000      -0.00000000
In       1.58369329       2.23968053       3.87924046       15       0.00000000       0.00000000       0.00000000
O        1.07747848       4.49381874       4.17103460       16      -0.00038117      -0.00461992      -0.00608849
O       -2.08990810       3.60499309       5.66044290       17      -0.00038117      -0.00296283       0.00704521
O       -0.45157170       2.44651431      -0.09149393       18      -0.00727614       0.00191265      -0.00139937
O       -1.07747848      -0.85991028       2.07299657       19       0.00038117      -0.00758275       0.00095672
O        4.09545610       5.28644729       2.16449050       20      -0.00266632       0.00677482       0.00235609
O        2.23931704       3.00840041       1.78120243       21       0.00266632       0.00134698       0.00704521
O        2.23931704       6.75740793       0.38328806       22       0.00266632       0.00542784      -0.00468913
O       -2.45711971       6.32928269       3.78774654       23      -0.00422865       0.00622246      -0.00139937
O        3.61895827       2.03284675       7.84997485       24       0.00727614      -0.00191265       0.00139937
O        5.62450628      -1.84992163       3.97073439       25       0.00422865      -0.00622246       0.00139937
O        6.78634484       3.38370162       1.71474996       26       0.00727614      -0.00025556      -0.00235609
O        3.87765345       2.35532391       4.26252853       27      -0.00422865      -0.00432312      -0.00468913
O        0.71026687       4.75347656       7.46668679       28      -0.00422865      -0.00189934       0.00608849
O        2.45711970      -0.27411551       0.29179414       29       0.00422865       0.00189934      -0.00608849
O       -3.61895827       1.09565944       6.04373096       30      -0.00727614       0.00025556       0.00235609
O        5.25729467       0.87436797       2.09803803       31       0.00038117       0.00296283      -0.00704521
O        0.92806953       1.47096064       5.97727849       32      -0.00266632      -0.00134698      -0.00704521
O        3.61895827      -0.93718731       5.95223704       33       0.00727614       0.00216821       0.00095672
O        2.08990809      -0.01445769       3.58744632       34       0.00038117       0.00461992       0.00608849
O        0.92806953      -2.27804688       7.37519286       35      -0.00266632      -0.00542784       0.00468913
O       -0.71026687       2.12403714       3.49595240       36       0.00422865       0.00432312       0.00468913
O       -0.92806953      -0.80708624       5.59399043       37       0.00266632      -0.00677482      -0.00235609
O       -0.45157170       5.41654837       1.80624388       38      -0.00727614      -0.00216821      -0.00095672
O        4.24486505       5.33927134       5.68548435       39      -0.00038117       0.00758275      -0.00095672
