40
Lattice="9.026236945647744 7.074551774119944e-10 -8.061885431339424e-16 -3.0087456492162428 8.510017803582938 -1.2253431829280303e-09 -3.00874564821575 -4.255008901084016 7.369891605377583" Properties=species:S:1:pos:R:3:spacegroup_kinds:I:1:forces:R:3 spacegroup="P 1" unit_cell=conventional occupancy="_JSON {\"0\": {\"In\": 1}, \"1\": {\"In\": 1}, \"2\": {\"In\": 1}, \"3\": {\"In\": 1}, \"4\": {\"In\": 1}, \"5\": {\"In\": 1}, \"6\": {\"In\": 1}, \"7\": {\"In\": 1}, \"8\": {\"In\": 1}, \"9\": {\"In\": 1}, \"10\": {\"In\": 1}, \"11\": {\"In\": 1}, \"12\": {\"In\": 1}, \"13\": {\"In\": 1}, \"14\": {\"In\": 1}, \"15\": {\"In\": 1}, \"16\": {\"O\": 1}, \"17\": {\"O\": 1}, \"18\": {\"O\": 1}, \"19\": {\"O\": 1}, \"20\": {\"O\": 1}, \"21\": {\"O\": 1}, \"22\": {\"O\": 1}, \"23\": {\"O\": 1}, \"24\": {\"O\": 1}, \"25\": {\"O\": 1}, \"26\": {\"O\": 1}, \"27\": {\"O\": 1}, \"28\": {\"O\": 1}, \"29\": {\"O\": 1}, \"30\": {\"O\": 1}, \"31\": {\"O\": 1}, \"32\": {\"O\": 1}, \"33\": {\"O\": 1}, \"34\": {\"O\": 1}, \"35\": {\"O\": 1}, \"36\": {\"O\": 1}, \"37\": {\"O\": 1}, \"38\": {\"O\": 1}, \"39\": {\"O\": 1}}" n_minim_iter=6 energy=-45151.90823250189 stress="-9.274860763610425e-05 -2.5362269386127687e-13 8.326843837352674e-14 -2.5362269386127687e-13 -9.274860788490618e-05 -2.523933940420877e-13 8.326843837352674e-14 -2.523933940420877e-13 -9.274860866201814e-05" free_energy=-45151.90823250189 pbc="T T T"
In      -4.30917914       3.04704979       5.77719235        0       0.00545251      -0.00385551       0.00667793
In       7.31792479       1.20795911       1.59269925        1      -0.00545251       0.00385551      -0.00667793
In       1.30043349      -0.91954534       5.27764505        2      -0.00545251       0.00385551      -0.00667793
In      -1.50437283      -2.12750445       3.68494580        3       0.00000000      -0.00000000       0.00000000
In      -1.30043350       4.11080202       3.43517215        4       0.00545251      -0.00385551      -0.00667793
In       4.71705780      -2.90284291       5.52741870        5       0.00545251       0.00771101      -0.00000000
In      -1.30043350       1.35216600       5.52741870        6       0.00545251       0.00771101      -0.00000000
In      -1.70831216       7.15785181       1.84247290        7      -0.00545251      -0.00771101      -0.00000000
In       4.30917914       0.14420689       3.93471945        8      -0.00545251       0.00385551       0.00667793
In      -1.50437283       4.25500890      -0.00000000        9       0.00000000      -0.00000000      -0.00000000
In       4.30917914       6.52672024       0.24977365       10      -0.00545251       0.00385551       0.00667793
In      -1.30043349      -2.27171133       7.12011795       11       0.00545251      -0.00385551      -0.00667793
In       4.30917914       2.90284291       1.84247290       12      -0.00545251      -0.00771101      -0.00000000
In       1.70831215       5.17455425       2.09224655       13       0.00545251      -0.00385551       0.00667793
In       4.51311847       0.00000000      -0.00000000       14      -0.00000000      -0.00000000       0.00000000
In       1.50437282       2.12750445       3.68494580       15      -0.00000000      -0.00000000       0.00000000
O        0.89117096       4.25683248       4.00666475       16       0.00093997      -0.00230015       0.00614620
O       -2.11757469       3.46896167       5.36497996       17       0.00093997       0.00647284      -0.00108112
O       -0.44231616       2.28437501       0.04685264       18       0.00424738       0.00413415       0.00296961
O       -0.89117097      -0.78422365       2.00175311       19      -0.00093997       0.00417270       0.00506509
O        3.97642665       5.06628294       1.95490046       20       0.00578933      -0.00245819       0.00209548
O        2.04106464       2.96765246       1.68003416       21      -0.00578933      -0.00304383      -0.00108112
O        2.04106464       6.35363939       0.27486630       22      -0.00578933       0.00058564       0.00317659
O       -2.30116813       6.03807470       3.73179844       23      -0.00248192      -0.00538252       0.00296961
O        3.45106181       1.97063390       7.32303896       24      -0.00424738      -0.00413415      -0.00296961
O        5.30991378      -1.78306579       3.63809316       25       0.00248192       0.00538252      -0.00296961
O        6.45980746       3.31026753       1.73004533       26      -0.00424738       0.00463884      -0.00209547
O        3.71632316       2.34029936       3.95981211       27      -0.00248192       0.00526302       0.00317659
O        0.70757751       4.38665266       7.04817265       28      -0.00248192       0.00011950      -0.00614620
O        2.30116813      -0.13164375       0.32171895       29       0.00248192      -0.00011950       0.00614620
O       -3.45106181       0.94474137       5.63984627       30       0.00424738      -0.00463884       0.00209547
O        5.12632033       0.78604724       2.00491164       31      -0.00093997      -0.00647284       0.00108112
O        0.96768100       1.28735645       5.68985744       32       0.00578933       0.00304383       0.00108112
O        3.45106181      -1.02589252       5.68669891       33      -0.00424738      -0.00050468       0.00506509
O        2.11757468      -0.00182358       3.36322685       34      -0.00093997       0.00230015      -0.00614620
O        0.96768100      -2.09863048       7.09502529       35       0.00578933      -0.00058564      -0.00317659
O       -0.70757752       1.91470955       3.41007949       36       0.00248192      -0.00526302      -0.00317659
O       -0.96768101      -0.81127404       5.41499114       37      -0.00578933       0.00245819      -0.00209547
O       -0.44231616       5.28090143       1.68319269       38       0.00424738       0.00050468      -0.00506509
O        3.89991661       5.03923256       5.36813849       39       0.00093997      -0.00417270      -0.00506509
