40
Lattice="9.167294681760724 7.185120688616254e-10 7.968589239634595e-15 -3.0557648945976608 8.64300831257167 -1.2445030748397569e-09 -3.0557648935815367 -4.321504155567322 7.485064764636804" Properties=species:S:1:pos:R:3:spacegroup_kinds:I:1:forces:R:3 spacegroup="P 1" unit_cell=conventional occupancy="_JSON {\"0\": {\"In\": 1}, \"1\": {\"In\": 1}, \"2\": {\"In\": 1}, \"3\": {\"In\": 1}, \"4\": {\"In\": 1}, \"5\": {\"In\": 1}, \"6\": {\"In\": 1}, \"7\": {\"In\": 1}, \"8\": {\"In\": 1}, \"9\": {\"In\": 1}, \"10\": {\"In\": 1}, \"11\": {\"In\": 1}, \"12\": {\"In\": 1}, \"13\": {\"In\": 1}, \"14\": {\"In\": 1}, \"15\": {\"In\": 1}, \"16\": {\"O\": 1}, \"17\": {\"O\": 1}, \"18\": {\"O\": 1}, \"19\": {\"O\": 1}, \"20\": {\"O\": 1}, \"21\": {\"O\": 1}, \"22\": {\"O\": 1}, \"23\": {\"O\": 1}, \"24\": {\"O\": 1}, \"25\": {\"O\": 1}, \"26\": {\"O\": 1}, \"27\": {\"O\": 1}, \"28\": {\"O\": 1}, \"29\": {\"O\": 1}, \"30\": {\"O\": 1}, \"31\": {\"O\": 1}, \"32\": {\"O\": 1}, \"33\": {\"O\": 1}, \"34\": {\"O\": 1}, \"35\": {\"O\": 1}, \"36\": {\"O\": 1}, \"37\": {\"O\": 1}, \"38\": {\"O\": 1}, \"39\": {\"O\": 1}}" n_minim_iter=6 energy=-45151.89483377518 stress="0.001374473572423106 -2.1361382897763245e-13 -6.510589177561861e-14 -2.1361382897763245e-13 0.0013744735719751254 2.144339703375985e-14 -6.510589177561861e-14 2.144339703375985e-14 0.0013744735728321855" free_energy=-45151.89483377518 pbc="T T T"
In      -4.36527316       3.08671425       5.88125123        0      -0.00267008       0.00188803      -0.00327017
In       7.42103805       1.23478991       1.60381353        1       0.00267008      -0.00188803       0.00327017
In       1.30950826      -0.92596217       5.34634591        2       0.00267008      -0.00188803       0.00327017
In      -1.52788245      -2.16075208       3.74253238        3      -0.00000000      -0.00000000      -0.00000000
In      -1.30950827       4.16709029       3.47507972        4      -0.00267008       0.00188803       0.00327017
In       4.80202152      -2.93230038       5.61379857        5      -0.00267008      -0.00377607       0.00000000
In      -1.30950827       1.38920377       5.61379857        6      -0.00267008      -0.00377607       0.00000000
In      -1.74625663       7.25380454       1.87126619        7       0.00267008       0.00377607       0.00000000
In       4.36527316       0.15441387       4.00998504        8       0.00267008      -0.00188803      -0.00327017
In      -1.52788245       4.32150416      -0.00000000        9      -0.00000000      -0.00000000       0.00000000
In       4.36527316       6.63667010       0.26745266       10       0.00267008      -0.00188803      -0.00327017
In      -1.30950826      -2.31516594       7.21761210       11      -0.00267008       0.00188803       0.00327017
In       4.36527316       2.93230039       1.87126619       12       0.00267008       0.00377607      -0.00000000
In       1.74625663       5.24746633       2.13871885       13      -0.00267008       0.00188803      -0.00327017
In       4.58364734       0.00000000      -0.00000000       14      -0.00000000       0.00000000      -0.00000000
In       1.52788245       2.16075208       3.74253238       15       0.00000000      -0.00000000      -0.00000000
O        0.93544036       4.32891938       4.06161647       16       0.00005577      -0.00591627       0.00481241
O       -2.12032454       3.51375543       5.44783476       17       0.00005577       0.00712581       0.00271744
O       -0.44274821       2.32752984       0.01737299       18       0.00115895       0.00634574       0.00406855
O       -0.93544036      -0.80033350       2.02438646       19      -0.00005577       0.00120954       0.00752985
O        4.01957523       5.13186797       2.00701346       20       0.00669969       0.00113944       0.00346130
O        2.09195455       2.98856141       1.70530237       21      -0.00669969      -0.00242785       0.00271744
O        2.09195455       6.46481071       0.30171109       22      -0.00669969       0.00356729       0.00074386
O       -2.34199891       6.12383997       3.75990537       23      -0.00559651      -0.00320792       0.00406855
O        3.49851310       1.99397432       7.46769177       24      -0.00115895      -0.00634574      -0.00406855
O        5.39776380      -1.80233581       3.72515938       25       0.00559650       0.00320792      -0.00406855
O        6.55427800       3.33956245       1.73551891       26      -0.00115895       0.00669634      -0.00346130
O        3.76953088       2.35500567       4.04424347       27      -0.00559650       0.00512743       0.00074386
O        0.71376598       4.48566683       7.16598067       28      -0.00559650      -0.00191951      -0.00481241
O        2.34199891      -0.16416267       0.31908408       29       0.00559651       0.00191951       0.00481241
O       -3.49851311       0.98194171       5.74954585       30       0.00115895      -0.00669634       0.00346130
O        5.17608943       0.80774873       2.03723000       31      -0.00005577      -0.00712581      -0.00271744
O        0.96381034       1.33294275       5.77976238       32       0.00669969       0.00242785      -0.00271744
O        3.49851310      -1.01203261       5.76691884       33      -0.00115895      -0.00035060       0.00752985
O        2.12032453      -0.00741522       3.42344829       34      -0.00005577       0.00591627      -0.00481241
O        0.96381034      -2.14330655       7.18335367       35       0.00669969      -0.00356729      -0.00074386
O       -0.71376599       1.96649849       3.44082129       36       0.00559650      -0.00512743      -0.00074386
O       -0.96381034      -0.81036380       5.47805129       37      -0.00669969      -0.00113944      -0.00346130
O       -0.44274821       5.33353677       1.71814592       38       0.00115895       0.00035060      -0.00752985
O        3.99120525       5.12183766       5.46067830       39       0.00005577      -0.00120954      -0.00752985
