40
Lattice="5.589771 0.0 0.0 0.0 5.775531 0.0 0.0 0.0 16.135291" Properties=species:S:1:pos:R:3:spacegroup_kinds:I:1:forces:R:3 spacegroup="P 1" unit_cell=conventional occupancy="_JSON {\"0\": {\"In\": 1}, \"1\": {\"In\": 1}, \"2\": {\"In\": 1}, \"3\": {\"In\": 1}, \"4\": {\"In\": 1}, \"5\": {\"In\": 1}, \"6\": {\"In\": 1}, \"7\": {\"In\": 1}, \"8\": {\"In\": 1}, \"9\": {\"In\": 1}, \"10\": {\"In\": 1}, \"11\": {\"In\": 1}, \"12\": {\"In\": 1}, \"13\": {\"In\": 1}, \"14\": {\"In\": 1}, \"15\": {\"In\": 1}, \"16\": {\"O\": 1}, \"17\": {\"O\": 1}, \"18\": {\"O\": 1}, \"19\": {\"O\": 1}, \"20\": {\"O\": 1}, \"21\": {\"O\": 1}, \"22\": {\"O\": 1}, \"23\": {\"O\": 1}, \"24\": {\"O\": 1}, \"25\": {\"O\": 1}, \"26\": {\"O\": 1}, \"27\": {\"O\": 1}, \"28\": {\"O\": 1}, \"29\": {\"O\": 1}, \"30\": {\"O\": 1}, \"31\": {\"O\": 1}, \"32\": {\"O\": 1}, \"33\": {\"O\": 1}, \"34\": {\"O\": 1}, \"35\": {\"O\": 1}, \"36\": {\"O\": 1}, \"37\": {\"O\": 1}, \"38\": {\"O\": 1}, \"39\": {\"O\": 1}}" n_minim_iter=1 energy=-45150.26393364103 stress="0.001697197991147484 -3.311478390121399e-13 -6.262307502284395e-14 -3.311478390121399e-13 0.001052706733671937 5.4741954410824097e-14 -6.262307502284395e-14 5.4741954410824097e-14 0.00038113555185714294" free_energy=-45150.26393364103 pbc="T T T"
In       2.80276149       4.57778405       9.19871326        0      -0.01815941       0.03134139       0.00489521
In       0.00787599       4.08551245       6.93657774        1      -0.01815941      -0.03134139      -0.00489521
In       2.78700951       1.69001855      15.00422324        2       0.01815941       0.03134139      -0.00489521
In       5.58189501       1.19774695       1.13106776        3       0.01815941      -0.03134139       0.00489521
In       2.78700951       1.19774695       6.93657774        4       0.01815941      -0.03134139      -0.00489521
In       5.58189501       1.69001855       9.19871326        5       0.01815941       0.03134139       0.00489521
In       2.80276149       4.08551245       1.13106776        6      -0.01815941      -0.03134139       0.00489521
In       0.00787599       4.57778405      15.00422324        7      -0.01815941       0.03134139      -0.00489521
In       2.78882060       4.26397058      13.20692931        8      -0.02770516       0.03614746      -0.02058803
In       5.58370610       4.39932592       2.92836169        9      -0.02770516      -0.03614746       0.02058803
In       2.80095040       1.37620508      10.99600719       10       0.02770516       0.03614746       0.02058803
In       0.00606490       1.51156042       5.13928381       11       0.02770516      -0.03614746      -0.02058803
In       2.80095040       1.51156042       2.92836169       12       0.02770516      -0.03614746       0.02058803
In       0.00606490       1.37620508      13.20692931       13       0.02770516       0.03614746      -0.02058803
In       2.78882060       4.39932592       5.13928381       14      -0.02770516      -0.03614746      -0.02058803
In       5.58370610       4.26397058      10.99600719       15      -0.02770516       0.03614746       0.02058803
O        4.81310027       5.03928363      12.87723691       16      -0.00105580      -0.01587105      -0.00836265
O        2.01821477       3.62401287       3.25805409       17      -0.00105580       0.01587105       0.00836265
O        0.77667073       2.15151813      11.32569959       18       0.00105580      -0.01587105       0.00836265
O        3.57155623       0.73624737       4.80959141       19       0.00105580       0.01587105      -0.00836265
O        0.77667073       0.73624737       3.25805409       20       0.00105580       0.01587105       0.00836265
O        3.57155623       2.15151813      12.87723691       21       0.00105580      -0.01587105      -0.00836265
O        4.81310027       3.62401287       4.80959141       22      -0.00105580       0.01587105      -0.00836265
O        2.01821477       5.03928363      11.32569959       23      -0.00105580      -0.01587105       0.00836265
O        3.94638951       2.99280508      10.06333897       24       0.00946140       0.04416169       0.06149819
O        1.15150401       5.67049142       6.07195203       25       0.00946140      -0.04416169      -0.06149819
O        1.64338149       0.10503958      14.13959753       26      -0.00946140       0.04416169      -0.06149819
O        4.43826699       2.78272592       1.99569347       27      -0.00946140      -0.04416169       0.06149819
O        1.64338149       2.78272592       6.07195203       28      -0.00946140      -0.04416169      -0.06149819
O        4.43826699       0.10503958      10.06333897       29      -0.00946140       0.04416169       0.06149819
O        3.94638951       5.67049142       1.99569347       30       0.00946140      -0.04416169       0.06149819
O        1.15150401       2.99280508      14.13959753       31       0.00946140       0.04416169      -0.06149819
O        3.62643660       3.77778060      15.28702648       32      -0.02973633       0.02007155       0.00657521
O        0.83155110       4.88551590       0.84826452       33      -0.02973633      -0.02007155      -0.00657521
O        1.96333440       0.89001510       8.91591002       34       0.02973633       0.02007155      -0.00657521
O        4.75821990       1.99775040       7.21938098       35       0.02973633      -0.02007155       0.00657521
O        1.96333440       1.99775040       0.84826452       36       0.02973633      -0.02007155      -0.00657521
O        4.75821990       0.89001510      15.28702648       37       0.02973633       0.02007155       0.00657521
O        3.62643660       4.88551590       7.21938098       38      -0.02973633      -0.02007155       0.00657521
O        0.83155110       3.77778060       8.91591002       39      -0.02973633       0.02007155      -0.00657521
40
Lattice="5.58516114169116 -2.911520994168989e-45 0.0 -1.0027587971627606e-45 5.772576197920751 0.0 0.0 0.0 16.132301791384258" Properties=species:S:1:pos:R:3:spacegroup_kinds:I:1:forces:R:3 spacegroup="P 1" unit_cell=conventional occupancy="_JSON {\"0\": {\"In\": 1}, \"1\": {\"In\": 1}, \"2\": {\"In\": 1}, \"3\": {\"In\": 1}, \"4\": {\"In\": 1}, \"5\": {\"In\": 1}, \"6\": {\"In\": 1}, \"7\": {\"In\": 1}, \"8\": {\"In\": 1}, \"9\": {\"In\": 1}, \"10\": {\"In\": 1}, \"11\": {\"In\": 1}, \"12\": {\"In\": 1}, \"13\": {\"In\": 1}, \"14\": {\"In\": 1}, \"15\": {\"In\": 1}, \"16\": {\"O\": 1}, \"17\": {\"O\": 1}, \"18\": {\"O\": 1}, \"19\": {\"O\": 1}, \"20\": {\"O\": 1}, \"21\": {\"O\": 1}, \"22\": {\"O\": 1}, \"23\": {\"O\": 1}, \"24\": {\"O\": 1}, \"25\": {\"O\": 1}, \"26\": {\"O\": 1}, \"27\": {\"O\": 1}, \"28\": {\"O\": 1}, \"29\": {\"O\": 1}, \"30\": {\"O\": 1}, \"31\": {\"O\": 1}, \"32\": {\"O\": 1}, \"33\": {\"O\": 1}, \"34\": {\"O\": 1}, \"35\": {\"O\": 1}, \"36\": {\"O\": 1}, \"37\": {\"O\": 1}, \"38\": {\"O\": 1}, \"39\": {\"O\": 1}}" n_minim_iter=2 energy=-45150.264505148305 stress="0.00011803904074316336 -4.444582295565642e-15 -1.2817823564807474e-14 -4.444582295565642e-15 -0.0003004396124071944 4.1813055784707104e-14 -1.2817823564807474e-14 4.1813055784707104e-14 -0.0004614240651356568" free_energy=-45150.264505148305 pbc="T T T"
In       2.80043313       4.57547126       9.19701368        0      -0.01477761       0.03716112       0.00433217
In       0.00785256       4.08339304       6.93528811        1      -0.01477761      -0.03716112      -0.00433217
In       2.78472801       1.68918316      15.00143900        2       0.01477761       0.03716112      -0.00433217
In       5.57730858       1.19710494       1.13086279        3       0.01477761      -0.03716112       0.00433217
In       2.78472801       1.19710494       6.93528811        4       0.01477761      -0.03716112      -0.00433217
In       5.57730858       1.68918316       9.19701368        5       0.01477761       0.03716112       0.00433217
In       2.80043313       4.08339304       1.13086279        6      -0.01477761      -0.03716112       0.00433217
In       0.00785256       4.57547126      15.00143900        7      -0.01477761       0.03716112      -0.00433217
In       2.78649484       4.26182282      13.20446340        8      -0.02865174       0.03395588      -0.01959449
In       5.57907541       4.39704148       2.92783839        9      -0.02865174      -0.03395588       0.01959449
In       2.79866630       1.37553472      10.99398929       10       0.02865174       0.03395588       0.01959449
In       0.00608573       1.51075338       5.13831250       11       0.02865174      -0.03395588      -0.01959449
In       2.79866630       1.51075338       2.92783839       12       0.02865174      -0.03395588       0.01959449
In       0.00608573       1.37553472      13.20446340       13       0.02865174       0.03395588      -0.01959449
In       2.78649484       4.39704148       5.13831250       14      -0.02865174      -0.03395588      -0.01959449
In       5.57907541       4.26182282      10.99398929       15      -0.02865174       0.03395588       0.01959449
O        4.80912994       5.03669069      12.87484348       16       0.00065300      -0.01313123      -0.00820388
O        2.01654937       3.62217360       3.25745831       17       0.00065300       0.01313123       0.00820388
O        0.77603120       2.15040259      11.32360920       18      -0.00065300      -0.01313123       0.00820388
O        3.56861177       0.73588550       4.80869259       19      -0.00065300       0.01313123      -0.00820388
O        0.77603120       0.73588550       3.25745831       20      -0.00065300       0.01313123       0.00820388
O        3.56861177       2.15040259      12.87484348       21      -0.00065300      -0.01313123      -0.00820388
O        4.80912994       3.62217360       4.80869259       22       0.00065300       0.01313123      -0.00820388
O        2.01654937       5.03669069      11.32360920       23       0.00065300      -0.01313123       0.00820388
O        3.94314376       2.99131513      10.06153203       24       0.01302572       0.04227234       0.06265641
O        1.15056319       5.66754917       6.07076977       25       0.01302572      -0.04227234      -0.06265641
O        1.64201738       0.10502703      14.13692066       26      -0.01302572       0.04227234      -0.06265641
O        4.43459795       2.78126107       1.99538113       27      -0.01302572      -0.04227234       0.06265641
O        1.64201738       2.78126107       6.07076977       28      -0.01302572      -0.04227234      -0.06265641
O        4.43459795       0.10502703      10.06153203       29      -0.01302572       0.04227234       0.06265641
O        3.94314376       5.66754917       1.99538113       30       0.01302572      -0.04227234       0.06265641
O        1.15056319       2.99131513      14.13692066       31       0.01302572       0.04227234      -0.06265641
O        3.62341817       3.77586658      15.28420055       32      -0.03451842       0.01677136       0.00528244
O        0.83083760       4.88299771       0.84810124       33      -0.03451842      -0.01677136      -0.00528244
O        1.96174297       0.88957848       8.91425213       34       0.03451842       0.01677136      -0.00528244
O        4.75432355       1.99670962       7.21804966       35       0.03451842      -0.01677136       0.00528244
O        1.96174297       1.99670962       0.84810124       36       0.03451842      -0.01677136      -0.00528244
O        4.75432355       0.88957848      15.28420055       37       0.03451842       0.01677136       0.00528244
O        3.62341817       4.88299771       7.21804966       38      -0.03451842      -0.01677136       0.00528244
O        0.83083760       3.77586658       8.91425213       39      -0.03451842       0.01677136      -0.00528244
40
Lattice="5.580475688575363 -2.9729312486203885e-45 0.0 -1.5040909895865547e-45 5.774672931692265 0.0 0.0 0.0 16.147885408644022" Properties=species:S:1:pos:R:3:spacegroup_kinds:I:1:forces:R:3 spacegroup="P 1" unit_cell=conventional occupancy="_JSON {\"0\": {\"In\": 1}, \"1\": {\"In\": 1}, \"2\": {\"In\": 1}, \"3\": {\"In\": 1}, \"4\": {\"In\": 1}, \"5\": {\"In\": 1}, \"6\": {\"In\": 1}, \"7\": {\"In\": 1}, \"8\": {\"In\": 1}, \"9\": {\"In\": 1}, \"10\": {\"In\": 1}, \"11\": {\"In\": 1}, \"12\": {\"In\": 1}, \"13\": {\"In\": 1}, \"14\": {\"In\": 1}, \"15\": {\"In\": 1}, \"16\": {\"O\": 1}, \"17\": {\"O\": 1}, \"18\": {\"O\": 1}, \"19\": {\"O\": 1}, \"20\": {\"O\": 1}, \"21\": {\"O\": 1}, \"22\": {\"O\": 1}, \"23\": {\"O\": 1}, \"24\": {\"O\": 1}, \"25\": {\"O\": 1}, \"26\": {\"O\": 1}, \"27\": {\"O\": 1}, \"28\": {\"O\": 1}, \"29\": {\"O\": 1}, \"30\": {\"O\": 1}, \"31\": {\"O\": 1}, \"32\": {\"O\": 1}, \"33\": {\"O\": 1}, \"34\": {\"O\": 1}, \"35\": {\"O\": 1}, \"36\": {\"O\": 1}, \"37\": {\"O\": 1}, \"38\": {\"O\": 1}, \"39\": {\"O\": 1}}" n_minim_iter=3 energy=-45150.264914459774 stress="-0.00038087173004883645 -1.8154260618590508e-13 1.3504291245034906e-13 -1.8154260618590508e-13 0.00011599652597838017 -3.978198173218085e-13 1.3504291245034906e-13 -3.978198173218085e-13 0.0005767781846269971" free_energy=-45150.264914459774 pbc="T T T"
In       2.79800530       4.57732189       9.20592071        0      -0.00454150       0.04103977       0.00236484
In       0.00776746       4.08468750       6.94196470        1      -0.00454150      -0.04103977      -0.00236484
In       2.78247038       1.68998543      15.01590741        2       0.00454150       0.04103977      -0.00236484
In       5.57270823       1.19735104       1.13197800        3       0.00454150      -0.04103977       0.00236484
In       2.78247038       1.19735104       6.94196470        4       0.00454150      -0.04103977      -0.00236484
In       5.57270823       1.68998543       9.20592071        5       0.00454150       0.04103977       0.00236484
In       2.79800530       4.08468750       1.13197800        6      -0.00454150      -0.04103977       0.00236484
In       0.00776746       4.57732189      15.01590741        7      -0.00454150       0.04103977      -0.00236484
In       2.78400973       4.26354801      13.21711655        8      -0.03519354       0.03129290      -0.01986321
In       5.57424758       4.39846139       2.93076886        9      -0.03519354      -0.03129290       0.01986321
In       2.79646595       1.37621154      11.00471156       10       0.03519354       0.03129290       0.01986321
In       0.00622811       1.51112492       5.14317385       11       0.03519354      -0.03129290      -0.01986321
In       2.79646595       1.51112492       2.93076886       12       0.03519354      -0.03129290       0.01986321
In       0.00622811       1.37621154      13.21711655       13       0.03519354       0.03129290      -0.01986321
In       2.78400973       4.39846139       5.14317385       14      -0.03519354      -0.03129290      -0.01986321
In       5.57424758       4.26354801      11.00471156       15      -0.03519354       0.03129290       0.01986321
O        4.80509781       5.03845041      12.88723780       16       0.00232812      -0.01195531      -0.00867672
O        2.01485996       3.62355898       3.26064760       17       0.00232812       0.01195531       0.00867672
O        0.77537788       2.15111395      11.33459031       18      -0.00232812      -0.01195531       0.00867672
O        3.56561573       0.73622252       4.81329510       19      -0.00232812       0.01195531      -0.00867672
O        0.77537788       0.73622252       3.26064760       20      -0.00232812       0.01195531       0.00867672
O        3.56561573       2.15111395      12.88723780       21      -0.00232812      -0.01195531      -0.00867672
O        4.80509781       3.62355898       4.81329510       22       0.00232812       0.01195531      -0.00867672
O        2.01485996       5.03845041      11.33459031       23       0.00232812      -0.01195531       0.00867672
O        3.93990088       2.99262171      10.07157542       24       0.01194756       0.04268173       0.05895210
O        1.14966304       5.66938768       6.07630999       25       0.01194756      -0.04268173      -0.05895210
O        1.64057481       0.10528525      14.15025269       26      -0.01194756       0.04268173      -0.05895210
O        4.43081265       2.78205122       1.99763272       27      -0.01194756      -0.04268173       0.05895210
O        1.64057481       2.78205122       6.07630999       28      -0.01194756      -0.04268173      -0.05895210
O        4.43081265       0.10528525      10.07157542       29      -0.01194756       0.04268173       0.05895210
O        3.93990088       5.66938768       1.99763272       30       0.01194756      -0.04268173       0.05895210
O        1.14966304       2.99262171      14.15025269       31       0.01194756       0.04268173      -0.05895210
O        3.62020306       3.77732699      15.29899312       32      -0.03802809       0.01498657       0.01269667
O        0.82996522       4.88468241       0.84889229       33      -0.03802809      -0.01498657      -0.01269667
O        1.96027263       0.88999052       8.92283499       34       0.03802809       0.01498657      -0.01269667
O        4.75051047       1.99734594       7.22505042       35       0.03802809      -0.01498657       0.01269667
O        1.96027263       1.99734594       0.84889229       36       0.03802809      -0.01498657      -0.01269667
O        4.75051047       0.88999052      15.29899312       37       0.03802809       0.01498657       0.01269667
O        3.62020306       4.88468241       7.22505042       38      -0.03802809      -0.01498657       0.01269667
O        0.82996522       3.77732699       8.92283499       39      -0.03802809       0.01498657      -0.01269667
40
Lattice="5.573716746560647 -3.40541246994627e-44 0.0 -7.371487841811366e-44 5.785188204803403 0.0 0.0 0.0 16.128687862402806" Properties=species:S:1:pos:R:3:spacegroup_kinds:I:1:forces:R:3 spacegroup="P 1" unit_cell=conventional occupancy="_JSON {\"0\": {\"In\": 1}, \"1\": {\"In\": 1}, \"2\": {\"In\": 1}, \"3\": {\"In\": 1}, \"4\": {\"In\": 1}, \"5\": {\"In\": 1}, \"6\": {\"In\": 1}, \"7\": {\"In\": 1}, \"8\": {\"In\": 1}, \"9\": {\"In\": 1}, \"10\": {\"In\": 1}, \"11\": {\"In\": 1}, \"12\": {\"In\": 1}, \"13\": {\"In\": 1}, \"14\": {\"In\": 1}, \"15\": {\"In\": 1}, \"16\": {\"O\": 1}, \"17\": {\"O\": 1}, \"18\": {\"O\": 1}, \"19\": {\"O\": 1}, \"20\": {\"O\": 1}, \"21\": {\"O\": 1}, \"22\": {\"O\": 1}, \"23\": {\"O\": 1}, \"24\": {\"O\": 1}, \"25\": {\"O\": 1}, \"26\": {\"O\": 1}, \"27\": {\"O\": 1}, \"28\": {\"O\": 1}, \"29\": {\"O\": 1}, \"30\": {\"O\": 1}, \"31\": {\"O\": 1}, \"32\": {\"O\": 1}, \"33\": {\"O\": 1}, \"34\": {\"O\": 1}, \"35\": {\"O\": 1}, \"36\": {\"O\": 1}, \"37\": {\"O\": 1}, \"38\": {\"O\": 1}, \"39\": {\"O\": 1}}" n_minim_iter=4 energy=-45150.26953281296 stress="-0.0009175554353743077 -3.7834756625102416e-14 2.6963572307549595e-13 -3.7834756625102416e-14 0.001564055722752 -2.5685417515642337e-15 2.6963572307549595e-13 -2.5685417515642337e-15 -0.0011154482216351456" free_energy=-45150.26953281296 pbc="T T T"
In       2.79354956       4.58945862       9.19532900        0      -0.00812974       0.00937287       0.04475448
In       0.00669118       4.08832369       6.93335886        1      -0.00812974      -0.00937287      -0.04475448
In       2.78016719       1.69686452      14.99770279        2       0.00812974       0.00937287      -0.04475448
In       5.56702556       1.19572959       1.13098507        3       0.00812974      -0.00937287       0.04475448
In       2.78016719       1.19572959       6.93335886        4       0.00812974      -0.00937287      -0.04475448
In       5.56702556       1.69686452       9.19532900        5       0.00812974       0.00937287       0.04475448
In       2.79354956       4.08832369       1.13098507        6      -0.00812974      -0.00937287       0.04475448
In       0.00669118       4.58945862      14.99770279        7      -0.00812974       0.00937287      -0.04475448
In       2.77755445       4.27458495      13.19944584        8       0.00503141       0.00212583       0.00000128
In       5.56441282       4.40319736       2.92924202        9       0.00503141      -0.00212583      -0.00000128
In       2.79616230       1.38199085      10.99358595       10      -0.00503141       0.00212583      -0.00000128
In       0.00930392       1.51060325       5.13510191       11      -0.00503141      -0.00212583       0.00000128
In       2.79616230       1.51060325       2.92924202       12      -0.00503141      -0.00212583      -0.00000128
In       0.00930392       1.38199085      13.19944584       13      -0.00503141       0.00212583       0.00000128
In       2.77755445       4.40319736       5.13510191       14       0.00503141      -0.00212583       0.00000128
In       5.56441282       4.27458495      10.99358595       15       0.00503141       0.00212583      -0.00000128
O        4.79939833       5.04635211      12.87108430       16      -0.02473112       0.01248819       0.02972670
O        2.01253996       3.63143020       3.25760356       17      -0.02473112      -0.01248819      -0.02972670
O        0.77431842       2.15375801      11.32194749       18       0.02473112       0.01248819      -0.02972670
O        3.56117679       0.73883610       4.80674037       19       0.02473112      -0.01248819       0.02972670
O        0.77431842       0.73883610       3.25760356       20       0.02473112      -0.01248819      -0.02972670
O        3.56117679       2.15375801      12.87108430       21       0.02473112       0.01248819       0.02972670
O        4.79939833       3.63143020       4.80674037       22      -0.02473112      -0.01248819       0.02972670
O        2.01253996       5.04635211      11.32194749       23      -0.02473112       0.01248819      -0.02972670
O        3.93634542       3.00229173      10.06564572       24      -0.01451462       0.05936867       0.00933803
O        1.14948705       5.67549058       6.06304214       25      -0.01451462      -0.05936867      -0.00933803
O        1.63737132       0.10969763      14.12738607       26       0.01451462       0.05936867      -0.00933803
O        4.42422970       2.78289648       2.00130179       27       0.01451462      -0.05936867       0.00933803
O        1.63737132       2.78289648       6.06304214       28       0.01451462      -0.05936867      -0.00933803
O        4.42422970       0.10969763      10.06564572       29       0.01451462       0.05936867       0.00933803
O        3.93634542       5.67549058       2.00130179       30      -0.01451462      -0.05936867       0.00933803
O        1.14948705       3.00229173      14.12738607       31      -0.01451462       0.05936867      -0.00933803
O        3.61230536       3.78581821      15.28163771       32      -0.00504312       0.02331660      -0.00839492
O        0.82544699       4.89196410       0.84705015       33      -0.00504312      -0.02331660       0.00839492
O        1.96141138       0.89322411       8.91139408       34       0.00504312       0.02331660       0.00839492
O        4.74826976       1.99937000       7.21729378       35       0.00504312      -0.02331660      -0.00839492
O        1.96141138       1.99937000       0.84705015       36       0.00504312      -0.02331660       0.00839492
O        4.74826976       0.89322411      15.28163771       37       0.00504312       0.02331660      -0.00839492
O        3.61230536       4.89196410       7.21729378       38      -0.00504312      -0.02331660      -0.00839492
O        0.82544699       3.78581821       8.91139408       39      -0.00504312       0.02331660       0.00839492
40
Lattice="5.5797943916011405 -4.442034196297668e-44 0.0 -7.050076360877181e-44 5.771395846114567 0.0 0.0 0.0 16.153541968745515" Properties=species:S:1:pos:R:3:spacegroup_kinds:I:1:forces:R:3 spacegroup="P 1" unit_cell=conventional occupancy="_JSON {\"0\": {\"In\": 1}, \"1\": {\"In\": 1}, \"2\": {\"In\": 1}, \"3\": {\"In\": 1}, \"4\": {\"In\": 1}, \"5\": {\"In\": 1}, \"6\": {\"In\": 1}, \"7\": {\"In\": 1}, \"8\": {\"In\": 1}, \"9\": {\"In\": 1}, \"10\": {\"In\": 1}, \"11\": {\"In\": 1}, \"12\": {\"In\": 1}, \"13\": {\"In\": 1}, \"14\": {\"In\": 1}, \"15\": {\"In\": 1}, \"16\": {\"O\": 1}, \"17\": {\"O\": 1}, \"18\": {\"O\": 1}, \"19\": {\"O\": 1}, \"20\": {\"O\": 1}, \"21\": {\"O\": 1}, \"22\": {\"O\": 1}, \"23\": {\"O\": 1}, \"24\": {\"O\": 1}, \"25\": {\"O\": 1}, \"26\": {\"O\": 1}, \"27\": {\"O\": 1}, \"28\": {\"O\": 1}, \"29\": {\"O\": 1}, \"30\": {\"O\": 1}, \"31\": {\"O\": 1}, \"32\": {\"O\": 1}, \"33\": {\"O\": 1}, \"34\": {\"O\": 1}, \"35\": {\"O\": 1}, \"36\": {\"O\": 1}, \"37\": {\"O\": 1}, \"38\": {\"O\": 1}, \"39\": {\"O\": 1}}" n_minim_iter=5 energy=-45150.27212192631 stress="-0.00010241355280965204 4.159033356769374e-13 1.6943948033494862e-13 4.159033356769374e-13 -0.0002045985167670065 1.5555285617935574e-13 1.6943948033494862e-13 1.5555285617935574e-13 -2.2952838443914574e-05" free_energy=-45150.27212192631 pbc="T T T"
In       2.79596464       4.58067935       9.20987632        0      -0.01112917      -0.01725170       0.03973567
In       0.00606744       4.07641442       6.94366565        1      -0.01112917       0.01725170      -0.03973567
In       2.78382975       1.69498142      15.02043664        2       0.01112917      -0.01725170      -0.03973567
In       5.57372695       1.19071650       1.13310533        3       0.01112917       0.01725170       0.03973567
In       2.78382975       1.19071650       6.94366565        4       0.01112917       0.01725170      -0.03973567
In       5.57372695       1.69498142       9.20987632        5       0.01112917      -0.01725170       0.03973567
In       2.79596464       4.07641442       1.13310533        6      -0.01112917       0.01725170       0.03973567
In       0.00606744       4.58067935      15.02043664        7      -0.01112917      -0.01725170      -0.03973567
In       2.77887296       4.26623299      13.21868705        8       0.02739474       0.00311157      -0.00336515
In       5.56877016       4.39086078       2.93485492        9       0.02739474      -0.00311157       0.00336515
In       2.80092143       1.38053507      11.01162590       10      -0.02739474       0.00311157       0.00336515
In       0.01102423       1.50516286       5.14191607       11      -0.02739474      -0.00311157      -0.00336515
In       2.80092143       1.50516286       2.93485492       12      -0.02739474      -0.00311157       0.00336515
In       0.01102423       1.38053507      13.21868705       13      -0.02739474       0.00311157      -0.00336515
In       2.77887296       4.39086078       5.14191607       14       0.02739474      -0.00311157      -0.00336515
In       5.56877016       4.26623299      11.01162590       15       0.02739474       0.00311157       0.00336515
O        4.80460035       5.03365905      12.89057032       16      -0.03256030       0.02066200       0.04379064
O        2.01470315       3.62343472       3.26297165       17      -0.03256030      -0.02066200      -0.04379064
O        0.77519404       2.14796113      11.33974263       18       0.03256030       0.02066200      -0.04379064
O        3.56509124       0.73773679       4.81379934       19       0.03256030      -0.02066200       0.04379064
O        0.77519404       0.73773679       3.26297165       20       0.03256030      -0.02066200      -0.04379064
O        3.56509124       2.14796113      12.89057032       21       0.03256030       0.02066200       0.04379064
O        4.80460035       3.62343472       4.81379934       22      -0.03256030      -0.02066200       0.04379064
O        2.01470315       5.03365905      11.33974263       23      -0.03256030       0.02066200      -0.04379064
O        3.94126157       2.99773234      10.08458641       24      -0.01544162       0.05497088      -0.01315322
O        1.15136438       5.65936143       6.06895556       25      -0.01544162      -0.05497088       0.01315322
O        1.63853282       0.11203441      14.14572654       26       0.01544162       0.05497088       0.01315322
O        4.42843001       2.77366351       2.00781542       27       0.01544162      -0.05497088      -0.01315322
O        1.63853282       2.77366351       6.06895556       28       0.01544162      -0.05497088       0.01315322
O        4.42843001       0.11203441      10.08458641       29       0.01544162       0.05497088      -0.01315322
O        3.94126157       5.65936143       2.00781542       30      -0.01544162      -0.05497088      -0.01315322
O        1.15136438       2.99773234      14.14572654       31      -0.01544162       0.05497088       0.01315322
O        3.61425379       3.77778838      15.30562113       32       0.01117875       0.04132925      -0.00779924
O        0.82435660       4.87930539       0.84792084       33       0.01117875      -0.04132925       0.00779924
O        1.96554060       0.89209046       8.92469183       34      -0.01117875       0.04132925       0.00779924
O        4.75543779       1.99360747       7.22885014       35      -0.01117875      -0.04132925      -0.00779924
O        1.96554060       1.99360747       0.84792084       36      -0.01117875      -0.04132925       0.00779924
O        4.75543779       0.89209046      15.30562113       37      -0.01117875       0.04132925      -0.00779924
O        3.61425379       4.87930539       7.22885014       38       0.01117875      -0.04132925      -0.00779924
O        0.82435660       3.77778838       8.92469183       39       0.01117875       0.04132925       0.00779924
40