40
Lattice="6.162760458205624 1.9898229905409969e-44 2.544726686663356e-61 -3.5703397058375996e-45 4.170120398585701 5.445734006466469e-17 0.0 1.9426591954483322e-16 17.196819771042012" Properties=species:S:1:pos:R:3:spacegroup_kinds:I:1:forces:R:3 spacegroup="P 1" unit_cell=conventional occupancy="_JSON {\"0\": {\"In\": 1}, \"1\": {\"In\": 1}, \"2\": {\"In\": 1}, \"3\": {\"In\": 1}, \"4\": {\"In\": 1}, \"5\": {\"In\": 1}, \"6\": {\"In\": 1}, \"7\": {\"In\": 1}, \"8\": {\"In\": 1}, \"9\": {\"In\": 1}, \"10\": {\"In\": 1}, \"11\": {\"In\": 1}, \"12\": {\"In\": 1}, \"13\": {\"In\": 1}, \"14\": {\"In\": 1}, \"15\": {\"In\": 1}, \"16\": {\"O\": 1}, \"17\": {\"O\": 1}, \"18\": {\"O\": 1}, \"19\": {\"O\": 1}, \"20\": {\"O\": 1}, \"21\": {\"O\": 1}, \"22\": {\"O\": 1}, \"23\": {\"O\": 1}, \"24\": {\"O\": 1}, \"25\": {\"O\": 1}, \"26\": {\"O\": 1}, \"27\": {\"O\": 1}, \"28\": {\"O\": 1}, \"29\": {\"O\": 1}, \"30\": {\"O\": 1}, \"31\": {\"O\": 1}, \"32\": {\"O\": 1}, \"33\": {\"O\": 1}, \"34\": {\"O\": 1}, \"35\": {\"O\": 1}, \"36\": {\"O\": 1}, \"37\": {\"O\": 1}, \"38\": {\"O\": 1}, \"39\": {\"O\": 1}}" n_minim_iter=25 energy=-45148.63898931606 stress="-0.033909156413531656 -4.787334520245609e-13 5.383661644594965e-13 -4.787334520245609e-13 -0.03353378043451139 1.2224388934849908e-13 5.383661644594965e-13 1.2224388934849908e-13 -0.033893051455286365" free_energy=-45148.63898931606 pbc="T T T"
In       2.98055500       3.12786429       9.73917896        0      -0.00334083      -0.00117712       0.00496735
In      -0.10082523       3.12731631       7.45764081        1      -0.00334083       0.00117712      -0.00496735
In       3.18220546       1.04280409      16.05605069        2       0.00334083      -0.00117712      -0.00496735
In       6.26358569       1.04225611       1.14076908        3       0.00334083       0.00117712       0.00496735
In       3.18220546       1.04225611       7.45764081        4       0.00334083       0.00117712      -0.00496735
In       6.26358569       1.04280409       9.73917896        5       0.00334083      -0.00117712       0.00496735
In       2.98055500       3.12731631       1.14076908        6      -0.00334083       0.00117712       0.00496735
In      -0.10082523       3.12786429      16.05605069        7      -0.00334083      -0.00117712      -0.00496735
In       3.18227324       3.12822804      14.03753826        8       0.00639843      -0.00401631       0.00143476
In       6.26365347       3.12695256       3.15928151        9       0.00639843       0.00401631      -0.00143476
In       2.98048721       1.04316784      11.75769140       10      -0.00639843      -0.00401631      -0.00143476
In      -0.10089302       1.04189236       5.43912837       11      -0.00639843       0.00401631       0.00143476
In       2.98048721       1.04189236       3.15928151       12      -0.00639843       0.00401631      -0.00143476
In      -0.10089302       1.04316784      14.03753826       13      -0.00639843      -0.00401631       0.00143476
In       3.18227324       3.12695256       5.43912837       14       0.00639843       0.00401631       0.00143476
In       6.26365347       3.12822804      11.75769140       15       0.00639843      -0.00401631      -0.00143476
O        5.36505975       3.12767014      13.71399032       16       0.00070454       0.00360548       0.00174052
O        2.28367952       3.12751045       3.48282946       17       0.00070454      -0.00360548      -0.00174052
O        0.79770071       1.04260995      12.08123934       18      -0.00070454       0.00360548      -0.00174052
O        3.87908094       1.04245025       5.11558043       19      -0.00070454      -0.00360548       0.00174052
O        0.79770071       1.04245025       3.48282946       20      -0.00070454      -0.00360548      -0.00174052
O        3.87908094       1.04260995      13.71399032       21      -0.00070454       0.00360548       0.00174052
O        5.36505975       3.12751045       5.11558043       22       0.00070454      -0.00360548       0.00174052
O        2.28367952       3.12767014      12.08123934       23       0.00070454       0.00360548      -0.00174052
O        4.62197166       2.08590233      10.74946943       24       0.00296920      -0.00289444      -0.00602761
O        1.54059143       4.16927827       6.44735034       25       0.00296920       0.00289444       0.00602761
O        1.54078880       0.00084213      15.04576022       26      -0.00296920      -0.00289444       0.00602761
O        4.62216903       2.08421807       2.15105955       27      -0.00296920       0.00289444      -0.00602761
O        1.54078880       2.08421807       6.44735034       28      -0.00296920       0.00289444       0.00602761
O        4.62216903       0.00084213      10.74946943       29      -0.00296920      -0.00289444      -0.00602761
O        4.62197166       4.16927827       2.15105955       30       0.00296920       0.00289444      -0.00602761
O        1.54059143       2.08590233      15.04576022       31       0.00296920      -0.00289444       0.00602761
O        3.87830313       3.12727265      16.38071346       32       0.00460874       0.00367517       0.00016079
O        0.79692290       3.12790795       0.81610631       33       0.00460874      -0.00367517      -0.00016079
O        2.28445733       1.04221245       9.41451619       34      -0.00460874       0.00367517      -0.00016079
O        5.36583756       1.04284775       7.78230358       35      -0.00460874      -0.00367517       0.00016079
O        2.28445733       1.04284775       0.81610631       36      -0.00460874      -0.00367517      -0.00016079
O        5.36583756       1.04221245      16.38071346       37      -0.00460874       0.00367517       0.00016079
O        3.87830313       3.12790795       7.78230358       38       0.00460874      -0.00367517       0.00016079
O        0.79692290       3.12727265       9.41451619       39       0.00460874       0.00367517      -0.00016079
