40
Lattice="5.391468925010442 8.031358893755552e-43 0.0 -8.351617752395842e-43 5.606459402607071 0.0 0.0 0.0 15.481028733415053" Properties=species:S:1:pos:R:3:spacegroup_kinds:I:1:forces:R:3 spacegroup="P 1" unit_cell=conventional occupancy="_JSON {\"0\": {\"In\": 1}, \"1\": {\"In\": 1}, \"2\": {\"In\": 1}, \"3\": {\"In\": 1}, \"4\": {\"In\": 1}, \"5\": {\"In\": 1}, \"6\": {\"In\": 1}, \"7\": {\"In\": 1}, \"8\": {\"In\": 1}, \"9\": {\"In\": 1}, \"10\": {\"In\": 1}, \"11\": {\"In\": 1}, \"12\": {\"In\": 1}, \"13\": {\"In\": 1}, \"14\": {\"In\": 1}, \"15\": {\"In\": 1}, \"16\": {\"O\": 1}, \"17\": {\"O\": 1}, \"18\": {\"O\": 1}, \"19\": {\"O\": 1}, \"20\": {\"O\": 1}, \"21\": {\"O\": 1}, \"22\": {\"O\": 1}, \"23\": {\"O\": 1}, \"24\": {\"O\": 1}, \"25\": {\"O\": 1}, \"26\": {\"O\": 1}, \"27\": {\"O\": 1}, \"28\": {\"O\": 1}, \"29\": {\"O\": 1}, \"30\": {\"O\": 1}, \"31\": {\"O\": 1}, \"32\": {\"O\": 1}, \"33\": {\"O\": 1}, \"34\": {\"O\": 1}, \"35\": {\"O\": 1}, \"36\": {\"O\": 1}, \"37\": {\"O\": 1}, \"38\": {\"O\": 1}, \"39\": {\"O\": 1}}" n_minim_iter=1 energy=-45147.83432425115 stress="-0.1116947469841797 6.900976837586395e-14 3.2791526433544625e-13 6.900976837586395e-14 -0.11083919986449264 4.560720980823551e-13 3.2791526433544625e-13 4.560720980823551e-13 -0.10727545110128286" free_energy=-45147.83432425115 pbc="T T T"
In       2.69521359       4.48778348       8.85108756        0      -0.01886207       0.00345141       0.01375106
In      -0.00052087       3.92190562       6.62994117        1      -0.01886207      -0.00345141      -0.01375106
In       2.69625533       1.68455378      14.37045554        2       0.01886207       0.00345141      -0.01375106
In       5.39198979       1.11867592       1.11057319        3       0.01886207      -0.00345141       0.01375106
In       2.69625533       1.11867592       6.62994117        4       0.01886207      -0.00345141      -0.01375106
In       5.39198979       1.68455378       8.85108756        5       0.01886207       0.00345141       0.01375106
In       2.69521359       3.92190562       1.11057319        6      -0.01886207      -0.00345141       0.01375106
In      -0.00052087       4.48778348      14.37045554        7      -0.01886207       0.00345141      -0.01375106
In       2.70155975       4.19145972      12.66487727        8       0.04211745      -0.02135728      -0.04677592
In       5.39729421       4.21822938       2.81615146        9       0.04211745       0.02135728       0.04677592
In       2.68990918       1.38823002      10.55666583       10      -0.04211745      -0.02135728       0.04677592
In      -0.00582529       1.41499968       4.92436291       11      -0.04211745       0.02135728      -0.04677592
In       2.68990918       1.41499968       2.81615146       12      -0.04211745       0.02135728       0.04677592
In      -0.00582529       1.38823002      12.66487727       13      -0.04211745      -0.02135728      -0.04677592
In       2.70155975       4.21822938       4.92436291       14       0.04211745       0.02135728      -0.04677592
In       5.39729421       4.19145972      10.55666583       15       0.04211745      -0.02135728       0.04677592
O        4.64040709       4.96883670      12.34795169       16       0.04500528       0.04961305      -0.00695590
O        1.94467263       3.44085240       3.13307704       17       0.04500528      -0.04961305       0.00695590
O        0.75106184       2.16560700      10.87359141       18      -0.04500528       0.04961305       0.00695590
O        3.44679630       0.63762270       4.60743733       19      -0.04500528      -0.04961305      -0.00695590
O        0.75106184       0.63762270       3.13307704       20      -0.04500528      -0.04961305       0.00695590
O        3.44679630       2.16560700      12.34795169       21      -0.04500528       0.04961305      -0.00695590
O        4.64040709       3.44085240       4.60743733       22       0.04500528      -0.04961305      -0.00695590
O        1.94467263       4.96883670      10.87359141       23       0.04500528       0.04961305       0.00695590
O        3.81764648       2.95697800       9.69293971       24       0.05313499      -0.06473570       0.08509842
O        1.12191201       5.45271110       5.78808902       25       0.05313499       0.06473570      -0.08509842
O        1.57382245       0.15374830      13.52860339       26      -0.05313499      -0.06473570      -0.08509842
O        4.26955691       2.64948140       1.95242534       27      -0.05313499       0.06473570       0.08509842
O        1.57382245       2.64948140       5.78808902       28      -0.05313499       0.06473570      -0.08509842
O        4.26955691       0.15374830       9.69293971       29      -0.05313499      -0.06473570       0.08509842
O        3.81764648       5.45271110       1.95242534       30       0.05313499       0.06473570       0.08509842
O        1.12191201       2.95697800      13.52860339       31       0.05313499      -0.06473570      -0.08509842
O        3.46936906       3.71290850      14.66010844       32      -0.06022330       0.00970296      -0.09774062
O        0.77363460       4.69678061       0.82092029       33      -0.06022330      -0.00970296       0.09774062
O        1.92209986       0.90967880       8.56143466       34       0.06022330       0.00970296       0.09774062
O        4.61783432       1.89355090       6.91959408       35       0.06022330      -0.00970296      -0.09774062
O        1.92209986       1.89355090       0.82092029       36       0.06022330      -0.00970296       0.09774062
O        4.61783432       0.90967880      14.66010844       37       0.06022330       0.00970296      -0.09774062
O        3.46936906       4.69678061       6.91959408       38      -0.06022330      -0.00970296      -0.09774062
O        0.77363460       3.71290850       8.56143466       39      -0.06022330       0.00970296       0.09774062
40
Lattice="5.398968678135248 8.04089676650217e-43 0.0 -8.359273551434369e-43 5.610462103161742 0.0 0.0 0.0 15.448494538382054" Properties=species:S:1:pos:R:3:spacegroup_kinds:I:1:forces:R:3 spacegroup="P 1" unit_cell=conventional occupancy="_JSON {\"0\": {\"In\": 1}, \"1\": {\"In\": 1}, \"2\": {\"In\": 1}, \"3\": {\"In\": 1}, \"4\": {\"In\": 1}, \"5\": {\"In\": 1}, \"6\": {\"In\": 1}, \"7\": {\"In\": 1}, \"8\": {\"In\": 1}, \"9\": {\"In\": 1}, \"10\": {\"In\": 1}, \"11\": {\"In\": 1}, \"12\": {\"In\": 1}, \"13\": {\"In\": 1}, \"14\": {\"In\": 1}, \"15\": {\"In\": 1}, \"16\": {\"O\": 1}, \"17\": {\"O\": 1}, \"18\": {\"O\": 1}, \"19\": {\"O\": 1}, \"20\": {\"O\": 1}, \"21\": {\"O\": 1}, \"22\": {\"O\": 1}, \"23\": {\"O\": 1}, \"24\": {\"O\": 1}, \"25\": {\"O\": 1}, \"26\": {\"O\": 1}, \"27\": {\"O\": 1}, \"28\": {\"O\": 1}, \"29\": {\"O\": 1}, \"30\": {\"O\": 1}, \"31\": {\"O\": 1}, \"32\": {\"O\": 1}, \"33\": {\"O\": 1}, \"34\": {\"O\": 1}, \"35\": {\"O\": 1}, \"36\": {\"O\": 1}, \"37\": {\"O\": 1}, \"38\": {\"O\": 1}, \"39\": {\"O\": 1}}" n_minim_iter=2 energy=-45147.83665159696 stress="-0.10941297072735072 3.8311871355166227e-14 3.3012137614988717e-13 3.8311871355166227e-14 -0.10942630758055652 -2.8140547578370463e-13 3.3012137614988717e-13 -2.8140547578370463e-13 -0.1098367576451673" free_energy=-45147.83665159696 pbc="T T T"
In       2.69893083       4.49099334       8.83250972        0      -0.04157698      -0.01361663       0.03997243
In      -0.00055350       3.92469981       6.61598482        1      -0.04157698       0.01361663      -0.03997243
In       2.70003784       1.68576229      14.34023209        2       0.04157698      -0.01361663      -0.03997243
In       5.39952218       1.11946876       1.10826245        3       0.04157698       0.01361663       0.03997243
In       2.70003784       1.11946876       6.61598482        4       0.04157698       0.01361663      -0.03997243
In       5.39952218       1.68576229       8.83250972        5       0.04157698      -0.01361663       0.03997243
In       2.69893083       3.92469981       1.10826245        6      -0.04157698       0.01361663       0.03997243
In      -0.00055350       4.49099334      14.34023209        7      -0.04157698      -0.01361663      -0.03997243
In       2.70538898       4.19441608      12.63818251        8       0.06097160      -0.02391430      -0.04187748
In       5.40487332       4.22127707       2.81031203        9       0.06097160       0.02391430       0.04187748
In       2.69357969       1.38918503      10.53455930       10      -0.06097160      -0.02391430       0.04187748
In      -0.00590465       1.41604602       4.91393524       11      -0.06097160       0.02391430      -0.04187748
In       2.69357969       1.41604602       2.81031203       12      -0.06097160       0.02391430       0.04187748
In      -0.00590465       1.38918503      12.63818251       13      -0.06097160      -0.02391430      -0.04187748
In       2.70538898       4.22127707       4.91393524       14       0.06097160       0.02391430      -0.04187748
In       5.40487332       4.19441608      10.53455930       15       0.06097160      -0.02391430       0.04187748
O        4.64693823       4.97246805      12.32199010       16       0.01802578       0.05814068       0.00038367
O        1.94745389       3.44322510       3.12650444       17       0.01802578      -0.05814068      -0.00038367
O        0.75203045       2.16723700      10.85075171       18      -0.01802578       0.05814068      -0.00038367
O        3.45151479       0.63799405       4.59774283       19      -0.01802578      -0.05814068       0.00038367
O        0.75203045       0.63799405       3.12650444       20      -0.01802578      -0.05814068      -0.00038367
O        3.45151479       2.16723700      12.32199010       21      -0.01802578       0.05814068       0.00038367
O        4.64693823       3.44322510       4.59774283       22       0.01802578      -0.05814068       0.00038367
O        1.94745389       4.97246805      10.85075171       23       0.01802578       0.05814068      -0.00038367
O        3.82304687       2.95897967       9.67271296       24       0.04470776      -0.06138571       0.08439336
O        1.12356253       5.45671348       5.77578158       25       0.04470776       0.06138571      -0.08439336
O        1.57592180       0.15374862      13.50002885       26      -0.04470776      -0.06138571      -0.08439336
O        4.27540614       2.65148243       1.94846569       27      -0.04470776       0.06138571       0.08439336
O        1.57592180       2.65148243       5.77578158       28      -0.04470776       0.06138571      -0.08439336
O        4.27540614       0.15374862       9.67271296       29      -0.04470776      -0.06138571       0.08439336
O        3.82304687       5.45671348       1.94846569       30       0.04470776       0.06138571       0.08439336
O        1.12356253       2.95897967      13.50002885       31       0.04470776      -0.06138571      -0.08439336
O        3.47409321       3.71557571      14.62913467       32      -0.03054929       0.00781671      -0.11840001
O        0.77460887       4.70011744       0.81935987       33      -0.03054929      -0.00781671       0.11840001
O        1.92487547       0.91034466       8.54360713       34       0.03054929       0.00781671       0.11840001
O        4.62435981       1.89488639       6.90488740       35       0.03054929      -0.00781671      -0.11840001
O        1.92487547       1.89488639       0.81935987       36       0.03054929      -0.00781671       0.11840001
O        4.62435981       0.91034466      14.62913467       37       0.03054929       0.00781671      -0.11840001
O        3.47409321       4.70011744       6.90488740       38      -0.03054929      -0.00781671      -0.11840001
O        0.77460887       3.71557571       8.54360713       39      -0.03054929       0.00781671       0.11840001
40
Lattice="5.406659216831328 8.252787267860644e-43 0.0 -8.478077562463306e-43 5.6067570318201545 0.0 0.0 0.0 15.436714487188056" Properties=species:S:1:pos:R:3:spacegroup_kinds:I:1:forces:R:3 spacegroup="P 1" unit_cell=conventional occupancy="_JSON {\"0\": {\"In\": 1}, \"1\": {\"In\": 1}, \"2\": {\"In\": 1}, \"3\": {\"In\": 1}, \"4\": {\"In\": 1}, \"5\": {\"In\": 1}, \"6\": {\"In\": 1}, \"7\": {\"In\": 1}, \"8\": {\"In\": 1}, \"9\": {\"In\": 1}, \"10\": {\"In\": 1}, \"11\": {\"In\": 1}, \"12\": {\"In\": 1}, \"13\": {\"In\": 1}, \"14\": {\"In\": 1}, \"15\": {\"In\": 1}, \"16\": {\"O\": 1}, \"17\": {\"O\": 1}, \"18\": {\"O\": 1}, \"19\": {\"O\": 1}, \"20\": {\"O\": 1}, \"21\": {\"O\": 1}, \"22\": {\"O\": 1}, \"23\": {\"O\": 1}, \"24\": {\"O\": 1}, \"25\": {\"O\": 1}, \"26\": {\"O\": 1}, \"27\": {\"O\": 1}, \"28\": {\"O\": 1}, \"29\": {\"O\": 1}, \"30\": {\"O\": 1}, \"31\": {\"O\": 1}, \"32\": {\"O\": 1}, \"33\": {\"O\": 1}, \"34\": {\"O\": 1}, \"35\": {\"O\": 1}, \"36\": {\"O\": 1}, \"37\": {\"O\": 1}, \"38\": {\"O\": 1}, \"39\": {\"O\": 1}}" n_minim_iter=3 energy=-45147.8459405009 stress="-0.1073767423727737 -2.5097265145480517e-13 1.3963962972639171e-13 -2.5097265145480517e-13 -0.10894558881646968 1.3084125081681217e-13 1.3963962972639171e-13 1.3084125081681217e-13 -0.10826874472086284" free_energy=-45147.8459405009 pbc="T T T"
In       2.70050484       4.48734437       8.82791163        0       0.05182813      -0.07606458      -0.02598636
In      -0.00282477       3.92279118       6.60880286        1       0.05182813       0.07606458       0.02598636
In       2.70615438       1.68396585      14.32716010        2      -0.05182813      -0.07606458       0.02598636
In       5.40948399       1.11941266       1.10955439        3      -0.05182813       0.07606458      -0.02598636
In       2.70615438       1.11941266       6.60880286        4      -0.05182813       0.07606458       0.02598636
In       5.40948399       1.68396585       8.82791163        5      -0.05182813      -0.07606458      -0.02598636
In       2.70050484       3.92279118       1.10955439        6       0.05182813       0.07606458      -0.02598636
In      -0.00282477       4.48734437      14.32716010        7       0.05182813      -0.07606458       0.02598636
In       2.71265940       4.19028148      12.62611254        8       0.00701054       0.01941860      -0.07021379
In       5.41598901       4.21985407       2.81060195        9       0.00701054      -0.01941860       0.07021379
In       2.69399981       1.38690296      10.52895919       10      -0.00701054       0.01941860       0.07021379
In      -0.00932979       1.41647555       4.90775529       11      -0.00701054      -0.01941860      -0.07021379
In       2.69399981       1.41647555       2.81060195       12      -0.00701054      -0.01941860       0.07021379
In      -0.00932979       1.38690296      12.62611254       13      -0.00701054       0.01941860      -0.07021379
In       2.71265940       4.21985407       4.90775529       14       0.00701054      -0.01941860      -0.07021379
In       5.41598901       4.19028148      10.52895919       15       0.00701054       0.01941860       0.07021379
O        4.65476389       4.97248820      12.31257215       16      -0.01433303       0.01899440      -0.03258065
O        1.95143429       3.43764735       3.12414233       17      -0.01433303      -0.01899440       0.03258065
O        0.75189532       2.16910969      10.84249958       18       0.01433303       0.01899440       0.03258065
O        3.45522493       0.63426883       4.59421491       19       0.01433303      -0.01899440      -0.03258065
O        0.75189532       0.63426883       3.12414233       20       0.01433303      -0.01899440       0.03258065
O        3.45522493       2.16910969      12.31257215       21       0.01433303       0.01899440      -0.03258065
O        4.65476389       3.43764735       4.59421491       22      -0.01433303      -0.01899440      -0.03258065
O        1.95143429       4.97248820      10.84249958       23      -0.01433303       0.01899440       0.03258065
O        3.83113207       2.95346305       9.67018508       24      -0.01623476      -0.01229862       0.03508476
O        1.12780246       5.45667250       5.76652941       25      -0.01623476       0.01229862      -0.03508476
O        1.57552715       0.15008453      13.48488665       26       0.01623476      -0.01229862      -0.03508476
O        4.27885676       2.65329399       1.95182783       27       0.01623476       0.01229862       0.03508476
O        1.57552715       2.65329399       5.76652941       28       0.01623476       0.01229862      -0.03508476
O        4.27885676       0.15008453       9.67018508       29       0.01623476      -0.01229862       0.03508476
O        3.83113207       5.45667250       1.95182783       30      -0.01623476       0.01229862       0.03508476
O        1.12780246       2.95346305      13.48488665       31      -0.01623476      -0.01229862      -0.03508476
O        3.47709413       3.71358442      14.61130776       32      -0.02813960       0.02901366       0.03579623
O        0.77376452       4.69655113       0.82540673       33      -0.02813960      -0.02901366      -0.03579623
O        1.92956508       0.91020590       8.54376398       34       0.02813960       0.02901366      -0.03579623
O        4.63289469       1.89317261       6.89295051       35       0.02813960      -0.02901366       0.03579623
O        1.92956508       1.89317261       0.82540673       36       0.02813960      -0.02901366      -0.03579623
O        4.63289469       0.91020590      14.61130776       37       0.02813960       0.02901366       0.03579623
O        3.47709413       4.69655113       6.89295051       38      -0.02813960      -0.02901366       0.03579623
O        0.77376452       3.71358442       8.54376398       39      -0.02813960       0.02901366      -0.03579623
40
Lattice="5.399287681154448 8.244451026834014e-43 0.0 -8.49402847170514e-43 5.616153034347667 0.0 0.0 0.0 15.431928540025993" Properties=species:S:1:pos:R:3:spacegroup_kinds:I:1:forces:R:3 spacegroup="P 1" unit_cell=conventional occupancy="_JSON {\"0\": {\"In\": 1}, \"1\": {\"In\": 1}, \"2\": {\"In\": 1}, \"3\": {\"In\": 1}, \"4\": {\"In\": 1}, \"5\": {\"In\": 1}, \"6\": {\"In\": 1}, \"7\": {\"In\": 1}, \"8\": {\"In\": 1}, \"9\": {\"In\": 1}, \"10\": {\"In\": 1}, \"11\": {\"In\": 1}, \"12\": {\"In\": 1}, \"13\": {\"In\": 1}, \"14\": {\"In\": 1}, \"15\": {\"In\": 1}, \"16\": {\"O\": 1}, \"17\": {\"O\": 1}, \"18\": {\"O\": 1}, \"19\": {\"O\": 1}, \"20\": {\"O\": 1}, \"21\": {\"O\": 1}, \"22\": {\"O\": 1}, \"23\": {\"O\": 1}, \"24\": {\"O\": 1}, \"25\": {\"O\": 1}, \"26\": {\"O\": 1}, \"27\": {\"O\": 1}, \"28\": {\"O\": 1}, \"29\": {\"O\": 1}, \"30\": {\"O\": 1}, \"31\": {\"O\": 1}, \"32\": {\"O\": 1}, \"33\": {\"O\": 1}, \"34\": {\"O\": 1}, \"35\": {\"O\": 1}, \"36\": {\"O\": 1}, \"37\": {\"O\": 1}, \"38\": {\"O\": 1}, \"39\": {\"O\": 1}}" n_minim_iter=4 energy=-45147.846899105054 stress="-0.10838044858669593 2.295912677136138e-13 2.483450568594468e-13 2.295912677136138e-13 -0.10754865549277394 -2.874620220123579e-13 2.483450568594468e-13 -2.874620220123579e-13 -0.10843745246323404" free_energy=-45147.846899105054 pbc="T T T"
In       2.69683470       4.49444928       8.82526874        0       0.06900552      -0.05323287      -0.01885348
In      -0.00280914       3.92978027       6.60665980        1       0.06900552       0.05323287       0.01885348
In       2.70245298       1.68637277      14.32262407        2      -0.06900552      -0.05323287       0.01885348
In       5.40209682       1.12170375       1.10930447        3      -0.06900552       0.05323287      -0.01885348
In       2.70245298       1.12170375       6.60665980        4      -0.06900552       0.05323287       0.01885348
In       5.40209682       1.68637277       8.82526874        5      -0.06900552      -0.05323287      -0.01885348
In       2.69683470       3.92978027       1.10930447        6       0.06900552       0.05323287      -0.01885348
In      -0.00280914       4.49444928      14.32262407        7       0.06900552      -0.05323287       0.01885348
In       2.70933904       4.19725297      12.62162618        8      -0.00968837      -0.00445215      -0.06089240
In       5.40898288       4.22697658       2.81030236        9      -0.00968837       0.00445215       0.06089240
In       2.68994864       1.38917646      10.52626663       10       0.00968837      -0.00445215       0.06089240
In      -0.00969520       1.41890006       4.90566191       11       0.00968837       0.00445215      -0.06089240
In       2.68994864       1.41890006       2.81030236       12       0.00968837       0.00445215       0.06089240
In      -0.00969520       1.38917646      12.62162618       13       0.00968837      -0.00445215      -0.06089240
In       2.70933904       4.22697658       4.90566191       14      -0.00968837       0.00445215      -0.06089240
In       5.40898288       4.19725297      10.52626663       15      -0.00968837      -0.00445215       0.06089240
O        4.64848303       4.98124673      12.30860196       16      -0.00127633       0.02977502      -0.03337540
O        1.94883919       3.44298282       3.12332658       17      -0.00127633      -0.02977502       0.03337540
O        0.75080465       2.17317021      10.83929085       18       0.00127633       0.02977502       0.03337540
O        3.45044849       0.63490631       4.59263769       19       0.00127633      -0.02977502      -0.03337540
O        0.75080465       0.63490631       3.12332658       20       0.00127633      -0.02977502       0.03337540
O        3.45044849       2.17317021      12.30860196       21       0.00127633       0.02977502      -0.03337540
O        4.64848303       3.44298282       4.59263769       22      -0.00127633      -0.02977502      -0.03337540
O        1.94883919       4.98124673      10.83929085       23      -0.00127633       0.02977502       0.03337540
O        3.82610747       2.95798788       9.66784592       24      -0.02462048      -0.00524730       0.02897104
O        1.12646363       5.46624167       5.76408262       25      -0.02462048       0.00524730      -0.02897104
O        1.57318021       0.14991136      13.48004689       26       0.02462048      -0.00524730      -0.02897104
O        4.27282405       2.65816516       1.95188165       27       0.02462048       0.00524730       0.02897104
O        1.57318021       2.65816516       5.76408262       28       0.02462048       0.00524730      -0.02897104
O        4.27282405       0.14991136       9.66784592       29       0.02462048      -0.00524730       0.02897104
O        3.82610747       5.46624167       1.95188165       30      -0.02462048       0.00524730       0.02897104
O        1.12646363       2.95798788      13.48004689       31      -0.02462048      -0.00524730      -0.02897104
O        3.47201529       3.71998929      14.60626022       32      -0.04236283       0.00733527       0.04075611
O        0.77237145       4.70424027       0.82566832       33      -0.04236283      -0.00733527      -0.04075611
O        1.92727239       0.91191277       8.54163259       34       0.04236283       0.00733527      -0.04075611
O        4.62691623       1.89616375       6.89029595       35       0.04236283      -0.00733527       0.04075611
O        1.92727239       1.89616375       0.82566832       36       0.04236283      -0.00733527      -0.04075611
O        4.62691623       0.91191277      14.60626022       37       0.04236283       0.00733527       0.04075611
O        3.47201529       4.70424027       6.89029595       38      -0.04236283      -0.00733527       0.04075611
O        0.77237145       3.71998929       8.54163259       39      -0.04236283       0.00733527      -0.04075611
40
Lattice="5.399380700453486 7.125481695621589e-43 0.0 -8.401478253600256e-43 5.6103755031428655 0.0 0.0 0.0 15.447554116399942" Properties=species:S:1:pos:R:3:spacegroup_kinds:I:1:forces:R:3 spacegroup="P 1" unit_cell=conventional occupancy="_JSON {\"0\": {\"In\": 1}, \"1\": {\"In\": 1}, \"2\": {\"In\": 1}, \"3\": {\"In\": 1}, \"4\": {\"In\": 1}, \"5\": {\"In\": 1}, \"6\": {\"In\": 1}, \"7\": {\"In\": 1}, \"8\": {\"In\": 1}, \"9\": {\"In\": 1}, \"10\": {\"In\": 1}, \"11\": {\"In\": 1}, \"12\": {\"In\": 1}, \"13\": {\"In\": 1}, \"14\": {\"In\": 1}, \"15\": {\"In\": 1}, \"16\": {\"O\": 1}, \"17\": {\"O\": 1}, \"18\": {\"O\": 1}, \"19\": {\"O\": 1}, \"20\": {\"O\": 1}, \"21\": {\"O\": 1}, \"22\": {\"O\": 1}, \"23\": {\"O\": 1}, \"24\": {\"O\": 1}, \"25\": {\"O\": 1}, \"26\": {\"O\": 1}, \"27\": {\"O\": 1}, \"28\": {\"O\": 1}, \"29\": {\"O\": 1}, \"30\": {\"O\": 1}, \"31\": {\"O\": 1}, \"32\": {\"O\": 1}, \"33\": {\"O\": 1}, \"34\": {\"O\": 1}, \"35\": {\"O\": 1}, \"36\": {\"O\": 1}, \"37\": {\"O\": 1}, \"38\": {\"O\": 1}, \"39\": {\"O\": 1}}" n_minim_iter=5 energy=-45147.85159925702 stress="-0.10781475684382331 -3.6759846722660927e-13 4.4715574432739847e-13 -3.6759846722660927e-13 -0.10768667687975352 6.798254793297479e-13 4.4715574432739847e-13 6.798254793297479e-13 -0.10683651853410672" free_energy=-45147.85159925702 pbc="T T T"
In       2.69967416       4.48580399       8.83385891        0       0.00687419      -0.00908810      -0.00717257
In      -0.00001619       3.92975927       6.61369521        1       0.00687419       0.00908810       0.00717257
In       2.69970654       1.68061623      14.33747227        2      -0.00687419      -0.00908810       0.00717257
In       5.39939689       1.12457152       1.11008185        3      -0.00687419       0.00908810      -0.00717257
In       2.69970654       1.12457152       6.61369521        4      -0.00687419       0.00908810       0.00717257
In       5.39939689       1.68061623       8.83385891        5      -0.00687419      -0.00908810      -0.00717257
In       2.69967416       3.92975927       1.11008185        6       0.00687419       0.00908810      -0.00717257
In      -0.00001619       4.48580399      14.33747227        7       0.00687419      -0.00908810       0.00717257
In       2.71077145       4.19253875      12.62930968        8      -0.00269122      -0.02106424       0.02117938
In       5.41046180       4.22302450       2.81824444        9      -0.00269122       0.02106424      -0.02117938
In       2.68860925       1.38735100      10.54202149       10       0.00269122      -0.02106424      -0.02117938
In      -0.01108110       1.41783675       4.90553262       11       0.00269122       0.02106424       0.02117938
In       2.68860925       1.41783675       2.81824444       12       0.00269122       0.02106424      -0.02117938
In      -0.01108110       1.38735100      12.62930968       13       0.00269122      -0.02106424       0.02117938
In       2.71077145       4.22302450       4.90553262       14      -0.00269122       0.02106424       0.02117938
In       5.41046180       4.19253875      10.54202149       15      -0.00269122      -0.02106424      -0.02117938
O        4.64888094       4.97928041      12.31902869       16      -0.01420422       0.00831828       0.03268315
O        1.94919059       3.43628285       3.12852543       17      -0.01420422      -0.00831828      -0.03268315
O        0.75049976       2.17409265      10.85230248       18       0.01420422       0.00831828      -0.03268315
O        3.45019011       0.63109510       4.59525163       19       0.01420422      -0.00831828       0.03268315
O        0.75049976       0.63109510       3.12852543       20       0.01420422      -0.00831828      -0.03268315
O        3.45019011       2.17409265      12.31902869       21       0.01420422       0.00831828       0.03268315
O        4.64888094       3.43628285       4.59525163       22      -0.01420422      -0.00831828       0.03268315
O        1.94919059       4.97928041      10.85230248       23      -0.01420422       0.00831828      -0.03268315
O        3.82618247       2.95271029       9.68190009       24      -0.01105641      -0.00560577       0.02378729
O        1.12649212       5.46285296       5.76565403       25      -0.01105641       0.00560577      -0.02378729
O        1.57319823       0.14752254      13.48943109       26       0.01105641      -0.00560577      -0.02378729
O        4.27288858       2.65766521       1.95812303       27       0.01105641       0.00560577       0.02378729
O        1.57319823       2.65766521       5.76565403       28       0.01105641       0.00560577      -0.02378729
O        4.27288858       0.14752254       9.68190009       29       0.01105641      -0.00560577       0.02378729
O        3.82618247       5.46285296       1.95812303       30      -0.01105641       0.00560577       0.02378729
O        1.12649212       2.95271029      13.48943109       31      -0.01105641      -0.00560577      -0.02378729
O        3.46875166       3.71732691      14.62020720       32      -0.00627922       0.01764581       0.01966346
O        0.76906131       4.69823635       0.82734692       33      -0.00627922      -0.01764581      -0.01966346
O        1.93062904       0.91213916       8.55112398       34       0.00627922       0.01764581      -0.01966346
O        4.63031939       1.89304860       6.89643014       35       0.00627922      -0.01764581       0.01966346
O        1.93062904       1.89304860       0.82734692       36       0.00627922      -0.01764581      -0.01966346
O        4.63031939       0.91213916      14.62020720       37       0.00627922       0.01764581       0.01966346
O        3.46875166       4.69823635       6.89643014       38      -0.00627922      -0.01764581       0.01966346
O        0.76906131       3.71732691       8.55112398       39      -0.00627922       0.01764581      -0.01966346
40