40
Lattice="5.670559670844711 1.0929140145122107e-42 0.0 -1.1299643093709493e-42 5.86279428859974 0.0 0.0 0.0 16.421461766021913" Properties=species:S:1:pos:R:3:spacegroup_kinds:I:1:forces:R:3 spacegroup="P 1" unit_cell=conventional occupancy="_JSON {\"0\": {\"In\": 1}, \"1\": {\"In\": 1}, \"2\": {\"In\": 1}, \"3\": {\"In\": 1}, \"4\": {\"In\": 1}, \"5\": {\"In\": 1}, \"6\": {\"In\": 1}, \"7\": {\"In\": 1}, \"8\": {\"In\": 1}, \"9\": {\"In\": 1}, \"10\": {\"In\": 1}, \"11\": {\"In\": 1}, \"12\": {\"In\": 1}, \"13\": {\"In\": 1}, \"14\": {\"In\": 1}, \"15\": {\"In\": 1}, \"16\": {\"O\": 1}, \"17\": {\"O\": 1}, \"18\": {\"O\": 1}, \"19\": {\"O\": 1}, \"20\": {\"O\": 1}, \"21\": {\"O\": 1}, \"22\": {\"O\": 1}, \"23\": {\"O\": 1}, \"24\": {\"O\": 1}, \"25\": {\"O\": 1}, \"26\": {\"O\": 1}, \"27\": {\"O\": 1}, \"28\": {\"O\": 1}, \"29\": {\"O\": 1}, \"30\": {\"O\": 1}, \"31\": {\"O\": 1}, \"32\": {\"O\": 1}, \"33\": {\"O\": 1}, \"34\": {\"O\": 1}, \"35\": {\"O\": 1}, \"36\": {\"O\": 1}, \"37\": {\"O\": 1}, \"38\": {\"O\": 1}, \"39\": {\"O\": 1}}" n_minim_iter=1 energy=-45149.83064919404 stress="0.03427278493662239 1.7563157485046151e-13 9.330493506281118e-14 1.7563157485046151e-13 0.03540144303624893 8.167646900114132e-14 9.330493506281118e-14 8.167646900114132e-14 0.034660157376226804" free_energy=-45149.83064919404 pbc="T T T"
In       2.82904076       4.68298515       9.37214469        0       0.00112828      -0.01850945       0.01625562
In      -0.00623908       4.11120628       7.04931707        1       0.00112828       0.01850945      -0.01625562
In       2.84151892       1.75158800      15.26004796        2      -0.00112828      -0.01850945      -0.01625562
In       5.67679875       1.17980914       1.16141381        3      -0.00112828       0.01850945       0.01625562
In       2.84151892       1.17980914       7.04931707        4      -0.00112828       0.01850945      -0.01625562
In       5.67679875       1.75158800       9.37214469        5      -0.00112828      -0.01850945       0.01625562
In       2.82904076       4.11120628       1.16141381        6       0.00112828       0.01850945       0.01625562
In      -0.00623908       4.68298515      15.26004796        7       0.00112828      -0.01850945      -0.01625562
In       2.81571331       4.37950769      13.43643372        8      -0.03408347      -0.00056902      -0.01884456
In       5.65099315       4.41468374       2.98502804        9      -0.03408347       0.00056902       0.01884456
In       2.85484636       1.44811055      11.19575893       10       0.03408347      -0.00056902       0.01884456
In       0.01956653       1.48328660       5.22570284       11       0.03408347       0.00056902      -0.01884456
In       2.85484636       1.48328660       2.98502804       12       0.03408347       0.00056902       0.01884456
In       0.01956653       1.44811055      13.43643372       13       0.03408347      -0.00056902      -0.01884456
In       2.81571331       4.41468374       5.22570284       14      -0.03408347       0.00056902      -0.01884456
In       5.65099315       4.37950769      11.19575893       15      -0.03408347      -0.00056902       0.01884456
O        4.87094737       5.15876131      13.10882575       16      -0.00849403      -0.04765661      -0.00644451
O        2.03566753       3.63543012       3.31263601       17      -0.00849403       0.04765661       0.00644451
O        0.79961230       2.22736416      11.52336690       18       0.00849403      -0.04765661       0.00644451
O        3.63489214       0.70403298       4.89809487       19       0.00849403       0.04765661      -0.00644451
O        0.79961230       0.70403298       3.31263601       20       0.00849403       0.04765661       0.00644451
O        3.63489214       2.22736416      13.10882575       21       0.00849403      -0.04765661      -0.00644451
O        4.87094737       3.63543012       4.89809487       22      -0.00849403       0.04765661      -0.00644451
O        2.03566753       5.15876131      11.52336690       23      -0.00849403      -0.04765661       0.00644451
O        4.00219952       3.09168620      10.25244177       24      -0.06289360       0.01544675      -0.01368057
O        1.16691969       5.70250523       6.16902000       25      -0.06289360      -0.01544675       0.01368057
O        1.66836015       0.16028906      14.37975088       26       0.06289360       0.01544675       0.01368057
O        4.50363999       2.77110808       2.04171089       27       0.06289360      -0.01544675      -0.01368057
O        1.66836015       2.77110808       6.16902000       28       0.06289360      -0.01544675       0.01368057
O        4.50363999       0.16028906      10.25244177       29       0.06289360       0.01544675      -0.01368057
O        4.00219952       5.70250523       2.04171089       30      -0.06289360      -0.01544675      -0.01368057
O        1.16691969       3.09168620      14.37975088       31      -0.06289360       0.01544675       0.01368057
O        3.66573210       3.87146911      15.56960837       32       0.02988455       0.01762498       0.02838751
O        0.83045227       4.92272233       0.85185340       33       0.02988455      -0.01762498      -0.02838751
O        2.00482757       0.94007196       9.06258428       34      -0.02988455       0.01762498      -0.02838751
O        4.84010740       1.99132518       7.35887749       35      -0.02988455      -0.01762498       0.02838751
O        2.00482757       1.99132518       0.85185340       36      -0.02988455      -0.01762498      -0.02838751
O        4.84010740       0.94007196      15.56960837       37      -0.02988455       0.01762498       0.02838751
O        3.66573210       4.92272233       7.35887749       38       0.02988455      -0.01762498       0.02838751
O        0.83045227       3.87146911       9.06258428       39       0.02988455       0.01762498      -0.02838751
40
Lattice="5.675917516572228 1.1038137421659897e-42 0.0 -1.1362755641964599e-42 5.855968835070504 0.0 0.0 0.0 16.42508259250315" Properties=species:S:1:pos:R:3:spacegroup_kinds:I:1:forces:R:3 spacegroup="P 1" unit_cell=conventional occupancy="_JSON {\"0\": {\"In\": 1}, \"1\": {\"In\": 1}, \"2\": {\"In\": 1}, \"3\": {\"In\": 1}, \"4\": {\"In\": 1}, \"5\": {\"In\": 1}, \"6\": {\"In\": 1}, \"7\": {\"In\": 1}, \"8\": {\"In\": 1}, \"9\": {\"In\": 1}, \"10\": {\"In\": 1}, \"11\": {\"In\": 1}, \"12\": {\"In\": 1}, \"13\": {\"In\": 1}, \"14\": {\"In\": 1}, \"15\": {\"In\": 1}, \"16\": {\"O\": 1}, \"17\": {\"O\": 1}, \"18\": {\"O\": 1}, \"19\": {\"O\": 1}, \"20\": {\"O\": 1}, \"21\": {\"O\": 1}, \"22\": {\"O\": 1}, \"23\": {\"O\": 1}, \"24\": {\"O\": 1}, \"25\": {\"O\": 1}, \"26\": {\"O\": 1}, \"27\": {\"O\": 1}, \"28\": {\"O\": 1}, \"29\": {\"O\": 1}, \"30\": {\"O\": 1}, \"31\": {\"O\": 1}, \"32\": {\"O\": 1}, \"33\": {\"O\": 1}, \"34\": {\"O\": 1}, \"35\": {\"O\": 1}, \"36\": {\"O\": 1}, \"37\": {\"O\": 1}, \"38\": {\"O\": 1}, \"39\": {\"O\": 1}}" n_minim_iter=2 energy=-45149.83113404709 stress="0.03488069485564096 6.959422811404338e-14 2.6221584889502735e-13 6.959422811404338e-14 0.03442247656560314 1.2398924925817384e-14 2.6221584889502735e-13 1.2398924925817384e-14 0.03481663370480808" free_energy=-45149.83113404709 pbc="T T T"
In       2.83171765       4.67746994       9.37426685        0      -0.00331853      -0.02265573       0.01119846
In      -0.00624111       4.10648331       7.05081575        1      -0.00331853       0.02265573      -0.01119846
In       2.84419987       1.74948552      15.26335704        2       0.00331853      -0.02265573      -0.01119846
In       5.68215863       1.17849890       1.16172555        3       0.00331853       0.02265573       0.01119846
In       2.84419987       1.17849890       7.05081575        4       0.00331853       0.02265573      -0.01119846
In       5.68215863       1.74948552       9.37426685        5       0.00331853      -0.02265573       0.01119846
In       2.83171765       4.10648331       1.16172555        6      -0.00331853       0.02265573       0.01119846
In      -0.00624111       4.67746994      15.26335704        7      -0.00331853      -0.02265573      -0.01119846
In       2.81825696       4.37440713      13.43933185        8      -0.02988662       0.00389282      -0.02076719
In       5.65621572       4.40954612       2.98575074        9      -0.02988662      -0.00389282       0.02076719
In       2.85766056       1.44642272      11.19829204       10       0.02988662       0.00389282       0.02076719
In       0.01970180       1.48156170       5.22679055       11       0.02988662      -0.00389282      -0.02076719
In       2.85766056       1.48156170       2.98575074       12       0.02988662      -0.00389282       0.02076719
In       0.01970180       1.44642272      13.43933185       13       0.02988662       0.00389282      -0.02076719
In       2.81825696       4.40954612       5.22679055       14      -0.02988662      -0.00389282      -0.02076719
In       5.65621572       4.37440713      11.19829204       15      -0.02988662       0.00389282       0.02076719
O        4.87552060       5.15259254      13.11169410       16      -0.00676119      -0.04757714      -0.00539561
O        2.03756184       3.63136071       3.31338849       17      -0.00676119       0.04757714       0.00539561
O        0.80039692       2.22460812      11.52592979       18       0.00676119      -0.04757714       0.00539561
O        3.63835568       0.70337629       4.89915280       19       0.00676119       0.04757714      -0.00539561
O        0.80039692       0.70337629       3.31338849       20       0.00676119       0.04757714       0.00539561
O        3.63835568       2.22460812      13.11169410       21       0.00676119      -0.04757714      -0.00539561
O        4.87552060       3.63136071       4.89915280       22      -0.00676119       0.04757714      -0.00539561
O        2.03756184       5.15259254      11.52592979       23      -0.00676119      -0.04757714       0.00539561
O        4.00576551       3.08813968      10.25465553       24      -0.05858655       0.01226187      -0.01048533
O        1.16780675       5.69581357       6.17042707       25      -0.05858655      -0.01226187       0.01048533
O        1.67015200       0.16015527      14.38296836       26       0.05858655       0.01226187       0.01048533
O        4.50811076       2.76782915       2.04211423       27       0.05858655      -0.01226187      -0.01048533
O        1.67015200       2.76782915       6.17042707       28       0.05858655      -0.01226187       0.01048533
O        4.50811076       0.16015527      10.25465553       29       0.05858655       0.01226187      -0.01048533
O        4.00576551       5.69581357       2.04211423       30      -0.05858655      -0.01226187      -0.01048533
O        1.16780675       3.08813968      14.38296836       31      -0.05858655       0.01226187       0.01048533
O        3.66929808       3.86702221      15.57313856       32       0.02907407       0.02158401       0.02576169
O        0.83133932       4.91693104       0.85194403       33       0.02907407      -0.02158401      -0.02576169
O        2.00661944       0.93903780       9.06448532       34      -0.02907407       0.02158401      -0.02576169
O        4.84457820       1.98894662       7.36059727       35      -0.02907407      -0.02158401       0.02576169
O        2.00661944       1.98894662       0.85194403       36      -0.02907407      -0.02158401      -0.02576169
O        4.84457820       0.93903780      15.57313856       37      -0.02907407       0.02158401       0.02576169
O        3.66929808       4.91693104       7.36059727       38       0.02907407      -0.02158401       0.02576169
O        0.83133932       3.86702221       9.06448532       39       0.02907407       0.02158401      -0.02576169
40
Lattice="5.68051566472945 1.1046830005024802e-42 0.0 -1.1370379870774168e-42 5.859787031214075 0.0 0.0 0.0 16.401093345647105" Properties=species:S:1:pos:R:3:spacegroup_kinds:I:1:forces:R:3 spacegroup="P 1" unit_cell=conventional occupancy="_JSON {\"0\": {\"In\": 1}, \"1\": {\"In\": 1}, \"2\": {\"In\": 1}, \"3\": {\"In\": 1}, \"4\": {\"In\": 1}, \"5\": {\"In\": 1}, \"6\": {\"In\": 1}, \"7\": {\"In\": 1}, \"8\": {\"In\": 1}, \"9\": {\"In\": 1}, \"10\": {\"In\": 1}, \"11\": {\"In\": 1}, \"12\": {\"In\": 1}, \"13\": {\"In\": 1}, \"14\": {\"In\": 1}, \"15\": {\"In\": 1}, \"16\": {\"O\": 1}, \"17\": {\"O\": 1}, \"18\": {\"O\": 1}, \"19\": {\"O\": 1}, \"20\": {\"O\": 1}, \"21\": {\"O\": 1}, \"22\": {\"O\": 1}, \"23\": {\"O\": 1}, \"24\": {\"O\": 1}, \"25\": {\"O\": 1}, \"26\": {\"O\": 1}, \"27\": {\"O\": 1}, \"28\": {\"O\": 1}, \"29\": {\"O\": 1}, \"30\": {\"O\": 1}, \"31\": {\"O\": 1}, \"32\": {\"O\": 1}, \"33\": {\"O\": 1}, \"34\": {\"O\": 1}, \"35\": {\"O\": 1}, \"36\": {\"O\": 1}, \"37\": {\"O\": 1}, \"38\": {\"O\": 1}, \"39\": {\"O\": 1}}" n_minim_iter=3 energy=-45149.833676013426 stress="0.03517168398942831 -1.8344186041222848e-13 5.897375936569545e-14 -1.8344186041222848e-13 0.03465434351855407 2.3688464330861185e-13 5.897375936569545e-14 2.3688464330861185e-13 0.03315279068599154" free_energy=-45149.833676013426 pbc="T T T"
In       2.83388696       4.67920223       9.36135430        0      -0.01991178       0.00717472      -0.00198707
In      -0.00637087       4.11047832       7.03973905        1      -0.01991178      -0.00717472       0.00198707
In       2.84662870       1.74930871      15.24028572        2       0.01991178       0.00717472       0.00198707
In       5.68688653       1.18058480       1.16080763        3       0.01991178      -0.00717472      -0.00198707
In       2.84662870       1.18058480       7.03973905        4       0.01991178      -0.00717472       0.00198707
In       5.68688653       1.74930871       9.36135430        5       0.01991178       0.00717472      -0.00198707
In       2.83388696       4.11047832       1.16080763        6      -0.01991178      -0.00717472      -0.00198707
In      -0.00637087       4.67920223      15.24028572        7      -0.01991178       0.00717472       0.00198707
In       2.81862159       4.37741845      13.41846165        8      -0.00860953      -0.01721655       0.00260952
In       5.65887943       4.41226209       2.98263169        9      -0.00860953       0.01721655      -0.00260952
In       2.86189407       1.44752494      11.18317837       10       0.00860953      -0.01721655      -0.00260952
In       0.02163624       1.48236858       5.21791498       11       0.00860953       0.01721655       0.00260952
In       2.86189407       1.48236858       2.98263169       12       0.00860953       0.01721655      -0.00260952
In       0.02163624       1.44752494      13.41846165       13       0.00860953      -0.01721655       0.00260952
In       2.81862159       4.41226209       5.21791498       14      -0.00860953       0.01721655       0.00260952
In       5.65887943       4.37741845      11.18317837       15      -0.00860953      -0.01721655      -0.00260952
O        4.87902223       5.15302775      13.09219377       16      -0.00637459      -0.02805023       0.00913087
O        2.03876440       3.63665279       3.30889957       17      -0.00637459       0.02805023      -0.00913087
O        0.80149343       2.22313424      11.50944625       18       0.00637459      -0.02805023      -0.00913087
O        3.64175126       0.70675928       4.89164710       19       0.00637459       0.02805023       0.00913087
O        0.80149343       0.70675928       3.30889957       20       0.00637459       0.02805023      -0.00913087
O        3.64175126       2.22313424      13.09219377       21       0.00637459      -0.02805023       0.00913087
O        4.87902223       3.63665279       4.89164710       22      -0.00637459       0.02805023       0.00913087
O        2.03876440       5.15302775      11.50944625       23      -0.00637459      -0.02805023      -0.00913087
O        4.00532033       3.09096365      10.23897673       24      -0.01975868       0.00303142       0.00091719
O        1.16506250       5.69871689       6.16211661       25      -0.01975868      -0.00303142      -0.00091719
O        1.67519534       0.16107014      14.36266329       26       0.01975868       0.00303142      -0.00091719
O        4.51545317       2.76882338       2.03843006       27       0.01975868      -0.00303142       0.00091719
O        1.67519534       2.76882338       6.16211661       28       0.01975868      -0.00303142      -0.00091719
O        4.51545317       0.16107014      10.23897673       29       0.01975868       0.00303142       0.00091719
O        4.00532033       5.69871689       2.03843006       30      -0.01975868      -0.00303142       0.00091719
O        1.16506250       3.09096365      14.36266329       31      -0.01975868       0.00303142      -0.00091719
O        3.67407813       3.87079860      15.55202376       32       0.00699741       0.00251387       0.00236200
O        0.83382030       4.91888194       0.84906958       33       0.00699741      -0.00251387      -0.00236200
O        2.00643754       0.94090509       9.04961626       34      -0.00699741       0.00251387      -0.00236200
O        4.84669537       1.98898843       7.35147709       35      -0.00699741      -0.00251387       0.00236200
O        2.00643754       1.98898843       0.84906958       36      -0.00699741      -0.00251387      -0.00236200
O        4.84669537       0.94090509      15.55202376       37      -0.00699741       0.00251387       0.00236200
O        3.67407813       4.91888194       7.35147709       38       0.00699741      -0.00251387       0.00236200
O        0.83382030       3.87079860       9.04961626       39       0.00699741       0.00251387      -0.00236200
40
Lattice="5.674938191403558 1.1151503249222348e-42 0.0 -1.1545332110450033e-42 5.858247729037295 0.0 0.0 0.0 16.421526512573955" Properties=species:S:1:pos:R:3:spacegroup_kinds:I:1:forces:R:3 spacegroup="P 1" unit_cell=conventional occupancy="_JSON {\"0\": {\"In\": 1}, \"1\": {\"In\": 1}, \"2\": {\"In\": 1}, \"3\": {\"In\": 1}, \"4\": {\"In\": 1}, \"5\": {\"In\": 1}, \"6\": {\"In\": 1}, \"7\": {\"In\": 1}, \"8\": {\"In\": 1}, \"9\": {\"In\": 1}, \"10\": {\"In\": 1}, \"11\": {\"In\": 1}, \"12\": {\"In\": 1}, \"13\": {\"In\": 1}, \"14\": {\"In\": 1}, \"15\": {\"In\": 1}, \"16\": {\"O\": 1}, \"17\": {\"O\": 1}, \"18\": {\"O\": 1}, \"19\": {\"O\": 1}, \"20\": {\"O\": 1}, \"21\": {\"O\": 1}, \"22\": {\"O\": 1}, \"23\": {\"O\": 1}, \"24\": {\"O\": 1}, \"25\": {\"O\": 1}, \"26\": {\"O\": 1}, \"27\": {\"O\": 1}, \"28\": {\"O\": 1}, \"29\": {\"O\": 1}, \"30\": {\"O\": 1}, \"31\": {\"O\": 1}, \"32\": {\"O\": 1}, \"33\": {\"O\": 1}, \"34\": {\"O\": 1}, \"35\": {\"O\": 1}, \"36\": {\"O\": 1}, \"37\": {\"O\": 1}, \"38\": {\"O\": 1}, \"39\": {\"O\": 1}}" n_minim_iter=4 energy=-45149.8346121073 stress="0.03419351776732989 3.886579981683494e-13 1.827084895246817e-15 3.886579981683494e-13 0.03419304308160604 -1.997736360658073e-13 1.827084895246817e-15 -1.997736360658073e-13 0.03422476174460595" free_energy=-45149.8346121073 pbc="T T T"
In       2.83100318       4.67750845       9.37329846        0      -0.01269024       0.02309268      -0.01536999
In      -0.00646592       4.10986314       7.04822805        1      -0.01269024      -0.02309268       0.01536999
In       2.84393501       1.74838459      15.25899131        2       0.01269024       0.02309268       0.01536999
In       5.68140411       1.18073928       1.16253520        3       0.01269024      -0.02309268      -0.01536999
In       2.84393501       1.18073928       7.04822805        4       0.01269024      -0.02309268       0.01536999
In       5.68140411       1.74838459       9.37329846        5       0.01269024       0.02309268      -0.01536999
In       2.83100318       4.10986314       1.16253520        6      -0.01269024      -0.02309268      -0.01536999
In      -0.00646592       4.67750845      15.25899131        7      -0.01269024       0.02309268       0.01536999
In       2.81512497       4.37627922      13.43472882        8      -0.00984736      -0.02225625       0.00451300
In       5.65259407       4.41109237       2.98679769        9      -0.00984736       0.02225625      -0.00451300
In       2.85981322       1.44715536      11.19756095       10       0.00984736      -0.02225625      -0.00451300
In       0.02234413       1.48196851       5.22396556       11       0.00984736       0.02225625       0.00451300
In       2.85981322       1.48196851       2.98679769       12       0.00984736       0.02225625      -0.00451300
In       0.02234413       1.44715536      13.43472882       13       0.00984736      -0.02225625       0.00451300
In       2.81512497       4.41109237       5.22396556       14      -0.00984736       0.02225625       0.00451300
In       5.65259407       4.37627922      11.19756095       15      -0.00984736      -0.02225625      -0.00451300
O        4.87404924       5.15052065      13.10840087       16      -0.00266506      -0.02066209       0.00968329
O        2.03658014       3.63685095       3.31312564       17      -0.00266506       0.02066209      -0.00968329
O        0.80088895       2.22139678      11.52388890       18       0.00266506      -0.02066209      -0.00968329
O        3.63835805       0.70772708       4.89763761       19       0.00266506       0.02066209       0.00968329
O        0.80088895       0.70772708       3.31312564       20       0.00266506       0.02066209      -0.00968329
O        3.63835805       2.22139678      13.10840087       21       0.00266506      -0.02066209       0.00968329
O        4.87404924       3.63685095       4.89763761       22      -0.00266506       0.02066209       0.00968329
O        2.03658014       5.15052065      11.52388890       23      -0.00266506      -0.02066209      -0.00968329
O        3.99997626       3.09045821      10.25147696       24      -0.00085406      -0.00656273       0.00810756
O        1.16250716       5.69691338       6.17004955       25      -0.00085406       0.00656273      -0.00810756
O        1.67496194       0.16133435      14.38081281       26       0.00085406      -0.00656273      -0.00810756
O        4.51243103       2.76778952       2.04071371       27       0.00085406       0.00656273       0.00810756
O        1.67496194       2.76778952       6.17004955       28       0.00085406       0.00656273      -0.00810756
O        4.51243103       0.16133435      10.25147696       29       0.00085406      -0.00656273       0.00810756
O        3.99997626       5.69691338       2.04071371       30      -0.00085406       0.00656273       0.00810756
O        1.16250716       3.09045821      14.38081281       31      -0.00085406      -0.00656273      -0.00810756
O        3.67115451       3.87025032      15.57200617       32      -0.00867898      -0.00779151       0.00132060
O        0.83368542       4.91712128       0.84952035       33      -0.00867898       0.00779151      -0.00132060
O        2.00378368       0.94112645       9.06028360       34       0.00867898      -0.00779151      -0.00132060
O        4.84125277       1.98799741       7.36124291       35       0.00867898       0.00779151       0.00132060
O        2.00378368       1.98799741       0.84952035       36       0.00867898       0.00779151      -0.00132060
O        4.84125277       0.94112645      15.57200617       37       0.00867898      -0.00779151       0.00132060
O        3.67115451       4.91712128       7.36124291       38      -0.00867898       0.00779151       0.00132060
O        0.83368542       3.87025032       9.06028360       39      -0.00867898      -0.00779151      -0.00132060
40
Lattice="5.672903370028525 8.851555825525387e-43 0.0 -1.661045746620369e-42 5.860074538730992 0.0 0.0 0.0 16.422295717076025" Properties=species:S:1:pos:R:3:spacegroup_kinds:I:1:forces:R:3 spacegroup="P 1" unit_cell=conventional occupancy="_JSON {\"0\": {\"In\": 1}, \"1\": {\"In\": 1}, \"2\": {\"In\": 1}, \"3\": {\"In\": 1}, \"4\": {\"In\": 1}, \"5\": {\"In\": 1}, \"6\": {\"In\": 1}, \"7\": {\"In\": 1}, \"8\": {\"In\": 1}, \"9\": {\"In\": 1}, \"10\": {\"In\": 1}, \"11\": {\"In\": 1}, \"12\": {\"In\": 1}, \"13\": {\"In\": 1}, \"14\": {\"In\": 1}, \"15\": {\"In\": 1}, \"16\": {\"O\": 1}, \"17\": {\"O\": 1}, \"18\": {\"O\": 1}, \"19\": {\"O\": 1}, \"20\": {\"O\": 1}, \"21\": {\"O\": 1}, \"22\": {\"O\": 1}, \"23\": {\"O\": 1}, \"24\": {\"O\": 1}, \"25\": {\"O\": 1}, \"26\": {\"O\": 1}, \"27\": {\"O\": 1}, \"28\": {\"O\": 1}, \"29\": {\"O\": 1}, \"30\": {\"O\": 1}, \"31\": {\"O\": 1}, \"32\": {\"O\": 1}, \"33\": {\"O\": 1}, \"34\": {\"O\": 1}, \"35\": {\"O\": 1}, \"36\": {\"O\": 1}, \"37\": {\"O\": 1}, \"38\": {\"O\": 1}, \"39\": {\"O\": 1}}" n_minim_iter=5 energy=-45149.83608100197 stress="0.03388917999063264 2.0936877096893337e-13 9.575111462983456e-14 2.0936877096893337e-13 0.03398215585113507 -2.5363691883123026e-13 9.575111462983456e-14 -2.5363691883123026e-13 0.03396631921313414" free_energy=-45149.83608100197 pbc="T T T"
In       2.82784380       4.68187402       9.37175988        0       0.00828067      -0.01288778       0.01648719
In      -0.00860788       4.10823779       7.05053584        1       0.00828067       0.01288778      -0.01648719
In       2.84505957       1.75183675      15.26168370        2      -0.00828067      -0.01288778      -0.01648719
In       5.68151125       1.17820052       1.16061202        3      -0.00828067       0.01288778       0.01648719
In       2.84505957       1.17820052       7.05053584        4      -0.00828067       0.01288778      -0.01648719
In       5.68151125       1.75183675       9.37175988        5      -0.00828067      -0.01288778       0.01648719
In       2.82784380       4.10823779       1.16061202        6       0.00828067       0.01288778       0.01648719
In      -0.00860788       4.68187402      15.26168370        7       0.00828067      -0.01288778      -0.01648719
In       2.81144659       4.37417171      13.43537491        8       0.00022656      -0.01696720      -0.01088268
In       5.64789827       4.41594010       2.98692081        9       0.00022656       0.01696720       0.01088268
In       2.86145678       1.44413444      11.19806867       10      -0.00022656      -0.01696720       0.01088268
In       0.02500510       1.48590283       5.22422705       11      -0.00022656       0.01696720      -0.01088268
In       2.86145678       1.48590283       2.98692081       12      -0.00022656       0.01696720       0.01088268
In       0.02500510       1.44413444      13.43537491       13      -0.00022656      -0.01696720      -0.01088268
In       2.81144659       4.41594010       5.22422705       14       0.00022656       0.01696720      -0.01088268
In       5.64789827       4.37417171      11.19806867       15       0.00022656      -0.01696720       0.01088268
O        4.87160262       5.14711810      13.11037342       16      -0.00436885      -0.00795458       0.01005213
O        2.03515094       3.64299371       3.31192230       17      -0.00436885       0.00795458      -0.01005213
O        0.80130075       2.21708083      11.52307016       18       0.00436885      -0.00795458      -0.01005213
O        3.63775243       0.71295644       4.89922556       19       0.00436885       0.00795458       0.01005213
O        0.80130075       0.71295644       3.31192230       20       0.00436885       0.00795458      -0.01005213
O        3.63775243       2.21708083      13.11037342       21       0.00436885      -0.00795458       0.01005213
O        4.87160262       3.64299371       4.89922556       22      -0.00436885       0.00795458       0.01005213
O        2.03515094       5.14711810      11.52307016       23      -0.00436885      -0.00795458      -0.01005213
O        3.99624006       3.09086530      10.25283483       24       0.00529907       0.00605752      -0.00966731
O        1.15978838       5.69924651       6.16946089       25       0.00529907      -0.00605752       0.00966731
O        1.67666331       0.16082803      14.38060875       26      -0.00529907       0.00605752       0.00966731
O        4.51311499       2.76920924       2.04168697       27      -0.00529907      -0.00605752      -0.00966731
O        1.67666331       2.76920924       6.16946089       28      -0.00529907      -0.00605752       0.00966731
O        4.51311499       0.16082803      10.25283483       29      -0.00529907       0.00605752      -0.00966731
O        3.99624006       5.69924651       2.04168697       30       0.00529907      -0.00605752      -0.00966731
O        1.15978838       3.09086530      14.38060875       31       0.00529907       0.00605752       0.00966731
O        3.66952409       3.87095375      15.57387725       32      -0.01139745      -0.00939319      -0.00782829
O        0.83307241       4.91915806       0.84841846       33      -0.01139745       0.00939319       0.00782829
O        2.00337928       0.94091648       9.05956632       34       0.01139745      -0.00939319       0.00782829
O        4.83983096       1.98912079       7.36272940       35       0.01139745       0.00939319      -0.00782829
O        2.00337928       1.98912079       0.84841846       36       0.01139745       0.00939319       0.00782829
O        4.83983096       0.94091648      15.57387725       37       0.01139745      -0.00939319      -0.00782829
O        3.66952409       4.91915806       7.36272940       38      -0.01139745       0.00939319      -0.00782829
O        0.83307241       3.87095375       9.05956632       39      -0.01139745      -0.00939319       0.00782829
40