40
Lattice="6.024976094414355 -8.887220990190384e-18 3.3490635242739474e-16 -2.938496465007782e-16 4.019726085272556 9.975803819179087e-16 2.728984192884753e-16 2.8874813369338414e-16 16.638072395418032" Properties=species:S:1:pos:R:3:spacegroup_kinds:I:1:forces:R:3 spacegroup="P 1" unit_cell=conventional occupancy="_JSON {\"0\": {\"In\": 1}, \"1\": {\"In\": 1}, \"2\": {\"In\": 1}, \"3\": {\"In\": 1}, \"4\": {\"In\": 1}, \"5\": {\"In\": 1}, \"6\": {\"In\": 1}, \"7\": {\"In\": 1}, \"8\": {\"In\": 1}, \"9\": {\"In\": 1}, \"10\": {\"In\": 1}, \"11\": {\"In\": 1}, \"12\": {\"In\": 1}, \"13\": {\"In\": 1}, \"14\": {\"In\": 1}, \"15\": {\"In\": 1}, \"16\": {\"O\": 1}, \"17\": {\"O\": 1}, \"18\": {\"O\": 1}, \"19\": {\"O\": 1}, \"20\": {\"O\": 1}, \"21\": {\"O\": 1}, \"22\": {\"O\": 1}, \"23\": {\"O\": 1}, \"24\": {\"O\": 1}, \"25\": {\"O\": 1}, \"26\": {\"O\": 1}, \"27\": {\"O\": 1}, \"28\": {\"O\": 1}, \"29\": {\"O\": 1}, \"30\": {\"O\": 1}, \"31\": {\"O\": 1}, \"32\": {\"O\": 1}, \"33\": {\"O\": 1}, \"34\": {\"O\": 1}, \"35\": {\"O\": 1}, \"36\": {\"O\": 1}, \"37\": {\"O\": 1}, \"38\": {\"O\": 1}, \"39\": {\"O\": 1}}" n_minim_iter=1 energy=-45144.881856903965 stress="-0.18774857260262573 3.081834582065376e-13 -8.121860186202014e-13 3.081834582065376e-13 -0.1882728701052169 4.19124619582863e-13 -8.121860186202014e-13 4.19124619582863e-13 -0.1838918311143564" free_energy=-45144.881856903965 pbc="T T T"
In       2.88311215       3.01505867       9.42270894        0      -0.37908783      -0.00000000      -0.05635016
In      -0.12937590       3.01505867       7.21618163        1      -0.37908783       0.00000000       0.05635016
In       3.14193022       1.00519563      15.53521783        2       0.37908783       0.00000000       0.05635016
In       6.15441826       1.00519563       1.10367274        3       0.37908783      -0.00000000      -0.05635016
In       3.14193022       1.00519563       7.21618163        4       0.37908783       0.00000000       0.05635016
In       6.15441826       1.00519563       9.42270894        5       0.37908783      -0.00000000      -0.05635016
In       2.88311215       3.01505867       1.10367274        6      -0.37908783      -0.00000000      -0.05635016
In      -0.12937590       3.01505867      15.53521783        7      -0.37908783       0.00000000       0.05635016
In       3.14193022       3.01505867      13.58222704        8       0.37908783       0.00000000      -0.05635016
In       6.15441826       3.01505867       3.05666353        9       0.37908783       0.00000000       0.05635016
In       2.88311215       1.00519563      11.37569973       10      -0.37908783      -0.00000000       0.05635016
In      -0.12937590       1.00519563       5.26319084       11      -0.37908783      -0.00000000      -0.05635016
In       2.88311215       1.00519563       3.05666353       12      -0.37908783      -0.00000000       0.05635016
In      -0.12937590       1.00519563      13.58222704       13      -0.37908783      -0.00000000      -0.05635016
In       3.14193022       3.01505867       5.26319084       14       0.37908783      -0.00000000      -0.05635016
In       6.15441826       3.01505867      11.37569973       15       0.37908783       0.00000000       0.05635016
O        5.24249728       3.01505867      13.26307747       16      -0.00908324      -0.00000000       0.05342235
O        2.23000923       3.01505867       3.37581310       17      -0.00908324      -0.00000000      -0.05342235
O        0.78254509       1.00519563      11.69484929       18       0.00908324       0.00000000      -0.05342235
O        3.79503313       1.00519563       4.94404128       19       0.00908324       0.00000000       0.05342235
O        0.78254509       1.00519563       3.37581310       20       0.00908324       0.00000000      -0.05342235
O        3.79503313       1.00519563      13.26307747       21       0.00908324       0.00000000       0.05342235
O        5.24249728       3.01505867       4.94404128       22      -0.00908324      -0.00000000       0.05342235
O        2.23000923       3.01505867      11.69484929       23      -0.00908324      -0.00000000      -0.05342235
O        4.51876521       2.01012715      10.39920433       24       0.00000000      -0.00000000       0.00000000
O        1.50627716       4.01999020       6.23968624       25       0.00000000       0.00000000       0.00000000
O        1.50627716       0.00026411      14.55872243       26      -0.00000000       0.00000000      -0.00000000
O        4.51876521       2.01012715       2.08016814       27      -0.00000000      -0.00000000      -0.00000000
O        1.50627716       2.01012715       6.23968624       28      -0.00000000       0.00000000       0.00000000
O        4.51876521       0.00026411      10.39920433       29      -0.00000000       0.00000000      -0.00000000
O        4.51876521       4.01999020       2.08016814       30      -0.00000000       0.00000000      -0.00000000
O        1.50627716       2.01012715      14.55872243       31       0.00000000      -0.00000000      -0.00000000
O        3.79503313       3.01505867      15.85436739       32       0.00908324       0.00000000      -0.05342235
O        0.78254509       3.01505867       0.78452318       33       0.00908324       0.00000000       0.05342235
O        2.23000923       1.00519563       9.10355937       34      -0.00908324      -0.00000000       0.05342235
O        5.24249728       1.00519563       7.53533120       35      -0.00908324      -0.00000000      -0.05342235
O        2.23000923       1.00519563       0.78452318       36      -0.00908324      -0.00000000       0.05342235
O        5.24249728       1.00519563      15.85436739       37      -0.00908324      -0.00000000      -0.05342235
O        3.79503313       3.01505867       7.53533120       38       0.00908324       0.00000000      -0.05342235
O        0.78254509       3.01505867       9.10355937       39       0.00908324       0.00000000       0.05342235
40
Lattice="6.032199049727302 -8.717800352572145e-18 3.28082468743441e-16 -2.9407841896325023e-16 4.026821615164244 6.038240971348958e-16 2.5728675484359475e-16 -1.2932516569213076e-15 16.588867671715896" Properties=species:S:1:pos:R:3:spacegroup_kinds:I:1:forces:R:3 spacegroup="P 1" unit_cell=conventional occupancy="_JSON {\"0\": {\"In\": 1}, \"1\": {\"In\": 1}, \"2\": {\"In\": 1}, \"3\": {\"In\": 1}, \"4\": {\"In\": 1}, \"5\": {\"In\": 1}, \"6\": {\"In\": 1}, \"7\": {\"In\": 1}, \"8\": {\"In\": 1}, \"9\": {\"In\": 1}, \"10\": {\"In\": 1}, \"11\": {\"In\": 1}, \"12\": {\"In\": 1}, \"13\": {\"In\": 1}, \"14\": {\"In\": 1}, \"15\": {\"In\": 1}, \"16\": {\"O\": 1}, \"17\": {\"O\": 1}, \"18\": {\"O\": 1}, \"19\": {\"O\": 1}, \"20\": {\"O\": 1}, \"21\": {\"O\": 1}, \"22\": {\"O\": 1}, \"23\": {\"O\": 1}, \"24\": {\"O\": 1}, \"25\": {\"O\": 1}, \"26\": {\"O\": 1}, \"27\": {\"O\": 1}, \"28\": {\"O\": 1}, \"29\": {\"O\": 1}, \"30\": {\"O\": 1}, \"31\": {\"O\": 1}, \"32\": {\"O\": 1}, \"33\": {\"O\": 1}, \"34\": {\"O\": 1}, \"35\": {\"O\": 1}, \"36\": {\"O\": 1}, \"37\": {\"O\": 1}, \"38\": {\"O\": 1}, \"39\": {\"O\": 1}}" n_minim_iter=2 energy=-45144.88754174089 stress="-0.1841301278184875 -7.230518205519536e-13 -8.109343246250607e-13 -7.230518205519536e-13 -0.1827863558543483 9.276555514898766e-14 -8.109343246250607e-13 9.276555514898766e-14 -0.18891113181528488" free_energy=-45144.88754174089 pbc="T T T"
In       2.88555260       3.02038079       9.39469223        0      -0.38664016      -0.00000000      -0.02162959
In      -0.13054693       3.02038079       7.19499119        1      -0.38664016       0.00000000       0.02162959
In       3.14671280       1.00696998      15.48942503        2       0.38664016      -0.00000000       0.02162959
In       6.16281233       1.00696998       1.10025840        3       0.38664016       0.00000000      -0.02162959
In       3.14671280       1.00696998       7.19499119        4       0.38664016       0.00000000       0.02162959
In       6.16281233       1.00696998       9.39469223        5       0.38664016      -0.00000000      -0.02162959
In       2.88555260       3.02038079       1.10025840        6      -0.38664016      -0.00000000      -0.02162959
In      -0.13054693       3.02038079      15.48942503        7      -0.38664016       0.00000000       0.02162959
In       3.14671280       3.02038079      13.54190915        8       0.38664016      -0.00000000      -0.02162959
In       6.16281233       3.02038079       3.04777427        9       0.38664016       0.00000000       0.02162959
In       2.88555260       1.00696998      11.34220811       10      -0.38664016      -0.00000000       0.02162959
In      -0.13054693       1.00696998       5.24747532       11      -0.38664016      -0.00000000      -0.02162959
In       2.88555260       1.00696998       3.04777427       12      -0.38664016       0.00000000       0.02162959
In      -0.13054693       1.00696998      13.54190915       13      -0.38664016       0.00000000      -0.02162959
In       3.14671280       3.02038079       5.24747532       14       0.38664016       0.00000000      -0.02162959
In       6.16281233       3.02038079      11.34220811       15       0.38664016       0.00000000       0.02162959
O        5.24875783       3.02038079      13.22399639       16      -0.02738872      -0.00000000       0.12623439
O        2.23265830       3.02038079       3.36568704       17      -0.02738872      -0.00000000      -0.12623439
O        0.78350757       1.00696998      11.66012087       18       0.02738872       0.00000000      -0.12623439
O        3.79960710       1.00696998       4.92956255       19       0.02738872      -0.00000000       0.12623439
O        0.78350757       1.00696998       3.36568704       20       0.02738872       0.00000000      -0.12623439
O        3.79960710       1.00696998      13.22399639       21       0.02738872       0.00000000       0.12623439
O        5.24875783       3.02038079       4.92956255       22      -0.02738872      -0.00000000       0.12623439
O        2.23265830       3.02038079      11.66012087       23      -0.02738872      -0.00000000      -0.12623439
O        4.52418246       2.01367538      10.36845017       24      -0.00000000      -0.00000000       0.00000000
O        1.50808294       4.02708619       6.22123325       25       0.00000000       0.00000000       0.00000000
O        1.50808294       0.00026458      14.51566709       26       0.00000000      -0.00000000       0.00000000
O        4.52418246       2.01367538       2.07401634       27      -0.00000000       0.00000000       0.00000000
O        1.50808294       2.01367538       6.22123325       28       0.00000000       0.00000000       0.00000000
O        4.52418246       0.00026458      10.36845017       29      -0.00000000      -0.00000000       0.00000000
O        4.52418246       4.02708619       2.07401634       30      -0.00000000      -0.00000000      -0.00000000
O        1.50808294       2.01367538      14.51566709       31       0.00000000       0.00000000       0.00000000
O        3.79960710       3.02038079      15.80733779       32       0.02738872       0.00000000      -0.12623439
O        0.78350757       3.02038079       0.78234563       33       0.02738872      -0.00000000       0.12623439
O        2.23265830       1.00696998       9.07677947       34      -0.02738872      -0.00000000       0.12623439
O        5.24875783       1.00696998       7.51290396       35      -0.02738872      -0.00000000      -0.12623439
O        2.23265830       1.00696998       0.78234563       36      -0.02738872      -0.00000000       0.12623439
O        5.24875783       1.00696998      15.80733779       37      -0.02738872      -0.00000000      -0.12623439
O        3.79960710       3.02038079       7.51290396       38       0.02738872       0.00000000      -0.12623439
O        0.78350757       3.02038079       9.07677947       39       0.02738872      -0.00000000       0.12623439
40
Lattice="6.047050968285304 -7.430296850282261e-18 3.2596484952476124e-16 -2.93949666796764e-16 4.022827525636536 6.073214667603884e-16 2.5342416843103427e-16 -1.2738358678349542e-15 16.56455433041188" Properties=species:S:1:pos:R:3:spacegroup_kinds:I:1:forces:R:3 spacegroup="P 1" unit_cell=conventional occupancy="_JSON {\"0\": {\"In\": 1}, \"1\": {\"In\": 1}, \"2\": {\"In\": 1}, \"3\": {\"In\": 1}, \"4\": {\"In\": 1}, \"5\": {\"In\": 1}, \"6\": {\"In\": 1}, \"7\": {\"In\": 1}, \"8\": {\"In\": 1}, \"9\": {\"In\": 1}, \"10\": {\"In\": 1}, \"11\": {\"In\": 1}, \"12\": {\"In\": 1}, \"13\": {\"In\": 1}, \"14\": {\"In\": 1}, \"15\": {\"In\": 1}, \"16\": {\"O\": 1}, \"17\": {\"O\": 1}, \"18\": {\"O\": 1}, \"19\": {\"O\": 1}, \"20\": {\"O\": 1}, \"21\": {\"O\": 1}, \"22\": {\"O\": 1}, \"23\": {\"O\": 1}, \"24\": {\"O\": 1}, \"25\": {\"O\": 1}, \"26\": {\"O\": 1}, \"27\": {\"O\": 1}, \"28\": {\"O\": 1}, \"29\": {\"O\": 1}, \"30\": {\"O\": 1}, \"31\": {\"O\": 1}, \"32\": {\"O\": 1}, \"33\": {\"O\": 1}, \"34\": {\"O\": 1}, \"35\": {\"O\": 1}, \"36\": {\"O\": 1}, \"37\": {\"O\": 1}, \"38\": {\"O\": 1}, \"39\": {\"O\": 1}}" n_minim_iter=3 energy=-45144.93009798715 stress="-0.17592495373845513 2.488911947814248e-13 8.22293798920836e-14 2.488911947814248e-13 -0.18043550239394737 -2.77032039046871e-13 8.22293798920836e-14 -2.77032039046871e-13 -0.17880081210556165" free_energy=-45144.93009798715 pbc="T T T"
In       2.87943502       3.01738496       9.37948392        0      -0.01888820       0.00000000       0.04353547
In      -0.14409046       3.01738496       7.18588497        1      -0.01888820      -0.00000000      -0.04353547
In       3.16768246       1.00597120      15.46816213        2       0.01888820       0.00000000      -0.04353547
In       6.19120794       1.00597120       1.09720675        3       0.01888820      -0.00000000       0.04353547
In       3.16768246       1.00597120       7.18588497        4       0.01888820      -0.00000000      -0.04353547
In       6.19120794       1.00597120       9.37948392        5       0.01888820      -0.00000000       0.04353547
In       2.87943502       3.01738496       1.09720675        6      -0.01888820       0.00000000       0.04353547
In      -0.14409046       3.01738496      15.46816213        7      -0.01888820      -0.00000000      -0.04353547
In       3.16768246       3.01738496      13.52062250        8       0.01888820      -0.00000000       0.04353547
In       6.19120794       3.01738496       3.04474639        9       0.01888820      -0.00000000      -0.04353547
In       2.87943502       1.00597120      11.32702355       10      -0.01888820      -0.00000000      -0.04353547
In      -0.14409046       1.00597120       5.23834534       11      -0.01888820       0.00000000       0.04353547
In       2.87943502       1.00597120       3.04474639       12      -0.01888820       0.00000000      -0.04353547
In      -0.14409046       1.00597120      13.52062250       13      -0.01888820       0.00000000       0.04353547
In       3.16768246       3.01738496       5.23834534       14       0.01888820      -0.00000000       0.04353547
In       6.19120794       3.01738496      11.32702355       15       0.01888820      -0.00000000      -0.04353547
O        5.26110442       3.01738496      13.20747499       16       0.08543176       0.00000000       0.00526466
O        2.23757893       3.01738496       3.35789390       17       0.08543176      -0.00000000      -0.00526466
O        0.78601307       1.00597120      11.64017106       18      -0.08543176       0.00000000      -0.00526466
O        3.80953855       1.00597120       4.92519783       19      -0.08543176      -0.00000000       0.00526466
O        0.78601307       1.00597120       3.35789390       20      -0.08543176       0.00000000      -0.00526466
O        3.80953855       1.00597120      13.20747499       21      -0.08543176       0.00000000       0.00526466
O        5.26110442       3.01738496       4.92519783       22       0.08543176       0.00000000       0.00526466
O        2.23757893       3.01738496      11.64017106       23       0.08543176      -0.00000000      -0.00526466
O        4.53532148       2.01167808      10.35325374       24      -0.00000000       0.00000000      -0.00000000
O        1.51179600       4.02309184       6.21211515       25       0.00000000      -0.00000000       0.00000000
O        1.51179600       0.00026431      14.49439232       26       0.00000000      -0.00000000      -0.00000000
O        4.53532148       2.01167808       2.07097657       27       0.00000000       0.00000000       0.00000000
O        1.51179600       2.01167808       6.21211515       28      -0.00000000       0.00000000       0.00000000
O        4.53532148       0.00026431      10.35325374       29      -0.00000000      -0.00000000       0.00000000
O        4.53532148       4.02309184       2.07097657       30      -0.00000000      -0.00000000       0.00000000
O        1.51179600       2.01167808      14.49439232       31      -0.00000000      -0.00000000      -0.00000000
O        3.80953855       3.01738496      15.78130965       32      -0.08543176      -0.00000000      -0.00526466
O        0.78601307       3.01738496       0.78405924       33      -0.08543176      -0.00000000       0.00526466
O        2.23757893       1.00597120       9.06633641       34       0.08543176      -0.00000000       0.00526466
O        5.26110442       1.00597120       7.49903248       35       0.08543176      -0.00000000      -0.00526466
O        2.23757893       1.00597120       0.78405924       36       0.08543176       0.00000000       0.00526466
O        5.26110442       1.00597120      15.78130965       37       0.08543176      -0.00000000      -0.00526466
O        3.80953855       3.01738496       7.49903248       38      -0.08543176      -0.00000000      -0.00526466
O        0.78601307       3.01738496       9.06633641       39      -0.08543176       0.00000000       0.00526466
40
Lattice="6.042053622672793 -7.768100574072115e-18 3.2577993814790103e-16 -2.939244447319087e-16 4.025642062779161 6.090971389559739e-16 2.525803123227492e-16 -1.2673480427208268e-15 16.566664046105714" Properties=species:S:1:pos:R:3:spacegroup_kinds:I:1:forces:R:3 spacegroup="P 1" unit_cell=conventional occupancy="_JSON {\"0\": {\"In\": 1}, \"1\": {\"In\": 1}, \"2\": {\"In\": 1}, \"3\": {\"In\": 1}, \"4\": {\"In\": 1}, \"5\": {\"In\": 1}, \"6\": {\"In\": 1}, \"7\": {\"In\": 1}, \"8\": {\"In\": 1}, \"9\": {\"In\": 1}, \"10\": {\"In\": 1}, \"11\": {\"In\": 1}, \"12\": {\"In\": 1}, \"13\": {\"In\": 1}, \"14\": {\"In\": 1}, \"15\": {\"In\": 1}, \"16\": {\"O\": 1}, \"17\": {\"O\": 1}, \"18\": {\"O\": 1}, \"19\": {\"O\": 1}, \"20\": {\"O\": 1}, \"21\": {\"O\": 1}, \"22\": {\"O\": 1}, \"23\": {\"O\": 1}, \"24\": {\"O\": 1}, \"25\": {\"O\": 1}, \"26\": {\"O\": 1}, \"27\": {\"O\": 1}, \"28\": {\"O\": 1}, \"29\": {\"O\": 1}, \"30\": {\"O\": 1}, \"31\": {\"O\": 1}, \"32\": {\"O\": 1}, \"33\": {\"O\": 1}, \"34\": {\"O\": 1}, \"35\": {\"O\": 1}, \"36\": {\"O\": 1}, \"37\": {\"O\": 1}, \"38\": {\"O\": 1}, \"39\": {\"O\": 1}}" n_minim_iter=4 energy=-45144.93089655083 stress="-0.17840361753516096 -4.419509775761414e-13 3.3602487116389943e-13 -4.419509775761414e-13 -0.1779732478003284 1.4070054017992428e-13 3.3602487116389943e-13 1.4070054017992428e-13 -0.17808359218788522" free_energy=-45144.93089655083 pbc="T T T"
In       2.87679905       3.01949605       9.38069030        0      -0.00384056       0.00000000       0.05196334
In      -0.14422776       3.01949605       7.18678841        1      -0.00384056       0.00000000      -0.05196334
In       3.16532103       1.00667501      15.47012044        2       0.00384056       0.00000000      -0.05196334
In       6.18634784       1.00667501       1.09735827        3       0.00384056      -0.00000000       0.05196334
In       3.16532103       1.00667501       7.18678841        4       0.00384056      -0.00000000      -0.05196334
In       6.18634784       1.00667501       9.38069030        5       0.00384056      -0.00000000       0.05196334
In       2.87679905       3.01949605       1.09735827        6      -0.00384056      -0.00000000       0.05196334
In      -0.14422776       3.01949605      15.47012044        7      -0.00384056       0.00000000      -0.05196334
In       3.16532103       3.01949605      13.52235631        8       0.00384056       0.00000000       0.05196334
In       6.18634784       3.01949605       3.04512240        9       0.00384056       0.00000000      -0.05196334
In       2.87679905       1.00667501      11.32845442       10      -0.00384056       0.00000000      -0.05196334
In      -0.14422776       1.00667501       5.23902428       11      -0.00384056      -0.00000000       0.05196334
In       2.87679905       1.00667501       3.04512240       12      -0.00384056       0.00000000      -0.05196334
In      -0.14422776       1.00667501      13.52235631       13      -0.00384056       0.00000000       0.05196334
In       3.16532103       3.01949605       5.23902428       14       0.00384056       0.00000000       0.05196334
In       6.18634784       3.01949605      11.32845442       15       0.00384056       0.00000000      -0.05196334
O        5.25682135       3.01949605      13.20921384       16       0.10929415      -0.00000000      -0.00010850
O        2.23579454       3.01949605       3.35826487       17       0.10929415      -0.00000000       0.00010850
O        0.78529873       1.00667501      11.64159689       18      -0.10929415      -0.00000000       0.00010850
O        3.80632554       1.00667501       4.92588181       19      -0.10929415       0.00000000      -0.00010850
O        0.78529873       1.00667501       3.35826487       20      -0.10929415       0.00000000       0.00010850
O        3.80632554       1.00667501      13.20921384       21      -0.10929415      -0.00000000      -0.00010850
O        5.25682135       3.01949605       4.92588181       22       0.10929415      -0.00000000      -0.00010850
O        2.23579454       3.01949605      11.64159689       23       0.10929415      -0.00000000       0.00010850
O        4.53157345       2.01308553      10.35457236       24       0.00000000       0.00000000       0.00000000
O        1.51054663       4.02590656       6.21290635       25      -0.00000000       0.00000000      -0.00000000
O        1.51054663       0.00026450      14.49623837       26       0.00000000       0.00000000      -0.00000000
O        4.53157345       2.01308553       2.07124034       27       0.00000000      -0.00000000       0.00000000
O        1.51054663       2.01308553       6.21290635       28       0.00000000       0.00000000      -0.00000000
O        4.53157345       0.00026450      10.35457236       29       0.00000000      -0.00000000      -0.00000000
O        4.53157345       4.02590656       2.07124034       30       0.00000000      -0.00000000      -0.00000000
O        1.51054663       2.01308553      14.49623837       31       0.00000000       0.00000000      -0.00000000
O        3.80632554       3.01949605      15.78326291       32      -0.10929415       0.00000000       0.00010850
O        0.78529873       3.01949605       0.78421580       33      -0.10929415       0.00000000      -0.00010850
O        2.23579454       1.00667501       9.06754783       34       0.10929415      -0.00000000      -0.00010850
O        5.25682135       1.00667501       7.49993088       35       0.10929415      -0.00000000       0.00010850
O        2.23579454       1.00667501       0.78421580       36       0.10929415      -0.00000000      -0.00010850
O        5.25682135       1.00667501      15.78326291       37       0.10929415      -0.00000000       0.00010850
O        3.80632554       3.01949605       7.49993088       38      -0.10929415       0.00000000       0.00010850
O        0.78529873       3.01949605       9.06754783       39      -0.10929415       0.00000000      -0.00010850
40
Lattice="6.034036852939954 -8.597634712547156e-18 3.2546664050950337e-16 -2.9408018022975116e-16 4.030391715648381 6.332955330715972e-16 2.5123396575460553e-16 -1.1689319751833803e-15 16.56912529550611" Properties=species:S:1:pos:R:3:spacegroup_kinds:I:1:forces:R:3 spacegroup="P 1" unit_cell=conventional occupancy="_JSON {\"0\": {\"In\": 1}, \"1\": {\"In\": 1}, \"2\": {\"In\": 1}, \"3\": {\"In\": 1}, \"4\": {\"In\": 1}, \"5\": {\"In\": 1}, \"6\": {\"In\": 1}, \"7\": {\"In\": 1}, \"8\": {\"In\": 1}, \"9\": {\"In\": 1}, \"10\": {\"In\": 1}, \"11\": {\"In\": 1}, \"12\": {\"In\": 1}, \"13\": {\"In\": 1}, \"14\": {\"In\": 1}, \"15\": {\"In\": 1}, \"16\": {\"O\": 1}, \"17\": {\"O\": 1}, \"18\": {\"O\": 1}, \"19\": {\"O\": 1}, \"20\": {\"O\": 1}, \"21\": {\"O\": 1}, \"22\": {\"O\": 1}, \"23\": {\"O\": 1}, \"24\": {\"O\": 1}, \"25\": {\"O\": 1}, \"26\": {\"O\": 1}, \"27\": {\"O\": 1}, \"28\": {\"O\": 1}, \"29\": {\"O\": 1}, \"30\": {\"O\": 1}, \"31\": {\"O\": 1}, \"32\": {\"O\": 1}, \"33\": {\"O\": 1}, \"34\": {\"O\": 1}, \"35\": {\"O\": 1}, \"36\": {\"O\": 1}, \"37\": {\"O\": 1}, \"38\": {\"O\": 1}, \"39\": {\"O\": 1}}" n_minim_iter=5 energy=-45144.938270844395 stress="-0.17692476704762042 -2.157044559166039e-13 3.751941040772135e-14 -2.157044559166039e-13 -0.176526239756178 -9.507226503814068e-15 3.751941040772135e-14 -9.507226503814068e-15 -0.17713198507181996" free_energy=-45144.938270844395 pbc="T T T"
In       2.87078671       3.02305860       9.38525173        0      -0.01976005      -0.00000000      -0.03618290
In      -0.14623172       3.02305860       7.18468835        1      -0.01976005       0.00000000       0.03618290
In       3.16331652       1.00786274      15.46925100        2       0.01976005       0.00000000       0.03618290
In       6.18033494       1.00786274       1.10068908        3       0.01976005       0.00000000      -0.03618290
In       3.16331652       1.00786274       7.18468835        4       0.01976005      -0.00000000       0.03618290
In       6.18033494       1.00786274       9.38525173        5       0.01976005      -0.00000000      -0.03618290
In       2.87078671       3.02305860       1.10068908        6      -0.01976005      -0.00000000      -0.03618290
In      -0.14623172       3.02305860      15.46925100        7      -0.01976005      -0.00000000       0.03618290
In       3.16331652       3.02305860      13.52753305        8       0.01976005       0.00000000      -0.03618290
In       6.18033494       3.02305860       3.04240702        9       0.01976005      -0.00000000       0.03618290
In       2.87078671       1.00786274      11.32696967       10      -0.01976005       0.00000000       0.03618290
In      -0.14623172       1.00786274       5.24297041       11      -0.01976005      -0.00000000      -0.03618290
In       2.87078671       1.00786274       3.04240702       12      -0.01976005       0.00000000       0.03618290
In      -0.14623172       1.00786274      13.52753305       13      -0.01976005      -0.00000000      -0.03618290
In       3.16331652       3.02305860       5.24297041       14       0.01976005       0.00000000      -0.03618290
In       6.18033494       3.02305860      11.32696967       15       0.01976005       0.00000000       0.03618290
O        5.25686674       3.02305860      13.21162618       16       0.01145195      -0.00000000      -0.02147092
O        2.23984831       3.02305860       3.35831390       17       0.01145195      -0.00000000       0.02147092
O        0.77723649       1.00786274      11.64287655       18      -0.01145195       0.00000000       0.02147092
O        3.79425491       1.00786274       4.92706353       19      -0.01145195       0.00000000      -0.02147092
O        0.77723649       1.00786274       3.35831390       20      -0.01145195       0.00000000       0.02147092
O        3.79425491       1.00786274      13.21162618       21      -0.01145195      -0.00000000      -0.02147092
O        5.25686674       3.02305860       4.92706353       22       0.01145195       0.00000000      -0.02147092
O        2.23984831       3.02305860      11.64287655       23       0.01145195       0.00000000       0.02147092
O        4.52556082       2.01546067      10.35611070       24      -0.00000000       0.00000000      -0.00000000
O        1.50854240       4.03065653       6.21382938       25       0.00000000      -0.00000000       0.00000000
O        1.50854240       0.00026481      14.49839203       26       0.00000000      -0.00000000       0.00000000
O        4.52556082       2.01546067       2.07154805       27      -0.00000000       0.00000000      -0.00000000
O        1.50854240       2.01546067       6.21382938       28      -0.00000000       0.00000000      -0.00000000
O        4.52556082       0.00026481      10.35611070       29      -0.00000000      -0.00000000       0.00000000
O        4.52556082       4.03065653       2.07154805       30      -0.00000000      -0.00000000       0.00000000
O        1.50854240       2.01546067      14.49839203       31      -0.00000000       0.00000000       0.00000000
O        3.79425491       3.02305860      15.78515787       32      -0.01145195      -0.00000000       0.02147092
O        0.77723649       3.02305860       0.78478220       33      -0.01145195       0.00000000      -0.02147092
O        2.23984831       1.00786274       9.06934485       34       0.01145195      -0.00000000      -0.02147092
O        5.25686674       1.00786274       7.50059523       35       0.01145195       0.00000000       0.02147092
O        2.23984831       1.00786274       0.78478220       36       0.01145195      -0.00000000      -0.02147092
O        5.25686674       1.00786274      15.78515787       37       0.01145195       0.00000000       0.02147092
O        3.79425491       3.02305860       7.50059523       38      -0.01145195      -0.00000000       0.02147092
O        0.77723649       3.02305860       9.06934485       39      -0.01145195       0.00000000      -0.02147092
40