40
Lattice="6.01495476179478 1.3825491381286277e-42 0.0 -9.751266007464256e-45 4.60468474189769 0.0 0.0 0.0 16.42588890798056" Properties=species:S:1:pos:R:3:spacegroup_kinds:I:1:forces:R:3 spacegroup="P 1" unit_cell=conventional occupancy="_JSON {\"0\": {\"In\": 1}, \"1\": {\"In\": 1}, \"2\": {\"In\": 1}, \"3\": {\"In\": 1}, \"4\": {\"In\": 1}, \"5\": {\"In\": 1}, \"6\": {\"In\": 1}, \"7\": {\"In\": 1}, \"8\": {\"In\": 1}, \"9\": {\"In\": 1}, \"10\": {\"In\": 1}, \"11\": {\"In\": 1}, \"12\": {\"In\": 1}, \"13\": {\"In\": 1}, \"14\": {\"In\": 1}, \"15\": {\"In\": 1}, \"16\": {\"O\": 1}, \"17\": {\"O\": 1}, \"18\": {\"O\": 1}, \"19\": {\"O\": 1}, \"20\": {\"O\": 1}, \"21\": {\"O\": 1}, \"22\": {\"O\": 1}, \"23\": {\"O\": 1}, \"24\": {\"O\": 1}, \"25\": {\"O\": 1}, \"26\": {\"O\": 1}, \"27\": {\"O\": 1}, \"28\": {\"O\": 1}, \"29\": {\"O\": 1}, \"30\": {\"O\": 1}, \"31\": {\"O\": 1}, \"32\": {\"O\": 1}, \"33\": {\"O\": 1}, \"34\": {\"O\": 1}, \"35\": {\"O\": 1}, \"36\": {\"O\": 1}, \"37\": {\"O\": 1}, \"38\": {\"O\": 1}, \"39\": {\"O\": 1}}" n_minim_iter=43 energy=-45148.96217590409 stress="-0.08521951092696266 7.64879652972459e-14 -9.25878788177386e-14 7.64879652972459e-14 -0.08523480629938311 -4.071472213303665e-13 -9.25878788177386e-14 -4.071472213303665e-13 -0.08526687997474329" free_energy=-45148.96217590409 pbc="T T T"
In       2.93387664       3.47586624       9.31641794        0      -0.00054686       0.00149935       0.00070399
In      -0.07360075       3.43116087       7.10947096        1      -0.00054686      -0.00149935      -0.00070399
In       3.08107813       1.17352387      15.32241542        2       0.00054686       0.00149935      -0.00070399
In       6.08855551       1.12881850       1.10347349        3       0.00054686      -0.00149935       0.00070399
In       3.08107813       1.12881850       7.10947096        4       0.00054686      -0.00149935      -0.00070399
In       6.08855551       1.17352387       9.31641794        5       0.00054686       0.00149935       0.00070399
In       2.93387664       3.43116087       1.10347349        6      -0.00054686      -0.00149935       0.00070399
In      -0.07360075       3.47586624      15.32241542        7      -0.00054686       0.00149935      -0.00070399
In       3.09061854       3.48688471      13.41696527        8      -0.00383734       0.00039663      -0.00166372
In       6.09809593       3.42014241       3.00892364        9      -0.00383734      -0.00039663       0.00166372
In       2.92433622       1.18454234      11.22186809       10       0.00383734       0.00039663       0.00166372
In      -0.08314116       1.11780003       5.20402082       11       0.00383734      -0.00039663      -0.00166372
In       2.92433622       1.11780003       3.00892364       12       0.00383734      -0.00039663       0.00166372
In      -0.08314116       1.18454234      13.41696527       13       0.00383734       0.00039663      -0.00166372
In       3.09061854       3.42014241       5.20402082       14      -0.00383734      -0.00039663      -0.00166372
In       6.09809593       3.48688471      11.22186809       15      -0.00383734       0.00039663       0.00166372
O        5.23444088       3.62257632      13.15450303       16       0.00346473       0.00068430       0.00016445
O        2.22696350       3.28445079       3.27138588       17       0.00346473      -0.00068430      -0.00016445
O        0.78051388       1.32023395      11.48433034       18      -0.00346473       0.00068430      -0.00016445
O        3.78799126       0.98210842       4.94155857       19      -0.00346473      -0.00068430       0.00016445
O        0.78051388       0.98210842       3.27138588       20      -0.00346473      -0.00068430      -0.00016445
O        3.78799126       1.32023395      13.15450303       21      -0.00346473       0.00068430       0.00016445
O        5.23444088       3.28445079       4.94155857       22       0.00346473      -0.00068430       0.00016445
O        2.22696350       3.62257632      11.48433034       23       0.00346473       0.00068430      -0.00016445
O        4.49105361       2.33669501      10.27486462       24      -0.00411042      -0.00311801      -0.00494778
O        1.48357623       4.57033211       6.15102429       25      -0.00411042       0.00311801       0.00494778
O        1.52390115       0.03435264      14.36396874       26       0.00411042      -0.00311801       0.00494778
O        4.53137853       2.26798973       2.06192017       27       0.00411042       0.00311801      -0.00494778
O        1.52390115       2.26798973       6.15102429       28       0.00411042       0.00311801       0.00494778
O        4.53137853       0.03435264      10.27486462       29       0.00411042      -0.00311801      -0.00494778
O        4.49105361       4.57033211       2.06192017       30      -0.00411042       0.00311801      -0.00494778
O        1.48357623       2.33669501      14.36396874       31      -0.00411042      -0.00311801       0.00494778
O        3.79231156       3.40081443      15.59335923       32       0.00043820       0.00068338      -0.00335865
O        0.78483418       3.50621268       0.83252967       33       0.00043820      -0.00068338       0.00335865
O        2.22264320       1.09847206       9.04547413       34      -0.00043820       0.00068338       0.00335865
O        5.23012058       1.20387031       7.38041478       35      -0.00043820      -0.00068338      -0.00335865
O        2.22264320       1.20387031       0.83252967       36      -0.00043820      -0.00068338       0.00335865
O        5.23012058       1.09847206      15.59335923       37      -0.00043820       0.00068338      -0.00335865
O        3.79231156       3.50621268       7.38041478       38       0.00043820      -0.00068338      -0.00335865
O        0.78483418       3.40081443       9.04547413       39       0.00043820       0.00068338       0.00335865
