40
Lattice="5.440934705755305 8.105045201447855e-43 0.0 -2.703261354648583e-43 5.657897683235537 0.0 0.0 0.0 15.623064453862161" Properties=species:S:1:pos:R:3:spacegroup_kinds:I:1:forces:R:3 spacegroup="P 1" unit_cell=conventional occupancy="_JSON {\"0\": {\"In\": 1}, \"1\": {\"In\": 1}, \"2\": {\"In\": 1}, \"3\": {\"In\": 1}, \"4\": {\"In\": 1}, \"5\": {\"In\": 1}, \"6\": {\"In\": 1}, \"7\": {\"In\": 1}, \"8\": {\"In\": 1}, \"9\": {\"In\": 1}, \"10\": {\"In\": 1}, \"11\": {\"In\": 1}, \"12\": {\"In\": 1}, \"13\": {\"In\": 1}, \"14\": {\"In\": 1}, \"15\": {\"In\": 1}, \"16\": {\"O\": 1}, \"17\": {\"O\": 1}, \"18\": {\"O\": 1}, \"19\": {\"O\": 1}, \"20\": {\"O\": 1}, \"21\": {\"O\": 1}, \"22\": {\"O\": 1}, \"23\": {\"O\": 1}, \"24\": {\"O\": 1}, \"25\": {\"O\": 1}, \"26\": {\"O\": 1}, \"27\": {\"O\": 1}, \"28\": {\"O\": 1}, \"29\": {\"O\": 1}, \"30\": {\"O\": 1}, \"31\": {\"O\": 1}, \"32\": {\"O\": 1}, \"33\": {\"O\": 1}, \"34\": {\"O\": 1}, \"35\": {\"O\": 1}, \"36\": {\"O\": 1}, \"37\": {\"O\": 1}, \"38\": {\"O\": 1}, \"39\": {\"O\": 1}}" n_minim_iter=8 energy=-45149.010032836515 stress="-0.07220684161106429 3.18903103810193e-13 1.9805750353195413e-14 3.18903103810193e-13 -0.07222803223789512 -2.6621836856892304e-13 1.9805750353195413e-14 -2.6621836856892304e-13 -0.07189475148172855" free_energy=-45149.010032836515 pbc="T T T"
In       2.71994171       4.52895810       8.93229474        0       0.00447475       0.00415991       0.00338051
In      -0.00052565       3.95788842       6.69076972        1       0.00447475      -0.00415991      -0.00338051
In       2.72099300       1.70000926      14.50230195        2      -0.00447475       0.00415991      -0.00338051
In       5.44146035       1.12893958       1.12076251        3      -0.00447475      -0.00415991       0.00338051
In       2.72099300       1.12893958       6.69076972        4      -0.00447475      -0.00415991      -0.00338051
In       5.44146035       1.70000926       8.93229474        5      -0.00447475       0.00415991       0.00338051
In       2.71994171       3.95788842       1.12076251        6       0.00447475      -0.00415991       0.00338051
In      -0.00052565       4.52895810      14.50230195        7       0.00447475       0.00415991      -0.00338051
In       2.72634609       4.22991563      12.78107530        8      -0.00392371       0.00090469      -0.00454136
In       5.44681344       4.25693090       2.84198916        9      -0.00392371      -0.00090469       0.00454136
In       2.71458862       1.40096678      10.65352138       10       0.00392371       0.00090469       0.00454136
In      -0.00587873       1.42798206       4.96954307       11       0.00392371      -0.00090469      -0.00454136
In       2.71458862       1.42798206       2.84198916       12       0.00392371      -0.00090469       0.00454136
In      -0.00587873       1.40096678      12.78107530       13       0.00392371       0.00090469      -0.00454136
In       2.72634609       4.25693090       4.96954307       14      -0.00392371      -0.00090469      -0.00454136
In       5.44681344       4.22991563      10.65352138       15      -0.00392371       0.00090469       0.00454136
O        4.68298201       5.01442491      12.46124198       16       0.00180404      -0.00333227       0.00379586
O        1.96251466       3.47242162       3.16182247       17       0.00180404       0.00333227      -0.00379586
O        0.75795270       2.18547606      10.97335470       18      -0.00180404      -0.00333227      -0.00379586
O        3.47842005       0.64347278       4.64970976       19      -0.00180404       0.00333227       0.00379586
O        0.75795270       0.64347278       3.16182247       20      -0.00180404       0.00333227      -0.00379586
O        3.47842005       2.18547606      12.46124198       21      -0.00180404      -0.00333227       0.00379586
O        4.68298201       3.47242162       4.64970976       22       0.00180404       0.00333227       0.00379586
O        1.96251466       5.01442491      10.97335470       23       0.00180404      -0.00333227      -0.00379586
O        3.85267271       2.98410776       9.78187073       24       0.00330303       0.00017830       0.00525295
O        1.13220536       5.50273877       5.84119372       25       0.00330303      -0.00017830      -0.00525295
O        1.58826199       0.15515891      13.65272595       26      -0.00330303       0.00017830      -0.00525295
O        4.30872935       2.67378993       1.97033850       27      -0.00330303      -0.00017830       0.00525295
O        1.58826199       2.67378993       5.84119372       28      -0.00330303      -0.00017830      -0.00525295
O        4.30872935       0.15515891       9.78187073       29      -0.00330303       0.00017830       0.00525295
O        3.85267271       5.50273877       1.97033850       30       0.00330303      -0.00017830       0.00525295
O        1.13220536       2.98410776      13.65272595       31       0.00330303       0.00017830      -0.00525295
O        3.50119992       3.74697378      14.79461237       32      -0.00124509       0.00251469       0.00591869
O        0.78073256       4.73987274       0.82845209       33      -0.00124509      -0.00251469      -0.00591869
O        1.93973479       0.91802494       8.63998432       34       0.00124509       0.00251469      -0.00591869
O        4.66020214       1.91092390       6.98308014       35       0.00124509      -0.00251469       0.00591869
O        1.93973479       1.91092390       0.82845209       36       0.00124509      -0.00251469      -0.00591869
O        4.66020214       0.91802494      14.79461237       37       0.00124509       0.00251469       0.00591869
O        3.50119992       4.73987274       6.98308014       38      -0.00124509      -0.00251469       0.00591869
O        0.78073256       3.74697378       8.63998432       39      -0.00124509       0.00251469      -0.00591869
