40
Lattice="5.899333406793533 -2.1583808657901817e-42 0.0 2.281384275937988e-42 6.235528995874068 0.0 0.0 0.0 17.314618999070177" Properties=species:S:1:pos:R:3:spacegroup_kinds:I:1:forces:R:3 spacegroup="P 1" unit_cell=conventional occupancy="_JSON {\"0\": {\"In\": 1}, \"1\": {\"In\": 1}, \"2\": {\"In\": 1}, \"3\": {\"In\": 1}, \"4\": {\"In\": 1}, \"5\": {\"In\": 1}, \"6\": {\"In\": 1}, \"7\": {\"In\": 1}, \"8\": {\"In\": 1}, \"9\": {\"In\": 1}, \"10\": {\"In\": 1}, \"11\": {\"In\": 1}, \"12\": {\"In\": 1}, \"13\": {\"In\": 1}, \"14\": {\"In\": 1}, \"15\": {\"In\": 1}, \"16\": {\"O\": 1}, \"17\": {\"O\": 1}, \"18\": {\"O\": 1}, \"19\": {\"O\": 1}, \"20\": {\"O\": 1}, \"21\": {\"O\": 1}, \"22\": {\"O\": 1}, \"23\": {\"O\": 1}, \"24\": {\"O\": 1}, \"25\": {\"O\": 1}, \"26\": {\"O\": 1}, \"27\": {\"O\": 1}, \"28\": {\"O\": 1}, \"29\": {\"O\": 1}, \"30\": {\"O\": 1}, \"31\": {\"O\": 1}, \"32\": {\"O\": 1}, \"33\": {\"O\": 1}, \"34\": {\"O\": 1}, \"35\": {\"O\": 1}, \"36\": {\"O\": 1}, \"37\": {\"O\": 1}, \"38\": {\"O\": 1}, \"39\": {\"O\": 1}}" n_minim_iter=1 energy=-45145.37540780006 stress="0.07842747733641536 -2.9835196718822894e-13 -2.549122978319233e-13 -2.9835196718822894e-13 0.07276514732799592 -5.040856298362835e-14 -2.549122978319233e-13 -5.040856298362835e-14 0.07538864287530278" free_energy=-45145.37540780006 pbc="T T T"
In       2.67633348       5.21205280      10.00864108        0       0.03296446       0.07609227       0.03527546
In      -0.27333322       4.14124070       7.30597792        1       0.03296446      -0.07609227      -0.03527546
In       3.22299993       2.09428830      15.96328742        2      -0.03296446       0.07609227      -0.03527546
In       6.17266663       1.02347620       1.35133158        3      -0.03296446      -0.07609227       0.03527546
In       3.22299993       1.02347620       7.30597792        4      -0.03296446      -0.07609227      -0.03527546
In       6.17266663       2.09428830      10.00864108        5      -0.03296446       0.07609227       0.03527546
In       2.67633348       4.14124070       1.35133158        6       0.03296446      -0.07609227       0.03527546
In      -0.27333322       5.21205280      15.96328742        7       0.03296446       0.07609227      -0.03527546
In       2.68192966       4.92325800      14.06502963        8      -0.00328946       0.03900796       0.01845024
In       5.63159637       4.43003549       3.24958937        9      -0.00328946      -0.03900796      -0.01845024
In       3.21740374       1.80549350      11.90689887       10       0.00328946       0.03900796      -0.01845024
In       0.26773704       1.31227099       5.40772013       11       0.00328946      -0.03900796       0.01845024
In       3.21740374       1.31227099       3.24958937       12       0.00328946      -0.03900796      -0.01845024
In       0.26773704       1.80549350      14.06502963       13       0.00328946       0.03900796       0.01845024
In       2.68192966       4.43003549       5.40772013       14      -0.00328946      -0.03900796       0.01845024
In       5.63159637       4.92325800      11.90689887       15      -0.00328946       0.03900796      -0.01845024
O        4.84817280       5.69363040      13.83702072       16       0.00275717      -0.09675156       0.02465678
O        1.89850610       3.65966309       3.47759828       17       0.00275717       0.09675156      -0.02465678
O        1.05116060       2.57586590      12.13490777       18      -0.00275717      -0.09675156      -0.02465678
O        4.00082731       0.54189860       5.17971122       19      -0.00275717       0.09675156       0.02465678
O        1.05116060       0.54189860       3.47759828       20      -0.00275717       0.09675156      -0.02465678
O        4.00082731       2.57586590      13.83702072       21      -0.00275717      -0.09675156       0.02465678
O        4.84817280       3.65966309       5.17971122       22       0.00275717       0.09675156       0.02465678
O        1.89850610       5.69363040      12.13490777       23       0.00275717      -0.09675156      -0.02465678
O        4.10686186       3.62169888      10.92698075       24       0.03171897       0.08517202       0.02610859
O        1.15719516       5.73159462       6.38763824       25       0.03171897      -0.08517202      -0.02610859
O        1.79247155       0.50393438      15.04494774       26      -0.03171897       0.08517202      -0.02610859
O        4.74213825       2.61383012       2.26967126       27      -0.03171897      -0.08517202       0.02610859
O        1.79247155       2.61383012       6.38763824       28      -0.03171897      -0.08517202      -0.02610859
O        4.74213825       0.50393438      10.92698075       29      -0.03171897       0.08517202       0.02610859
O        4.10686186       5.73159462       2.26967126       30       0.03171897      -0.08517202       0.02610859
O        1.15719516       3.62169888      15.04494774       31       0.03171897       0.08517202      -0.02610859
O        3.71798745       4.18998152      16.54352654       32      -0.03585844      -0.06121497      -0.00469431
O        0.76832075       5.16331198       0.77109246       33      -0.03585844       0.06121497       0.00469431
O        2.18134596       1.07221702       9.42840196       34       0.03585844      -0.06121497       0.00469431
O        5.13101266       2.04554748       7.88621704       35       0.03585844       0.06121497      -0.00469431
O        2.18134596       2.04554748       0.77109246       36       0.03585844       0.06121497       0.00469431
O        5.13101266       1.07221702      16.54352654       37       0.03585844      -0.06121497      -0.00469431
O        3.71798745       5.16331198       7.88621704       38      -0.03585844       0.06121497      -0.00469431
O        0.76832075       4.18998152       9.42840196       39      -0.03585844      -0.06121497       0.00469431
40
Lattice="5.876386056854336 -2.16249304345496e-42 0.0 2.276026854262133e-42 6.258714337892653 0.0 0.0 0.0 17.317840469994092" Properties=species:S:1:pos:R:3:spacegroup_kinds:I:1:forces:R:3 spacegroup="P 1" unit_cell=conventional occupancy="_JSON {\"0\": {\"In\": 1}, \"1\": {\"In\": 1}, \"2\": {\"In\": 1}, \"3\": {\"In\": 1}, \"4\": {\"In\": 1}, \"5\": {\"In\": 1}, \"6\": {\"In\": 1}, \"7\": {\"In\": 1}, \"8\": {\"In\": 1}, \"9\": {\"In\": 1}, \"10\": {\"In\": 1}, \"11\": {\"In\": 1}, \"12\": {\"In\": 1}, \"13\": {\"In\": 1}, \"14\": {\"In\": 1}, \"15\": {\"In\": 1}, \"16\": {\"O\": 1}, \"17\": {\"O\": 1}, \"18\": {\"O\": 1}, \"19\": {\"O\": 1}, \"20\": {\"O\": 1}, \"21\": {\"O\": 1}, \"22\": {\"O\": 1}, \"23\": {\"O\": 1}, \"24\": {\"O\": 1}, \"25\": {\"O\": 1}, \"26\": {\"O\": 1}, \"27\": {\"O\": 1}, \"28\": {\"O\": 1}, \"29\": {\"O\": 1}, \"30\": {\"O\": 1}, \"31\": {\"O\": 1}, \"32\": {\"O\": 1}, \"33\": {\"O\": 1}, \"34\": {\"O\": 1}, \"35\": {\"O\": 1}, \"36\": {\"O\": 1}, \"37\": {\"O\": 1}, \"38\": {\"O\": 1}, \"39\": {\"O\": 1}}" n_minim_iter=2 energy=-45145.38237933221 stress="0.07379508183916841 -2.292746829344682e-13 -1.3321376585953587e-13 -2.292746829344682e-13 0.07414153853791679 -9.578062740627963e-14 -1.3321376585953587e-13 -9.578062740627963e-14 0.07510955656500788" free_energy=-45145.38237933221 pbc="T T T"
In       2.66599230       5.23159372      10.01057767        0       0.04755052       0.10817644       0.02274248
In      -0.27220073       4.15647779       7.30726280        1       0.04755052      -0.10817644      -0.02274248
In       3.21039376       2.10223655      15.96618304        2      -0.04755052       0.10817644      -0.02274248
In       6.14858679       1.02712062       1.35165743        3      -0.04755052      -0.10817644       0.02274248
In       3.21039376       1.02712062       7.30726280        4      -0.04755052      -0.10817644      -0.02274248
In       6.14858679       2.10223655      10.01057767        5      -0.04755052       0.10817644       0.02274248
In       2.66599230       4.15647779       1.35165743        6       0.04755052      -0.10817644       0.02274248
In      -0.27220073       5.23159372      15.96618304        7       0.04755052       0.10817644      -0.02274248
In       2.67149052       4.94164658      14.06768543        8      -0.01428041       0.04444519       0.03288499
In       5.60968355       4.44642493       3.25015504        9      -0.01428041      -0.04444519      -0.03288499
In       3.20489553       1.81228941      11.90907528       10       0.01428041       0.04444519      -0.03288499
In       0.26670250       1.31706776       5.40876519       11       0.01428041      -0.04444519       0.03288499
In       3.20489553       1.31706776       3.25015504       12       0.01428041      -0.04444519      -0.03288499
In       0.26670250       1.81228941      14.06768543       13       0.01428041       0.04444519       0.03288499
In       2.67149052       4.44642493       5.40876519       14      -0.01428041      -0.04444519       0.03288499
In       5.60968355       4.94164658      11.90907528       15      -0.01428041       0.04444519      -0.03288499
O        4.82932007       5.71459594      13.83964720       16       0.00102138      -0.11454672       0.02152962
O        1.89112705       3.67347557       3.47819327       17       0.00102138       0.11454672      -0.02152962
O        1.04706598       2.58523877      12.13711351       18      -0.00102138      -0.11454672      -0.02152962
O        3.98525901       0.54411840       5.18072696       19      -0.00102138       0.11454672       0.02152962
O        1.04706598       0.54411840       3.47819327       20      -0.00102138       0.11454672      -0.02152962
O        3.98525901       2.58523877      13.83964720       21      -0.00102138      -0.11454672       0.02152962
O        4.82932007       3.67347557       5.18072696       22       0.00102138       0.11454672       0.02152962
O        1.89112705       5.71459594      12.13711351       23       0.00102138      -0.11454672      -0.02152962
O        4.09095356       3.63534567      10.92906887       24       0.03034860       0.07986710       0.04668612
O        1.15276053       5.75272584       6.38877160       25       0.03034860      -0.07986710      -0.04668612
O        1.78543250       0.50598850      15.04769184       26      -0.03034860       0.07986710      -0.04668612
O        4.72362552       2.62336867       2.27014863       27      -0.03034860      -0.07986710       0.04668612
O        1.78543250       2.62336867       6.38877160       28      -0.03034860      -0.07986710      -0.04668612
O        4.72362552       0.50598850      10.92906887       29      -0.03034860       0.07986710       0.04668612
O        4.09095356       5.75272584       2.27014863       30       0.03034860      -0.07986710       0.04668612
O        1.15276053       3.63534567      15.04769184       31       0.03034860       0.07986710      -0.04668612
O        3.70344979       4.20543135      16.54659464       32      -0.03309950      -0.08053593       0.00685744
O        0.76525676       5.18264016       0.77124583       33      -0.03309950       0.08053593      -0.00685744
O        2.17293627       1.07607418       9.43016607       34       0.03309950      -0.08053593      -0.00685744
O        5.11112930       2.05328299       7.88767440       35       0.03309950       0.08053593       0.00685744
O        2.17293627       2.05328299       0.77124583       36       0.03309950       0.08053593      -0.00685744
O        5.11112930       1.07607418      16.54659464       37       0.03309950      -0.08053593       0.00685744
O        3.70344979       5.18264016       7.88767440       38      -0.03309950       0.08053593       0.00685744
O        0.76525676       4.20543135       9.43016607       39      -0.03309950      -0.08053593      -0.00685744
40
Lattice="5.879733510201211 -2.1649206907052895e-42 0.0 2.278795920809493e-42 6.26971886035504 0.0 0.0 0.0 17.27760234163838" Properties=species:S:1:pos:R:3:spacegroup_kinds:I:1:forces:R:3 spacegroup="P 1" unit_cell=conventional occupancy="_JSON {\"0\": {\"In\": 1}, \"1\": {\"In\": 1}, \"2\": {\"In\": 1}, \"3\": {\"In\": 1}, \"4\": {\"In\": 1}, \"5\": {\"In\": 1}, \"6\": {\"In\": 1}, \"7\": {\"In\": 1}, \"8\": {\"In\": 1}, \"9\": {\"In\": 1}, \"10\": {\"In\": 1}, \"11\": {\"In\": 1}, \"12\": {\"In\": 1}, \"13\": {\"In\": 1}, \"14\": {\"In\": 1}, \"15\": {\"In\": 1}, \"16\": {\"O\": 1}, \"17\": {\"O\": 1}, \"18\": {\"O\": 1}, \"19\": {\"O\": 1}, \"20\": {\"O\": 1}, \"21\": {\"O\": 1}, \"22\": {\"O\": 1}, \"23\": {\"O\": 1}, \"24\": {\"O\": 1}, \"25\": {\"O\": 1}, \"26\": {\"O\": 1}, \"27\": {\"O\": 1}, \"28\": {\"O\": 1}, \"29\": {\"O\": 1}, \"30\": {\"O\": 1}, \"31\": {\"O\": 1}, \"32\": {\"O\": 1}, \"33\": {\"O\": 1}, \"34\": {\"O\": 1}, \"35\": {\"O\": 1}, \"36\": {\"O\": 1}, \"37\": {\"O\": 1}, \"38\": {\"O\": 1}, \"39\": {\"O\": 1}}" n_minim_iter=3 energy=-45145.38421432258 stress="0.0742448167571262 -2.8796277264156353e-13 -1.7090871717492928e-14 -2.8796277264156353e-13 0.07468443756680743 4.78819991402078e-13 -1.7090871717492928e-14 4.78819991402078e-13 0.07310778045803687" free_energy=-45145.38421432258 pbc="T T T"
In       2.66776369       5.24137706       9.98745175        0       0.04454040       0.10219367       0.03214213
In      -0.27210307       4.16320123       7.29015059        1       0.04454040      -0.10219367      -0.03214213
In       3.21196982       2.10651763      15.92895176        2      -0.04454040       0.10219367      -0.03214213
In       6.15183658       1.02834180       1.34865058        3      -0.04454040      -0.10219367       0.03214213
In       3.21196982       1.02834180       7.29015059        4      -0.04454040      -0.10219367      -0.03214213
In       6.15183658       2.10651763       9.98745175        5      -0.04454040       0.10219367       0.03214213
In       2.66776369       4.16320123       1.34865058        6       0.04454040      -0.10219367       0.03214213
In      -0.27210307       5.24137706      15.92895176        7       0.04454040       0.10219367      -0.03214213
In       2.67294058       4.95058050      14.03517197        8      -0.00506805       0.05105652       0.04281355
In       5.61280733       4.45399779       3.24243037        9      -0.00506805      -0.05105652      -0.04281355
In       3.20679293       1.81572107      11.88123154       10       0.00506805       0.05105652      -0.04281355
In       0.26692618       1.31913836       5.39637080       11       0.00506805      -0.05105652       0.04281355
In       3.20679293       1.31913836       3.24243037       12       0.00506805      -0.05105652      -0.04281355
In       0.26692618       1.81572107      14.03517197       13       0.00506805       0.05105652       0.04281355
In       2.67294058       4.45399779       5.39637080       14      -0.00506805      -0.05105652       0.04281355
In       5.61280733       4.95058050      11.88123154       15      -0.00506805       0.05105652      -0.04281355
O        4.83207779       5.72401429      13.80761179       16      -0.00695964      -0.12086460       0.03247586
O        1.89221103       3.68056400       3.46999055       17      -0.00695964       0.12086460      -0.03247586
O        1.04765572       2.58915486      12.10879172       18       0.00695964      -0.12086460      -0.03247586
O        3.98752248       0.54570457       5.16881062       19       0.00695964       0.12086460       0.03247586
O        1.04765572       0.54570457       3.46999055       20       0.00695964       0.12086460      -0.03247586
O        3.98752248       2.58915486      13.80761179       21       0.00695964      -0.12086460       0.03247586
O        4.83207779       3.68056400       5.16881062       22      -0.00695964       0.12086460       0.03247586
O        1.89221103       5.72401429      12.10879172       23      -0.00695964      -0.12086460      -0.03247586
O        4.09345195       3.64218770      10.90392052       24       0.02488993       0.08649690       0.04252397
O        1.15358520       5.76239059       6.37368182       25       0.02488993      -0.08649690      -0.04252397
O        1.78628156       0.50732827      15.01248299       26      -0.02488993       0.08649690      -0.04252397
O        4.72614831       2.62753116       2.26511935       27      -0.02488993      -0.08649690       0.04252397
O        1.78628156       2.62753116       6.37368182       28      -0.02488993      -0.08649690      -0.04252397
O        4.72614831       0.50732827      10.90392052       29      -0.02488993       0.08649690       0.04252397
O        4.09345195       5.76239059       2.26511935       30       0.02488993      -0.08649690       0.04252397
O        1.15358520       3.64218770      15.01248299       31       0.02488993       0.08649690      -0.04252397
O        3.70537541       4.21238739      16.50817919       32      -0.02799396      -0.08597922       0.00504794
O        0.76550866       5.19219090       0.76942315       33      -0.02799396       0.08597922      -0.00504794
O        2.17435810       1.07752796       9.40822432       34       0.02799396      -0.08597922      -0.00504794
O        5.11422485       2.05733147       7.86937802       35       0.02799396       0.08597922       0.00504794
O        2.17435810       2.05733147       0.76942315       36       0.02799396       0.08597922      -0.00504794
O        5.11422485       1.07752796      16.50817919       37       0.02799396      -0.08597922       0.00504794
O        3.70537541       5.19219090       7.86937802       38      -0.02799396       0.08597922       0.00504794
O        0.76550866       4.21238739       9.40822432       39      -0.02799396      -0.08597922      -0.00504794
40
Lattice="5.868411686139527 -2.1621914819468234e-42 0.0 2.2849076124300054e-42 6.290267085433848 0.0 0.0 0.0 17.254386608051817" Properties=species:S:1:pos:R:3:spacegroup_kinds:I:1:forces:R:3 spacegroup="P 1" unit_cell=conventional occupancy="_JSON {\"0\": {\"In\": 1}, \"1\": {\"In\": 1}, \"2\": {\"In\": 1}, \"3\": {\"In\": 1}, \"4\": {\"In\": 1}, \"5\": {\"In\": 1}, \"6\": {\"In\": 1}, \"7\": {\"In\": 1}, \"8\": {\"In\": 1}, \"9\": {\"In\": 1}, \"10\": {\"In\": 1}, \"11\": {\"In\": 1}, \"12\": {\"In\": 1}, \"13\": {\"In\": 1}, \"14\": {\"In\": 1}, \"15\": {\"In\": 1}, \"16\": {\"O\": 1}, \"17\": {\"O\": 1}, \"18\": {\"O\": 1}, \"19\": {\"O\": 1}, \"20\": {\"O\": 1}, \"21\": {\"O\": 1}, \"22\": {\"O\": 1}, \"23\": {\"O\": 1}, \"24\": {\"O\": 1}, \"25\": {\"O\": 1}, \"26\": {\"O\": 1}, \"27\": {\"O\": 1}, \"28\": {\"O\": 1}, \"29\": {\"O\": 1}, \"30\": {\"O\": 1}, \"31\": {\"O\": 1}, \"32\": {\"O\": 1}, \"33\": {\"O\": 1}, \"34\": {\"O\": 1}, \"35\": {\"O\": 1}, \"36\": {\"O\": 1}, \"37\": {\"O\": 1}, \"38\": {\"O\": 1}, \"39\": {\"O\": 1}}" n_minim_iter=4 energy=-45145.417144510604 stress="0.06919405515485721 1.985576893401609e-14 1.1580512793187314e-14 1.985576893401609e-14 0.06824582470274122 3.0129954075596477e-13 1.1580512793187314e-14 3.0129954075596477e-13 0.06863403756174774" free_energy=-45145.417144510604 pbc="T T T"
In       2.67026608       5.27639031       9.97869348        0      -0.03891876      -0.10556237      -0.00534082
In      -0.26393976       4.15901032       7.27569313        1      -0.03891876       0.10556237       0.00534082
In       3.19814560       2.13125677      15.90288643        2       0.03891876      -0.10556237       0.00534082
In       6.13235145       1.01387678       1.35150018        3       0.03891876       0.10556237      -0.00534082
In       3.19814560       1.01387678       7.27569313        4       0.03891876       0.10556237       0.00534082
In       6.13235145       2.13125677       9.97869348        5       0.03891876      -0.10556237      -0.00534082
In       2.67026608       4.15901032       1.35150018        6      -0.03891876       0.10556237      -0.00534082
In      -0.26393976       5.27639031      15.90288643        7      -0.03891876      -0.10556237       0.00534082
In       2.66615572       4.97487190      14.02240154        8       0.05340685       0.10036862      -0.00647728
In       5.60036156       4.46052873       3.23198506        9       0.05340685      -0.10036862       0.00647728
In       3.20225597       1.82973836      11.85917837       10      -0.05340685       0.10036862       0.00647728
In       0.26805013       1.31539518       5.39520824       11      -0.05340685      -0.10036862      -0.00647728
In       3.20225597       1.31539518       3.23198506       12      -0.05340685      -0.10036862       0.00647728
In       0.26805013       1.82973836      14.02240154       13      -0.05340685       0.10036862      -0.00647728
In       2.66615572       4.46052873       5.39520824       14       0.05340685      -0.10036862      -0.00647728
In       5.60036156       4.97487190      11.85917837       15       0.05340685       0.10036862       0.00647728
O        4.82241382       5.72279143      13.79350739       16      -0.00782531      -0.10472288       0.02344432
O        1.88820798       3.71260920       3.46087922       17      -0.00782531       0.10472288      -0.02344432
O        1.04599786       2.57765788      12.08807253       18       0.00782531      -0.10472288      -0.02344432
O        3.98020371       0.56747566       5.16631408       19       0.00782531       0.10472288       0.02344432
O        1.04599786       0.56747566       3.46087922       20       0.00782531       0.10472288      -0.02344432
O        3.98020371       2.57765788      13.79350739       21       0.00782531      -0.10472288       0.02344432
O        4.82241382       3.71260920       5.16631408       22      -0.00782531       0.10472288       0.02344432
O        1.88820798       5.72279143      12.08807253       23      -0.00782531      -0.10472288      -0.02344432
O        4.09033058       3.66843403      10.89664282       24      -0.02321103       0.04279355       0.03014539
O        1.15612473       5.76696659       6.35774378       25      -0.02321103      -0.04279355      -0.03014539
O        1.77808111       0.52330049      14.98493709       26       0.02321103       0.04279355      -0.03014539
O        4.71228695       2.62183305       2.26944952       27       0.02321103      -0.04279355       0.03014539
O        1.77808111       2.62183305       6.35774378       28       0.02321103      -0.04279355      -0.03014539
O        4.71228695       0.52330049      10.89664282       29       0.02321103       0.04279355       0.03014539
O        4.09033058       5.76696659       2.26944952       30      -0.02321103      -0.04279355       0.03014539
O        1.15612473       3.66843403      14.98493709       31      -0.02321103       0.04279355      -0.03014539
O        3.69297391       4.21215674      16.48689295       32       0.09720074       0.08940173       0.01664449
O        0.75876807       5.22324389       0.76749365       33       0.09720074      -0.08940173      -0.01664449
O        2.17543778       1.06702320       9.39468696       34      -0.09720074       0.08940173      -0.01664449
O        5.10964362       2.07811034       7.85969965       35      -0.09720074      -0.08940173       0.01664449
O        2.17543778       2.07811034       0.76749365       36      -0.09720074      -0.08940173      -0.01664449
O        5.10964362       1.06702320      16.48689295       37      -0.09720074       0.08940173       0.01664449
O        3.69297391       5.22324389       7.85969965       38       0.09720074      -0.08940173       0.01664449
O        0.75876807       4.21215674       9.39468696       39       0.09720074       0.08940173      -0.01664449
40
Lattice="5.829576420168974 -2.1645316970508048e-42 0.0 2.2675085728712724e-42 6.357227624968145 0.0 0.0 0.0 17.18638048398666" Properties=species:S:1:pos:R:3:spacegroup_kinds:I:1:forces:R:3 spacegroup="P 1" unit_cell=conventional occupancy="_JSON {\"0\": {\"In\": 1}, \"1\": {\"In\": 1}, \"2\": {\"In\": 1}, \"3\": {\"In\": 1}, \"4\": {\"In\": 1}, \"5\": {\"In\": 1}, \"6\": {\"In\": 1}, \"7\": {\"In\": 1}, \"8\": {\"In\": 1}, \"9\": {\"In\": 1}, \"10\": {\"In\": 1}, \"11\": {\"In\": 1}, \"12\": {\"In\": 1}, \"13\": {\"In\": 1}, \"14\": {\"In\": 1}, \"15\": {\"In\": 1}, \"16\": {\"O\": 1}, \"17\": {\"O\": 1}, \"18\": {\"O\": 1}, \"19\": {\"O\": 1}, \"20\": {\"O\": 1}, \"21\": {\"O\": 1}, \"22\": {\"O\": 1}, \"23\": {\"O\": 1}, \"24\": {\"O\": 1}, \"25\": {\"O\": 1}, \"26\": {\"O\": 1}, \"27\": {\"O\": 1}, \"28\": {\"O\": 1}, \"29\": {\"O\": 1}, \"30\": {\"O\": 1}, \"31\": {\"O\": 1}, \"32\": {\"O\": 1}, \"33\": {\"O\": 1}, \"34\": {\"O\": 1}, \"35\": {\"O\": 1}, \"36\": {\"O\": 1}, \"37\": {\"O\": 1}, \"38\": {\"O\": 1}, \"39\": {\"O\": 1}}" n_minim_iter=5 energy=-45145.45007390882 stress="0.057338989750294035 -2.636082499399768e-15 3.808331287121343e-13 -2.636082499399768e-15 0.06739609213426496 1.5351472124488358e-13 3.808331287121343e-13 1.5351472124488358e-13 0.06233575216745356" free_energy=-45145.45007390882 pbc="T T T"
In       2.65417532       5.33361305       9.94268361        0       0.02639460      -0.00847334      -0.05889386
In      -0.26061289       4.20222839       7.24369687        1       0.02639460       0.00847334       0.05889386
In       3.17540110       2.15499924      15.83688712        2      -0.02639460      -0.00847334       0.05889386
In       6.09018931       1.02361458       1.34949337        3      -0.02639460       0.00847334      -0.05889386
In       3.17540110       1.02361458       7.24369687        4      -0.02639460       0.00847334       0.05889386
In       6.09018931       2.15499924       9.94268361        5      -0.02639460      -0.00847334      -0.05889386
In       2.65417532       4.20222839       1.34949337        6       0.02639460       0.00847334      -0.05889386
In      -0.26061289       5.33361305      15.83688712        7       0.02639460      -0.00847334       0.05889386
In       2.65476866       5.05128168      13.97216923        8       0.00900014       0.06747513       0.05576781
In       5.56955687       4.48455976       3.21421126        9       0.00900014      -0.06747513      -0.05576781
In       3.17480776       1.87266786      11.80740150       10      -0.00900014       0.06747513      -0.05576781
In       0.26001955       1.30594595       5.37897898       11      -0.00900014      -0.06747513       0.05576781
In       3.17480776       1.30594595       3.21421126       12      -0.00900014      -0.06747513      -0.05576781
In       0.26001955       1.87266786      13.97216923       13      -0.00900014       0.06747513       0.05576781
In       2.65476866       4.48455976       5.37897898       14       0.00900014      -0.06747513       0.05576781
In       5.56955687       5.05128168      11.80740150       15       0.00900014       0.06747513      -0.05576781
O        4.78893570       5.74803718      13.74678558       16       0.01362100      -0.06087834       0.02575059
O        1.87414749       3.78780426       3.43959490       17       0.01362100       0.06087834      -0.02575059
O        1.04064072       2.56942337      12.03278514       18      -0.01362100      -0.06087834      -0.02575059
O        3.95542893       0.60919044       5.15359534       19      -0.01362100       0.06087834       0.02575059
O        1.04064072       0.60919044       3.43959490       20      -0.01362100       0.06087834      -0.02575059
O        3.95542893       2.56942337      13.74678558       21      -0.01362100      -0.06087834       0.02575059
O        4.78893570       3.78780426       5.15359534       22       0.01362100       0.06087834       0.02575059
O        1.87414749       5.74803718      12.03278514       23       0.01362100      -0.06087834      -0.02575059
O        4.06417670       3.72762846      10.86550894       24       0.02733838      -0.01074260       0.01896259
O        1.14938849       5.80821297       6.32087154       25       0.02733838       0.01074260      -0.01896259
O        1.76539972       0.54901465      14.91406179       26      -0.02733838      -0.01074260      -0.01896259
O        4.68018793       2.62959916       2.27231870       27      -0.02733838       0.01074260       0.01896259
O        1.76539972       2.62959916       6.32087154       28      -0.02733838       0.01074260      -0.01896259
O        4.68018793       0.54901465      10.86550894       29      -0.02733838      -0.01074260       0.01896259
O        4.06417670       5.80821297       2.27231870       30       0.02733838       0.01074260       0.01896259
O        1.14938849       3.72762846      14.91406179       31       0.02733838      -0.01074260      -0.01896259
O        3.67822296       4.25724312      16.42547848       32       0.01952943      -0.00945045       0.00553483
O        0.76343475       5.27859832       0.76090201       33       0.01952943       0.00945045      -0.00553483
O        2.15135346       1.07862931       9.35409225       34      -0.01952943      -0.00945045      -0.00553483
O        5.06614167       2.09998451       7.83228823       35      -0.01952943       0.00945045       0.00553483
O        2.15135346       2.09998451       0.76090201       36      -0.01952943       0.00945045      -0.00553483
O        5.06614167       1.07862931      16.42547848       37      -0.01952943      -0.00945045       0.00553483
O        3.67822296       5.27859832       7.83228823       38       0.01952943       0.00945045       0.00553483
O        0.76343475       4.25724312       9.35409225       39       0.01952943      -0.00945045      -0.00553483
40