40
Lattice="5.965445616046948 -8.612020208530477e-18 3.2171799452444033e-16 -2.9081214094295014e-16 3.984520451202304 1.145846678347858e-15 5.132083929492467e-15 -7.940287864046479e-16 16.405724253539027" Properties=species:S:1:pos:R:3:spacegroup_kinds:I:1:forces:R:3 spacegroup="P 1" unit_cell=conventional occupancy="_JSON {\"0\": {\"In\": 1}, \"1\": {\"In\": 1}, \"2\": {\"In\": 1}, \"3\": {\"In\": 1}, \"4\": {\"In\": 1}, \"5\": {\"In\": 1}, \"6\": {\"In\": 1}, \"7\": {\"In\": 1}, \"8\": {\"In\": 1}, \"9\": {\"In\": 1}, \"10\": {\"In\": 1}, \"11\": {\"In\": 1}, \"12\": {\"In\": 1}, \"13\": {\"In\": 1}, \"14\": {\"In\": 1}, \"15\": {\"In\": 1}, \"16\": {\"O\": 1}, \"17\": {\"O\": 1}, \"18\": {\"O\": 1}, \"19\": {\"O\": 1}, \"20\": {\"O\": 1}, \"21\": {\"O\": 1}, \"22\": {\"O\": 1}, \"23\": {\"O\": 1}, \"24\": {\"O\": 1}, \"25\": {\"O\": 1}, \"26\": {\"O\": 1}, \"27\": {\"O\": 1}, \"28\": {\"O\": 1}, \"29\": {\"O\": 1}, \"30\": {\"O\": 1}, \"31\": {\"O\": 1}, \"32\": {\"O\": 1}, \"33\": {\"O\": 1}, \"34\": {\"O\": 1}, \"35\": {\"O\": 1}, \"36\": {\"O\": 1}, \"37\": {\"O\": 1}, \"38\": {\"O\": 1}, \"39\": {\"O\": 1}}" n_minim_iter=1 energy=-45142.07428707365 stress="-0.2699017850632131 -4.7531913213590846e-14 -1.2403206896675805e-12 -4.7531913213590846e-14 -0.2754187653589248 1.1133819363079951e-12 -1.2403206896675805e-12 1.1133819363079951e-12 -0.263653070742564" free_energy=-45142.07428707365 pbc="T T T"
In       2.83661208       2.98865214       9.29255601        0      -0.42152160      -0.00000000      -0.09713488
In      -0.14611073       2.98865214       7.11397499        1      -0.42152160      -0.00000000       0.09713488
In       3.12889915       0.99639191      15.31683712        2       0.42152160      -0.00000000       0.09713488
In       6.11162196       0.99639191       1.08969389        3       0.42152160      -0.00000000      -0.09713488
In       3.12889915       0.99639191       7.11397499        4       0.42152160      -0.00000000       0.09713488
In       6.11162196       0.99639191       9.29255601        5       0.42152160      -0.00000000      -0.09713488
In       2.83661208       2.98865214       1.08969389        6      -0.42152160       0.00000000      -0.09713488
In      -0.14611073       2.98865214      15.31683712        7      -0.42152160       0.00000000       0.09713488
In       3.12889915       2.98865214      13.39398708        8       0.42152160      -0.00000000      -0.09713488
In       6.11162196       2.98865214       3.01254393        9       0.42152160       0.00000000       0.09713488
In       2.83661208       0.99639191      11.21540605       10      -0.42152160      -0.00000000       0.09713488
In      -0.14611073       0.99639191       5.19112495       11      -0.42152160      -0.00000000      -0.09713488
In       2.83661208       0.99639191       3.01254393       12      -0.42152160      -0.00000000       0.09713488
In      -0.14611073       0.99639191      13.39398708       13      -0.42152160       0.00000000      -0.09713488
In       3.12889915       2.98865214       5.19112495       14       0.42152160      -0.00000000      -0.09713488
In       6.11162196       2.98865214      11.21540605       15       0.42152160       0.00000000       0.09713488
O        5.19822198       2.98865214      13.07817726       16       0.05975778      -0.00000000       0.12413807
O        2.21549918       2.98865214       3.32835374       17       0.05975778       0.00000000      -0.12413807
O        0.76728925       0.99639191      11.53121586       18      -0.05975778       0.00000000      -0.12413807
O        3.75001205       0.99639191       4.87531514       19      -0.05975778       0.00000000       0.12413807
O        0.76728925       0.99639191       3.32835374       20      -0.05975778       0.00000000      -0.12413807
O        3.75001205       0.99639191      13.07817726       21      -0.05975778       0.00000000       0.12413807
O        5.19822198       2.98865214       4.87531514       22       0.05975778      -0.00000000       0.12413807
O        2.21549918       2.98865214      11.53121586       23       0.05975778      -0.00000000      -0.12413807
O        4.47411702       1.99252202      10.25398103       24      -0.00000000      -0.00000000      -0.00000000
O        1.49139421       3.98478225       6.15254997       25       0.00000000       0.00000000       0.00000000
O        1.49139421       0.00026180      14.35541210       26      -0.00000000       0.00000000      -0.00000000
O        4.47411702       1.99252202       2.05111891       27       0.00000000      -0.00000000      -0.00000000
O        1.49139421       1.99252202       6.15254997       28       0.00000000       0.00000000       0.00000000
O        4.47411702       0.00026180      10.25398103       29      -0.00000000       0.00000000      -0.00000000
O        4.47411702       3.98478225       2.05111891       30       0.00000000       0.00000000       0.00000000
O        1.49139421       1.99252202      14.35541210       31      -0.00000000      -0.00000000      -0.00000000
O        3.75001205       2.98865214      15.63264693       32      -0.05975778       0.00000000      -0.12413807
O        0.76728925       2.98865214       0.77388407       33      -0.05975778       0.00000000       0.12413807
O        2.21549918       0.99639191       8.97674620       34       0.05975778      -0.00000000       0.12413807
O        5.19822198       0.99639191       7.42978480       35       0.05975778      -0.00000000      -0.12413807
O        2.21549918       0.99639191       0.77388407       36       0.05975778       0.00000000       0.12413807
O        5.19822198       0.99639191      15.63264693       37       0.05975778      -0.00000000      -0.12413807
O        3.75001205       2.98865214       7.42978480       38      -0.05975778       0.00000000      -0.12413807
O        0.76728925       2.98865214       8.97674620       39      -0.05975778       0.00000000       0.12413807
40
Lattice="5.966153824610667 -8.573358551078792e-18 2.80178540754517e-17 -2.907942086431896e-16 3.995708008191102 1.244445911184118e-15 4.349498355355781e-15 -4.0230000070695806e-16 16.35784799374065" Properties=species:S:1:pos:R:3:spacegroup_kinds:I:1:forces:R:3 spacegroup="P 1" unit_cell=conventional occupancy="_JSON {\"0\": {\"In\": 1}, \"1\": {\"In\": 1}, \"2\": {\"In\": 1}, \"3\": {\"In\": 1}, \"4\": {\"In\": 1}, \"5\": {\"In\": 1}, \"6\": {\"In\": 1}, \"7\": {\"In\": 1}, \"8\": {\"In\": 1}, \"9\": {\"In\": 1}, \"10\": {\"In\": 1}, \"11\": {\"In\": 1}, \"12\": {\"In\": 1}, \"13\": {\"In\": 1}, \"14\": {\"In\": 1}, \"15\": {\"In\": 1}, \"16\": {\"O\": 1}, \"17\": {\"O\": 1}, \"18\": {\"O\": 1}, \"19\": {\"O\": 1}, \"20\": {\"O\": 1}, \"21\": {\"O\": 1}, \"22\": {\"O\": 1}, \"23\": {\"O\": 1}, \"24\": {\"O\": 1}, \"25\": {\"O\": 1}, \"26\": {\"O\": 1}, \"27\": {\"O\": 1}, \"28\": {\"O\": 1}, \"29\": {\"O\": 1}, \"30\": {\"O\": 1}, \"31\": {\"O\": 1}, \"32\": {\"O\": 1}, \"33\": {\"O\": 1}, \"34\": {\"O\": 1}, \"35\": {\"O\": 1}, \"36\": {\"O\": 1}, \"37\": {\"O\": 1}, \"38\": {\"O\": 1}, \"39\": {\"O\": 1}}" n_minim_iter=2 energy=-45142.08232021657 stress="-0.2696833376805857 -3.462836229499082e-13 2.55080762148941e-13 -3.462836229499082e-13 -0.26535314408531235 -3.3257277121362085e-14 2.55080762148941e-13 -3.3257277121362085e-14 -0.27025440214710494" free_energy=-45142.08232021657 pbc="T T T"
In       2.83642268       2.99704354       9.26531699        0      -0.44530304       0.00000000      -0.04929424
In      -0.14665424       2.99704354       7.09333540        1      -0.44530304      -0.00000000       0.04929424
In       3.12979677       0.99918953      15.27225940        2       0.44530304       0.00000000       0.04929424
In       6.11287368       0.99918953       1.08639299        3       0.44530304       0.00000000      -0.04929424
In       3.12979677       0.99918953       7.09333540        4       0.44530304       0.00000000       0.04929424
In       6.11287368       0.99918953       9.26531699        5       0.44530304       0.00000000      -0.04929424
In       2.83642268       2.99704354       1.08639299        6      -0.44530304       0.00000000      -0.04929424
In      -0.14665424       2.99704354      15.27225940        7      -0.44530304      -0.00000000       0.04929424
In       3.12979677       2.99704354      13.35477899        8       0.44530304       0.00000000      -0.04929424
In       6.11287368       2.99704354       3.00387340        9       0.44530304       0.00000000       0.04929424
In       2.83642268       0.99918953      11.18279740       10      -0.44530304      -0.00000000       0.04929424
In      -0.14665424       0.99918953       5.17585499       11      -0.44530304      -0.00000000      -0.04929424
In       2.83642268       0.99918953       3.00387340       12      -0.44530304       0.00000000       0.04929424
In      -0.14665424       0.99918953      13.35477899       13      -0.44530304       0.00000000      -0.04929424
In       3.12979677       2.99704354       5.17585499       14       0.44530304      -0.00000000      -0.04929424
In       6.11287368       2.99704354      11.18279740       15       0.44530304       0.00000000       0.04929424
O        5.19891370       2.99704354      13.04016615       16       0.06793173       0.00000000       0.20253820
O        2.21583679       2.99704354       3.31848623       17       0.06793173       0.00000000      -0.20253820
O        0.76730575       0.99918953      11.49741023       18      -0.06793173      -0.00000000      -0.20253820
O        3.75038266       0.99918953       4.86124216       19      -0.06793173      -0.00000000       0.20253820
O        0.76730575       0.99918953       3.31848623       20      -0.06793173       0.00000000      -0.20253820
O        3.75038266       0.99918953      13.04016615       21      -0.06793173       0.00000000       0.20253820
O        5.19891370       2.99704354       4.86124216       22       0.06793173      -0.00000000       0.20253820
O        2.21583679       2.99704354      11.49741023       23       0.06793173      -0.00000000      -0.20253820
O        4.47464818       1.99811654      10.22405719       24      -0.00000000       0.00000000      -0.00000000
O        1.49157127       3.99597054       6.13459519       25       0.00000000      -0.00000000      -0.00000000
O        1.49157127       0.00026253      14.31351919       26       0.00000000      -0.00000000      -0.00000000
O        4.47464818       1.99811654       2.04513320       27       0.00000000      -0.00000000      -0.00000000
O        1.49157127       1.99811654       6.13459519       28       0.00000000      -0.00000000      -0.00000000
O        4.47464818       0.00026253      10.22405719       29      -0.00000000      -0.00000000       0.00000000
O        4.47464818       3.99597054       2.04513320       30       0.00000000      -0.00000000      -0.00000000
O        1.49157127       1.99811654      14.31351919       31       0.00000000       0.00000000       0.00000000
O        3.75038266       2.99704354      15.58687223       32      -0.06793173      -0.00000000      -0.20253820
O        0.76730575       2.99704354       0.77178016       33      -0.06793173       0.00000000       0.20253820
O        2.21583679       0.99918953       8.95070416       34       0.06793173       0.00000000       0.20253820
O        5.19891370       0.99918953       7.40794823       35       0.06793173      -0.00000000      -0.20253820
O        2.21583679       0.99918953       0.77178016       36       0.06793173      -0.00000000       0.20253820
O        5.19891370       0.99918953      15.58687223       37       0.06793173      -0.00000000      -0.20253820
O        3.75038266       2.99704354       7.40794823       38      -0.06793173       0.00000000      -0.20253820
O        0.76730575       2.99704354       8.95070416       39      -0.06793173      -0.00000000       0.20253820
40
Lattice="5.992131189138205 -6.4370094363240326e-18 -4.179985464175034e-17 -2.9063860064154136e-16 3.9908003421339036 1.3166418833207087e-15 4.17760749658179e-15 -8.920425847483265e-17 16.306961465006935" Properties=species:S:1:pos:R:3:spacegroup_kinds:I:1:forces:R:3 spacegroup="P 1" unit_cell=conventional occupancy="_JSON {\"0\": {\"In\": 1}, \"1\": {\"In\": 1}, \"2\": {\"In\": 1}, \"3\": {\"In\": 1}, \"4\": {\"In\": 1}, \"5\": {\"In\": 1}, \"6\": {\"In\": 1}, \"7\": {\"In\": 1}, \"8\": {\"In\": 1}, \"9\": {\"In\": 1}, \"10\": {\"In\": 1}, \"11\": {\"In\": 1}, \"12\": {\"In\": 1}, \"13\": {\"In\": 1}, \"14\": {\"In\": 1}, \"15\": {\"In\": 1}, \"16\": {\"O\": 1}, \"17\": {\"O\": 1}, \"18\": {\"O\": 1}, \"19\": {\"O\": 1}, \"20\": {\"O\": 1}, \"21\": {\"O\": 1}, \"22\": {\"O\": 1}, \"23\": {\"O\": 1}, \"24\": {\"O\": 1}, \"25\": {\"O\": 1}, \"26\": {\"O\": 1}, \"27\": {\"O\": 1}, \"28\": {\"O\": 1}, \"29\": {\"O\": 1}, \"30\": {\"O\": 1}, \"31\": {\"O\": 1}, \"32\": {\"O\": 1}, \"33\": {\"O\": 1}, \"34\": {\"O\": 1}, \"35\": {\"O\": 1}, \"36\": {\"O\": 1}, \"37\": {\"O\": 1}, \"38\": {\"O\": 1}, \"39\": {\"O\": 1}}" n_minim_iter=3 energy=-45142.10588177027 stress="-0.2509522325837958 1.236928770776024e-13 -3.487204041260102e-13 1.236928770776024e-13 -0.2706117183894435 5.272220487071496e-13 -3.487204041260102e-13 5.272220487071496e-13 -0.27289901812862216" free_energy=-45142.10588177027 pbc="T T T"
In       2.84351496       2.99336247       9.23572842        0      -0.34324995       0.00000000      -0.02731818
In      -0.15255064       2.99336247       7.07203493        1      -0.34324995      -0.00000000       0.02731818
In       3.14868214       0.99796229      15.22551567        2       0.34324995       0.00000000       0.02731818
In       6.14474773       0.99796229       1.08224769        3       0.34324995       0.00000000      -0.02731818
In       3.14868214       0.99796229       7.07203493        4       0.34324995       0.00000000       0.02731818
In       6.14474773       0.99796229       9.23572842        5       0.34324995      -0.00000000      -0.02731818
In       2.84351496       2.99336247       1.08224769        6      -0.34324995       0.00000000      -0.02731818
In      -0.15255064       2.99336247      15.22551567        7      -0.34324995      -0.00000000       0.02731818
In       3.14868214       2.99336247      13.31246879        8       0.34324995      -0.00000000      -0.02731818
In       6.14474773       2.99336247       2.99529457        9       0.34324995       0.00000000       0.02731818
In       2.84351496       0.99796229      11.14877530       10      -0.34324995      -0.00000000       0.02731818
In      -0.15255064       0.99796229       5.15898806       11      -0.34324995      -0.00000000      -0.02731818
In       2.84351496       0.99796229       2.99529457       12      -0.34324995       0.00000000       0.02731818
In      -0.15255064       0.99796229      13.31246879       13      -0.34324995       0.00000000      -0.02731818
In       3.14868214       2.99336247       5.15898806       14       0.34324995      -0.00000000      -0.02731818
In       6.14474773       2.99336247      11.14877530       15       0.34324995       0.00000000       0.02731818
O        5.22233512       2.99336247      13.00170614       16       0.00626186      -0.00000000       0.19978126
O        2.22626953       2.99336247       3.30605721       17       0.00626186       0.00000000      -0.19978126
O        0.76986198       0.99796229      11.45953795       18      -0.00626186       0.00000000      -0.19978126
O        3.76592757       0.99796229       4.84822541       19      -0.00626186      -0.00000000       0.19978126
O        0.76986198       0.99796229       3.30605721       20      -0.00626186       0.00000000      -0.19978126
O        3.76592757       0.99796229      13.00170614       21      -0.00626186       0.00000000       0.19978126
O        5.22233512       2.99336247       4.84822541       22       0.00626186      -0.00000000       0.19978126
O        2.22626953       2.99336247      11.45953795       23       0.00626186      -0.00000000      -0.19978126
O        4.49413135       1.99566238      10.19225186       24       0.00000000      -0.00000000       0.00000000
O        1.49806575       3.99106255       6.11551150       25       0.00000000      -0.00000000       0.00000000
O        1.49806575       0.00026221      14.26899223       26       0.00000000       0.00000000      -0.00000000
O        4.49413135       1.99566238       2.03877113       27       0.00000000       0.00000000       0.00000000
O        1.49806575       1.99566238       6.11551150       28       0.00000000       0.00000000       0.00000000
O        4.49413135       0.00026221      10.19225186       29       0.00000000       0.00000000       0.00000000
O        4.49413135       3.99106255       2.03877113       30      -0.00000000       0.00000000       0.00000000
O        1.49806575       1.99566238      14.26899223       31      -0.00000000      -0.00000000      -0.00000000
O        3.76592757       2.99336247      15.53627831       32      -0.00626186       0.00000000      -0.19978126
O        0.76986198       2.99336247       0.77148504       33      -0.00626186      -0.00000000       0.19978126
O        2.22626953       0.99796229       8.92496578       34       0.00626186      -0.00000000       0.19978126
O        5.22233512       0.99796229       7.38279758       35       0.00626186       0.00000000      -0.19978126
O        2.22626953       0.99796229       0.77148504       36       0.00626186      -0.00000000       0.19978126
O        5.22233512       0.99796229      15.53627831       37       0.00626186      -0.00000000      -0.19978126
O        3.76592757       2.99336247       7.38279758       38      -0.00626186       0.00000000      -0.19978126
O        0.76986198       2.99336247       8.92496578       39      -0.00626186      -0.00000000       0.19978126
40
Lattice="5.979972844647441 -7.6517843221749e-18 -5.481373651321243e-17 -2.908469689314064e-16 3.998606843849931 1.241258489534352e-15 4.132818935587619e-15 -4.000888590222381e-16 16.308215509958938" Properties=species:S:1:pos:R:3:spacegroup_kinds:I:1:forces:R:3 spacegroup="P 1" unit_cell=conventional occupancy="_JSON {\"0\": {\"In\": 1}, \"1\": {\"In\": 1}, \"2\": {\"In\": 1}, \"3\": {\"In\": 1}, \"4\": {\"In\": 1}, \"5\": {\"In\": 1}, \"6\": {\"In\": 1}, \"7\": {\"In\": 1}, \"8\": {\"In\": 1}, \"9\": {\"In\": 1}, \"10\": {\"In\": 1}, \"11\": {\"In\": 1}, \"12\": {\"In\": 1}, \"13\": {\"In\": 1}, \"14\": {\"In\": 1}, \"15\": {\"In\": 1}, \"16\": {\"O\": 1}, \"17\": {\"O\": 1}, \"18\": {\"O\": 1}, \"19\": {\"O\": 1}, \"20\": {\"O\": 1}, \"21\": {\"O\": 1}, \"22\": {\"O\": 1}, \"23\": {\"O\": 1}, \"24\": {\"O\": 1}, \"25\": {\"O\": 1}, \"26\": {\"O\": 1}, \"27\": {\"O\": 1}, \"28\": {\"O\": 1}, \"29\": {\"O\": 1}, \"30\": {\"O\": 1}, \"31\": {\"O\": 1}, \"32\": {\"O\": 1}, \"33\": {\"O\": 1}, \"34\": {\"O\": 1}, \"35\": {\"O\": 1}, \"36\": {\"O\": 1}, \"37\": {\"O\": 1}, \"38\": {\"O\": 1}, \"39\": {\"O\": 1}}" n_minim_iter=4 energy=-45142.150437384946 stress="-0.2576842639291854 -4.093180074014363e-13 3.077837377796599e-14 -4.093180074014363e-13 -0.25825871992648414 -8.976713007599168e-13 3.077837377796599e-14 -8.976713007599168e-13 -0.2577004818580942" free_energy=-45142.150437384946 pbc="T T T"
In       2.82733362       2.99921786       9.23496278        0       0.03594811      -0.00000000       0.03502826
In      -0.16265280       2.99921786       7.07405468        1       0.03594811      -0.00000000      -0.03502826
In       3.15270500       0.99991443      15.22816244        2      -0.03594811      -0.00000000      -0.03502826
In       6.14269142       0.99991443       1.08085503        3      -0.03594811       0.00000000       0.03502826
In       3.15270500       0.99991443       7.07405468        4      -0.03594811       0.00000000      -0.03502826
In       6.14269142       0.99991443       9.23496278        5      -0.03594811       0.00000000       0.03502826
In       2.82733362       2.99921786       1.08085503        6       0.03594811       0.00000000       0.03502826
In      -0.16265280       2.99921786      15.22816244        7       0.03594811      -0.00000000      -0.03502826
In       3.15270500       2.99921786      13.31201666        8      -0.03594811       0.00000000       0.03502826
In       6.14269142       2.99921786       2.99700080        9      -0.03594811      -0.00000000      -0.03502826
In       2.82733362       0.99991443      11.15110856       10       0.03594811      -0.00000000      -0.03502826
In      -0.16265280       0.99991443       5.15790890       11       0.03594811      -0.00000000       0.03502826
In       2.82733362       0.99991443       2.99700080       12       0.03594811      -0.00000000      -0.03502826
In      -0.16265280       0.99991443      13.31201666       13       0.03594811       0.00000000       0.03502826
In       3.15270500       2.99921786       5.15790890       14      -0.03594811      -0.00000000       0.03502826
In       6.14269142       2.99921786      11.15110856       15      -0.03594811      -0.00000000      -0.03502826
O        5.21320793       2.99921786      13.00699408       16       0.22344081      -0.00000000       0.03274501
O        2.22322151       2.99921786       3.30202338       17       0.22344081      -0.00000000      -0.03274501
O        0.76683069       0.99991443      11.45613114       18      -0.22344081       0.00000000      -0.03274501
O        3.75681711       0.99991443       4.85288633       19      -0.22344081      -0.00000000       0.03274501
O        0.76683069       0.99991443       3.30202338       20      -0.22344081       0.00000000      -0.03274501
O        3.75681711       0.99991443      13.00699408       21      -0.22344081       0.00000000       0.03274501
O        5.21320793       2.99921786       4.85288633       22       0.22344081       0.00000000       0.03274501
O        2.22322151       2.99921786      11.45613114       23       0.22344081      -0.00000000      -0.03274501
O        4.48501252       1.99956614      10.19303567       24      -0.00000000      -0.00000000      -0.00000000
O        1.49502610       3.99886957       6.11598179       25      -0.00000000       0.00000000      -0.00000000
O        1.49502610       0.00026272      14.27008955       26       0.00000000       0.00000000       0.00000000
O        4.48501252       1.99956614       2.03892792       27      -0.00000000       0.00000000       0.00000000
O        1.49502610       1.99956614       6.11598179       28      -0.00000000       0.00000000       0.00000000
O        4.48501252       0.00026272      10.19303567       29      -0.00000000       0.00000000      -0.00000000
O        4.48501252       3.99886957       2.03892792       30      -0.00000000       0.00000000      -0.00000000
O        1.49502610       1.99956614      14.27008955       31      -0.00000000      -0.00000000       0.00000000
O        3.75681711       2.99921786      15.53318501       32      -0.22344081       0.00000000      -0.03274501
O        0.76683069       2.99921786       0.77583245       33      -0.22344081       0.00000000       0.03274501
O        2.22322151       0.99991443       8.92994020       34       0.22344081      -0.00000000       0.03274501
O        5.21320793       0.99991443       7.37907726       35       0.22344081      -0.00000000      -0.03274501
O        2.22322151       0.99991443       0.77583245       36       0.22344081       0.00000000       0.03274501
O        5.21320793       0.99991443      15.53318501       37       0.22344081      -0.00000000      -0.03274501
O        3.75681711       2.99921786       7.37907726       38      -0.22344081       0.00000000      -0.03274501
O        0.76683069       2.99921786       8.92994020       39      -0.22344081       0.00000000       0.03274501
40
Lattice="5.96582380001195 -9.27611612813594e-18 -7.903634426821757e-17 -2.9122673844430846e-16 4.010865678860722 1.2031229476699658e-15 4.0560245197691035e-15 -5.546067243892998e-16 16.296930684633953" Properties=species:S:1:pos:R:3:spacegroup_kinds:I:1:forces:R:3 spacegroup="P 1" unit_cell=conventional occupancy="_JSON {\"0\": {\"In\": 1}, \"1\": {\"In\": 1}, \"2\": {\"In\": 1}, \"3\": {\"In\": 1}, \"4\": {\"In\": 1}, \"5\": {\"In\": 1}, \"6\": {\"In\": 1}, \"7\": {\"In\": 1}, \"8\": {\"In\": 1}, \"9\": {\"In\": 1}, \"10\": {\"In\": 1}, \"11\": {\"In\": 1}, \"12\": {\"In\": 1}, \"13\": {\"In\": 1}, \"14\": {\"In\": 1}, \"15\": {\"In\": 1}, \"16\": {\"O\": 1}, \"17\": {\"O\": 1}, \"18\": {\"O\": 1}, \"19\": {\"O\": 1}, \"20\": {\"O\": 1}, \"21\": {\"O\": 1}, \"22\": {\"O\": 1}, \"23\": {\"O\": 1}, \"24\": {\"O\": 1}, \"25\": {\"O\": 1}, \"26\": {\"O\": 1}, \"27\": {\"O\": 1}, \"28\": {\"O\": 1}, \"29\": {\"O\": 1}, \"30\": {\"O\": 1}, \"31\": {\"O\": 1}, \"32\": {\"O\": 1}, \"33\": {\"O\": 1}, \"34\": {\"O\": 1}, \"35\": {\"O\": 1}, \"36\": {\"O\": 1}, \"37\": {\"O\": 1}, \"38\": {\"O\": 1}, \"39\": {\"O\": 1}}" n_minim_iter=5 energy=-45142.17936641323 stress="-0.25198357252242104 2.4139244583283133e-13 7.006773404806521e-13 2.4139244583283133e-13 -0.25039288009011246 -4.1354929355150587e-13 7.006773404806521e-13 -4.1354929355150587e-13 -0.2530702480585719" free_energy=-45142.17936641323 pbc="T T T"
In       2.81559872       3.00841279       9.22988834        0       0.01169349      -0.00000000      -0.01807645
In      -0.16731318       3.00841279       7.06784374        1       0.01169349      -0.00000000       0.01807645
In       3.15029070       1.00297995      15.21630908        2      -0.01169349      -0.00000000       0.01807645
In       6.13320260       1.00297995       1.08142300        3      -0.01169349       0.00000000      -0.01807645
In       3.15029070       1.00297995       7.06784374        4      -0.01169349      -0.00000000       0.01807645
In       6.13320260       1.00297995       9.22988834        5      -0.01169349      -0.00000000      -0.01807645
In       2.81559872       3.00841279       1.08142300        6       0.01169349       0.00000000      -0.01807645
In      -0.16731318       3.00841279      15.21630908        7       0.01169349      -0.00000000       0.01807645
In       3.15029070       3.00841279      13.30412101        8      -0.01169349      -0.00000000      -0.01807645
In       6.13320260       3.00841279       2.99361107        9      -0.01169349      -0.00000000       0.01807645
In       2.81559872       1.00297995      11.14207641       10       0.01169349      -0.00000000       0.01807645
In      -0.16731318       1.00297995       5.15565567       11       0.01169349      -0.00000000      -0.01807645
In       2.81559872       1.00297995       2.99361107       12       0.01169349       0.00000000       0.01807645
In      -0.16731318       1.00297995      13.30412101       13       0.01169349       0.00000000      -0.01807645
In       3.15029070       3.00841279       5.15565567       14      -0.01169349      -0.00000000      -0.01807645
In       6.13320260       3.00841279      11.14207641       15      -0.01169349      -0.00000000       0.01807645
O        5.21675882       3.00841279      13.00328959       16       0.01688728       0.00000000      -0.01472107
O        2.23384692       3.00841279       3.29444249       17       0.01688728      -0.00000000       0.01472107
O        0.74913060       1.00297995      11.44290783       18      -0.01688728       0.00000000       0.01472107
O        3.73204250       1.00297995       4.85482425       19      -0.01688728       0.00000000      -0.01472107
O        0.74913060       1.00297995       3.29444249       20      -0.01688728      -0.00000000       0.01472107
O        3.73204250       1.00297995      13.00328959       21      -0.01688728       0.00000000      -0.01472107
O        5.21675882       3.00841279       4.85482425       22       0.01688728      -0.00000000      -0.01472107
O        2.23384692       3.00841279      11.44290783       23       0.01688728       0.00000000       0.01472107
O        4.47440066       2.00569637      10.18598238       24       0.00000000       0.00000000       0.00000000
O        1.49148876       4.01112921       6.11174971       25       0.00000000       0.00000000       0.00000000
O        1.49148876       0.00026353      14.26021505       26      -0.00000000      -0.00000000      -0.00000000
O        4.47440066       2.00569637       2.03751703       27       0.00000000       0.00000000       0.00000000
O        1.49148876       2.00569637       6.11174971       28      -0.00000000       0.00000000      -0.00000000
O        4.47440066       0.00026353      10.18598238       29       0.00000000       0.00000000      -0.00000000
O        4.47440066       4.01112921       2.03751703       30      -0.00000000       0.00000000       0.00000000
O        1.49148876       2.00569637      14.26021505       31       0.00000000      -0.00000000       0.00000000
O        3.73204250       3.00841279      15.51714050       32      -0.01688728      -0.00000000       0.01472107
O        0.74913060       3.00841279       0.78059158       33      -0.01688728       0.00000000      -0.01472107
O        2.23384692       1.00297995       8.92905692       34       0.01688728      -0.00000000      -0.01472107
O        5.21675882       1.00297995       7.36867516       35       0.01688728      -0.00000000       0.01472107
O        2.23384692       1.00297995       0.78059158       36       0.01688728       0.00000000      -0.01472107
O        5.21675882       1.00297995      15.51714050       37       0.01688728       0.00000000       0.01472107
O        3.73204250       3.00841279       7.36867516       38      -0.01688728       0.00000000       0.01472107
O        0.74913060       3.00841279       8.92905692       39      -0.01688728      -0.00000000      -0.01472107
40