40
Lattice="6.089076395804476 -8.981772990906195e-18 3.3846945339105907e-16 -2.9697594121280914e-16 4.062492338537956 -2.5823176063064844e-15 2.758018118747955e-16 2.918201529189442e-16 16.81508645130544" Properties=species:S:1:pos:R:3:spacegroup_kinds:I:1:forces:R:3 spacegroup="P 1" unit_cell=conventional occupancy="_JSON {\"0\": {\"In\": 1}, \"1\": {\"In\": 1}, \"2\": {\"In\": 1}, \"3\": {\"In\": 1}, \"4\": {\"In\": 1}, \"5\": {\"In\": 1}, \"6\": {\"In\": 1}, \"7\": {\"In\": 1}, \"8\": {\"In\": 1}, \"9\": {\"In\": 1}, \"10\": {\"In\": 1}, \"11\": {\"In\": 1}, \"12\": {\"In\": 1}, \"13\": {\"In\": 1}, \"14\": {\"In\": 1}, \"15\": {\"In\": 1}, \"16\": {\"O\": 1}, \"17\": {\"O\": 1}, \"18\": {\"O\": 1}, \"19\": {\"O\": 1}, \"20\": {\"O\": 1}, \"21\": {\"O\": 1}, \"22\": {\"O\": 1}, \"23\": {\"O\": 1}, \"24\": {\"O\": 1}, \"25\": {\"O\": 1}, \"26\": {\"O\": 1}, \"27\": {\"O\": 1}, \"28\": {\"O\": 1}, \"29\": {\"O\": 1}, \"30\": {\"O\": 1}, \"31\": {\"O\": 1}, \"32\": {\"O\": 1}, \"33\": {\"O\": 1}, \"34\": {\"O\": 1}, \"35\": {\"O\": 1}, \"36\": {\"O\": 1}, \"37\": {\"O\": 1}, \"38\": {\"O\": 1}, \"39\": {\"O\": 1}}" n_minim_iter=9 energy=-45146.826757130475 stress="-0.11538290014828964 -6.830129293122098e-14 -2.406745566186684e-13 -6.830129293122098e-14 -0.11549648768757512 2.2375779846332873e-13 -2.406745566186684e-13 2.2375779846332873e-13 -0.11548161354250538" free_energy=-45146.826757130475 pbc="T T T"
In       2.91378586       3.04713617       9.52295805        0       0.00040228       0.00000000       0.00348926
In      -0.13075234       3.04713617       7.29295528        1       0.00040228      -0.00000000      -0.00348926
In       3.17535751       1.01589000      15.70049851        2      -0.00040228      -0.00000000      -0.00348926
In       6.21989571       1.01589000       1.11541482        3      -0.00040228      -0.00000000       0.00348926
In       3.17535751       1.01589000       7.29295528        4      -0.00040228       0.00000000      -0.00348926
In       6.21989571       1.01589000       9.52295805        5      -0.00040228      -0.00000000       0.00348926
In       2.91378586       3.04713617       1.11541482        6       0.00040228      -0.00000000       0.00348926
In      -0.13075234       3.04713617      15.70049851        7       0.00040228       0.00000000      -0.00348926
In       3.17535751       3.04713617      13.72672966        8      -0.00040228      -0.00000000       0.00348926
In       6.21989571       3.04713617       3.08918367        9      -0.00040228       0.00000000      -0.00348926
In       2.91378586       1.01589000      11.49672690       10       0.00040228       0.00000000      -0.00348926
In      -0.13075234       1.01589000       5.31918643       11       0.00040228      -0.00000000       0.00348926
In       2.91378586       1.01589000       3.08918367       12       0.00040228      -0.00000000      -0.00348926
In      -0.13075234       1.01589000      13.72672966       13       0.00040228      -0.00000000       0.00348926
In       3.17535751       3.04713617       5.31918643       14      -0.00040228       0.00000000       0.00348926
In       6.21989571       3.04713617      11.49672690       15      -0.00040228       0.00000000      -0.00348926
O        5.29827271       3.04713617      13.40418463       16      -0.00661522      -0.00000000      -0.00394206
O        2.25373452       3.04713617       3.41172870       17      -0.00661522      -0.00000000       0.00394206
O        0.79087066       1.01589000      11.81927192       18       0.00661522       0.00000000       0.00394206
O        3.83540886       1.01589000       4.99664141       19       0.00661522       0.00000000      -0.00394206
O        0.79087066       1.01589000       3.41172870       20       0.00661522      -0.00000000       0.00394206
O        3.83540886       1.01589000      13.40418463       21       0.00661522      -0.00000000      -0.00394206
O        5.29827271       3.04713617       4.99664141       22      -0.00661522       0.00000000      -0.00394206
O        2.25373452       3.04713617      11.81927192       23      -0.00661522      -0.00000000       0.00394206
O        4.56684078       2.03151309      10.50984247       24      -0.00000000       0.00000000       0.00000000
O        1.52230259       4.06275926       6.30607086       25      -0.00000000       0.00000000      -0.00000000
O        1.52230259       0.00026692      14.71361408       26      -0.00000000      -0.00000000       0.00000000
O        4.56684078       2.03151309       2.10229925       27      -0.00000000       0.00000000      -0.00000000
O        1.52230259       2.03151309       6.30607086       28       0.00000000      -0.00000000      -0.00000000
O        4.56684078       0.00026692      10.50984247       29      -0.00000000      -0.00000000       0.00000000
O        4.56684078       4.06275926       2.10229925       30      -0.00000000       0.00000000      -0.00000000
O        1.52230259       2.03151309      14.71361408       31       0.00000000       0.00000000      -0.00000000
O        3.83540886       3.04713617      16.02304354       32       0.00661522       0.00000000       0.00394206
O        0.79087066       3.04713617       0.79286979       33       0.00661522      -0.00000000      -0.00394206
O        2.25373452       1.01589000       9.20041302       34      -0.00661522      -0.00000000      -0.00394206
O        5.29827271       1.01589000       7.61550031       35      -0.00661522       0.00000000       0.00394206
O        2.25373452       1.01589000       0.79286979       36      -0.00661522       0.00000000      -0.00394206
O        5.29827271       1.01589000      16.02304354       37      -0.00661522       0.00000000       0.00394206
O        3.83540886       3.04713617       7.61550031       38       0.00661522       0.00000000       0.00394206
O        0.79087066       3.04713617       9.20041302       39       0.00661522      -0.00000000      -0.00394206
