40
Lattice="5.904058779339035 -2.8280581015455854e-42 0.0 3.051364678108901e-42 6.370249750847807 0.0 0.0 0.0 17.280486945409443" Properties=species:S:1:pos:R:3:spacegroup_kinds:I:1:forces:R:3 spacegroup="P 1" unit_cell=conventional occupancy="_JSON {\"0\": {\"In\": 1}, \"1\": {\"In\": 1}, \"2\": {\"In\": 1}, \"3\": {\"In\": 1}, \"4\": {\"In\": 1}, \"5\": {\"In\": 1}, \"6\": {\"In\": 1}, \"7\": {\"In\": 1}, \"8\": {\"In\": 1}, \"9\": {\"In\": 1}, \"10\": {\"In\": 1}, \"11\": {\"In\": 1}, \"12\": {\"In\": 1}, \"13\": {\"In\": 1}, \"14\": {\"In\": 1}, \"15\": {\"In\": 1}, \"16\": {\"O\": 1}, \"17\": {\"O\": 1}, \"18\": {\"O\": 1}, \"19\": {\"O\": 1}, \"20\": {\"O\": 1}, \"21\": {\"O\": 1}, \"22\": {\"O\": 1}, \"23\": {\"O\": 1}, \"24\": {\"O\": 1}, \"25\": {\"O\": 1}, \"26\": {\"O\": 1}, \"27\": {\"O\": 1}, \"28\": {\"O\": 1}, \"29\": {\"O\": 1}, \"30\": {\"O\": 1}, \"31\": {\"O\": 1}, \"32\": {\"O\": 1}, \"33\": {\"O\": 1}, \"34\": {\"O\": 1}, \"35\": {\"O\": 1}, \"36\": {\"O\": 1}, \"37\": {\"O\": 1}, \"38\": {\"O\": 1}, \"39\": {\"O\": 1}}" n_minim_iter=1 energy=-45144.58463903093 stress="0.08122944327268708 -5.717763517776909e-14 -2.0069346872577453e-13 -5.717763517776909e-14 0.07596444648883748 -5.211101593598159e-14 -2.0069346872577453e-13 -5.211101593598159e-14 0.07735210580666976" free_energy=-45144.58463903093 pbc="T T T"
In       2.69730282       5.33734093       9.99037837        0       0.04937202       0.08938191       0.05161537
In      -0.25472657       4.21803370       7.29010858        1       0.04937202      -0.08938191      -0.05161537
In       3.20675596       2.15221605      15.93035205        2      -0.04937202       0.08938191      -0.05161537
In       6.15878535       1.03290882       1.35013490        3      -0.04937202      -0.08938191       0.05161537
In       3.20675596       1.03290882       7.29010858        4      -0.04937202      -0.08938191      -0.05161537
In       6.15878535       2.15221605       9.99037837        5      -0.04937202       0.08938191       0.05161537
In       2.69730282       4.21803370       1.35013490        6       0.04937202      -0.08938191       0.05161537
In      -0.25472657       5.33734093      15.93035205        7       0.04937202       0.08938191      -0.05161537
In       2.70052516       5.08615702      14.06500330        8      -0.00791668       0.00364680       0.00136507
In       5.65255455       4.46921761       3.21548365        9      -0.00791668      -0.00364680      -0.00136507
In       3.20353361       1.90103214      11.85572712       10       0.00791668       0.00364680      -0.00136507
In       0.25150422       1.28409273       5.42475983       11       0.00791668      -0.00364680       0.00136507
In       3.20353361       1.28409273       3.21548365       12       0.00791668      -0.00364680      -0.00136507
In       0.25150422       1.90103214      14.06500330       13       0.00791668       0.00364680       0.00136507
In       2.70052516       4.46921761       5.42475983       14      -0.00791668      -0.00364680       0.00136507
In       5.65255455       5.08615702      11.85572712       15      -0.00791668       0.00364680      -0.00136507
O        4.86516512       5.73437904      13.82791494       16       0.02083001      -0.08062370       0.02828107
O        1.91313573       3.82099559       3.45257200       17       0.02083001       0.08062370      -0.02828107
O        1.03889366       2.54925416      12.09281547       18      -0.02083001      -0.08062370      -0.02828107
O        3.99092305       0.63587072       5.18767147       19      -0.02083001       0.08062370       0.02828107
O        1.03889366       0.63587072       3.45257200       20      -0.02083001       0.08062370      -0.02828107
O        3.99092305       2.54925416      13.82791494       21      -0.02083001      -0.08062370       0.02828107
O        4.86516512       3.82099559       5.18767147       22       0.02083001       0.08062370       0.02828107
O        1.91313573       5.73437904      12.09281547       23       0.02083001      -0.08062370      -0.02828107
O        4.12988541       3.74044222      10.92116472       24       0.06468723       0.08537848       0.03005513
O        1.17785602       5.81493241       6.35932223       25       0.06468723      -0.08537848      -0.03005513
O        1.77417337       0.55531734      14.99956570       26      -0.06468723       0.08537848      -0.03005513
O        4.72620276       2.62980753       2.28092125       27      -0.06468723      -0.08537848       0.03005513
O        1.77417337       2.62980753       6.35932223       28      -0.06468723      -0.08537848      -0.03005513
O        4.72620276       0.55531734      10.92116472       29      -0.06468723       0.08537848       0.03005513
O        4.12988541       5.81493241       2.28092125       30       0.06468723      -0.08537848       0.03005513
O        1.17785602       3.74044222      14.99956570       31       0.06468723       0.08537848      -0.03005513
O        3.73260855       4.26338010      16.51391899       32      -0.04903065      -0.06200648      -0.03621428
O        0.78057916       5.29199453       0.76656795       33      -0.04903065       0.06200648       0.03621428
O        2.17145023       1.07825522       9.40681142       34       0.04903065      -0.06200648       0.03621428
O        5.12347962       2.10686965       7.87367552       35       0.04903065       0.06200648      -0.03621428
O        2.17145023       2.10686965       0.76656795       36       0.04903065       0.06200648       0.03621428
O        5.12347962       1.07825522      16.51391899       37       0.04903065      -0.06200648      -0.03621428
O        3.73260855       5.29199453       7.87367552       38      -0.04903065       0.06200648      -0.03621428
O        0.78057916       4.26338010       9.40681142       39      -0.04903065      -0.06200648       0.03621428
40
Lattice="5.885092002450053 -2.8320422855392513e-42 0.0 3.043752586020809e-42 6.385182657621051 0.0 0.0 0.0 17.295635589457177" Properties=species:S:1:pos:R:3:spacegroup_kinds:I:1:forces:R:3 spacegroup="P 1" unit_cell=conventional occupancy="_JSON {\"0\": {\"In\": 1}, \"1\": {\"In\": 1}, \"2\": {\"In\": 1}, \"3\": {\"In\": 1}, \"4\": {\"In\": 1}, \"5\": {\"In\": 1}, \"6\": {\"In\": 1}, \"7\": {\"In\": 1}, \"8\": {\"In\": 1}, \"9\": {\"In\": 1}, \"10\": {\"In\": 1}, \"11\": {\"In\": 1}, \"12\": {\"In\": 1}, \"13\": {\"In\": 1}, \"14\": {\"In\": 1}, \"15\": {\"In\": 1}, \"16\": {\"O\": 1}, \"17\": {\"O\": 1}, \"18\": {\"O\": 1}, \"19\": {\"O\": 1}, \"20\": {\"O\": 1}, \"21\": {\"O\": 1}, \"22\": {\"O\": 1}, \"23\": {\"O\": 1}, \"24\": {\"O\": 1}, \"25\": {\"O\": 1}, \"26\": {\"O\": 1}, \"27\": {\"O\": 1}, \"28\": {\"O\": 1}, \"29\": {\"O\": 1}, \"30\": {\"O\": 1}, \"31\": {\"O\": 1}, \"32\": {\"O\": 1}, \"33\": {\"O\": 1}, \"34\": {\"O\": 1}, \"35\": {\"O\": 1}, \"36\": {\"O\": 1}, \"37\": {\"O\": 1}, \"38\": {\"O\": 1}, \"39\": {\"O\": 1}}" n_minim_iter=2 energy=-45144.5900234546 stress="0.0771911087856455 3.2595649043212495e-13 1.279522930051861e-13 3.2595649043212495e-13 0.07734922957015986 1.2263644256064175e-13 1.279522930051861e-13 1.2263644256064175e-13 0.07764995393262158" free_energy=-45144.5900234546 pbc="T T T"
In       2.68871769       5.34999808       9.99922019        0       0.06099589       0.11310226       0.03572508
In      -0.25382831       4.22777591       7.29641540        1       0.06099589      -0.11310226      -0.03572508
In       3.19637431       2.15740675      15.94423319        2      -0.06099589       0.11310226      -0.03572508
In       6.13892031       1.03518458       1.35140240        3      -0.06099589      -0.11310226       0.03572508
In       3.19637431       1.03518458       7.29641540        4      -0.06099589      -0.11310226      -0.03572508
In       6.13892031       2.15740675       9.99922019        5      -0.06099589       0.11310226       0.03572508
In       2.68871769       4.22777591       1.35140240        6       0.06099589      -0.11310226       0.03572508
In      -0.25382831       5.34999808      15.94423319        7       0.06099589       0.11310226      -0.03572508
In       2.69183691       5.09808574      14.07733536        8      -0.02486614      -0.00184605       0.00809621
In       5.63438291       4.47968825       3.21830023        9      -0.02486614       0.00184605      -0.00809621
In       3.19325509       1.90549441      11.86611802       10       0.02486614      -0.00184605      -0.00809621
In       0.25070909       1.28709692       5.42951757       11       0.02486614       0.00184605       0.00809621
In       3.19325509       1.28709692       3.21830023       12       0.02486614       0.00184605      -0.00809621
In       0.25070909       1.90549441      14.07733536       13       0.02486614      -0.00184605       0.00809621
In       2.69183691       4.47968825       5.42951757       14      -0.02486614       0.00184605       0.00809621
In       5.63438291       5.09808574      11.86611802       15      -0.02486614      -0.00184605      -0.00809621
O        4.84956952       5.74769007      13.84008293       16       0.02596530      -0.08549820       0.02305784
O        1.90702352       3.83008392       3.45555265       17       0.02596530       0.08549820      -0.02305784
O        1.03552248       2.55509874      12.10337045       18      -0.02596530      -0.08549820      -0.02305784
O        3.97806848       0.63749259       5.19226514       19      -0.02596530       0.08549820       0.02305784
O        1.03552248       0.63749259       3.45555265       20      -0.02596530       0.08549820      -0.02305784
O        3.97806848       2.55509874      13.84008293       21      -0.02596530      -0.08549820       0.02305784
O        4.84956952       3.83008392       5.19226514       22       0.02596530       0.08549820       0.02305784
O        1.90702352       5.74769007      12.10337045       23       0.02596530      -0.08549820      -0.02305784
O        4.11672291       3.74934945      10.93078744       24       0.06231309       0.07633906       0.04910203
O        1.17417691       5.82842453       6.36484815       25       0.06231309      -0.07633906      -0.04910203
O        1.76836909       0.55675813      15.01266594       26      -0.06231309       0.07633906      -0.04910203
O        4.71091509       2.63583320       2.28296965       27      -0.06231309      -0.07633906       0.04910203
O        1.76836909       2.63583320       6.36484815       28      -0.06231309      -0.07633906      -0.04910203
O        4.71091509       0.55675813      10.93078744       29      -0.06231309       0.07633906       0.04910203
O        4.11672291       5.82842453       2.28296965       30       0.06231309      -0.07633906       0.04910203
O        1.17417691       3.74934945      15.01266594       31       0.06231309       0.07633906      -0.04910203
O        3.72053815       4.27327319      16.52833675       32      -0.04247943      -0.07182943      -0.02249640
O        0.77799215       5.30450080       0.76729884       33      -0.04247943       0.07182943       0.02249640
O        2.16455385       1.08068186       9.41511663       34       0.04247943      -0.07182943       0.02249640
O        5.10709985       2.11190947       7.88051896       35       0.04247943       0.07182943      -0.02249640
O        2.16455385       2.11190947       0.76729884       36       0.04247943       0.07182943       0.02249640
O        5.10709985       1.08068186      16.52833675       37       0.04247943      -0.07182943      -0.02249640
O        3.72053815       5.30450080       7.88051896       38      -0.04247943       0.07182943      -0.02249640
O        0.77799215       4.27327319       9.41511663       39      -0.04247943      -0.07182943       0.02249640
40
Lattice="5.886460659658839 -2.776130900841127e-42 0.0 3.0187812945780557e-42 6.395858522653342 0.0 0.0 0.0 17.262751305662466" Properties=species:S:1:pos:R:3:spacegroup_kinds:I:1:forces:R:3 spacegroup="P 1" unit_cell=conventional occupancy="_JSON {\"0\": {\"In\": 1}, \"1\": {\"In\": 1}, \"2\": {\"In\": 1}, \"3\": {\"In\": 1}, \"4\": {\"In\": 1}, \"5\": {\"In\": 1}, \"6\": {\"In\": 1}, \"7\": {\"In\": 1}, \"8\": {\"In\": 1}, \"9\": {\"In\": 1}, \"10\": {\"In\": 1}, \"11\": {\"In\": 1}, \"12\": {\"In\": 1}, \"13\": {\"In\": 1}, \"14\": {\"In\": 1}, \"15\": {\"In\": 1}, \"16\": {\"O\": 1}, \"17\": {\"O\": 1}, \"18\": {\"O\": 1}, \"19\": {\"O\": 1}, \"20\": {\"O\": 1}, \"21\": {\"O\": 1}, \"22\": {\"O\": 1}, \"23\": {\"O\": 1}, \"24\": {\"O\": 1}, \"25\": {\"O\": 1}, \"26\": {\"O\": 1}, \"27\": {\"O\": 1}, \"28\": {\"O\": 1}, \"29\": {\"O\": 1}, \"30\": {\"O\": 1}, \"31\": {\"O\": 1}, \"32\": {\"O\": 1}, \"33\": {\"O\": 1}, \"34\": {\"O\": 1}, \"35\": {\"O\": 1}, \"36\": {\"O\": 1}, \"37\": {\"O\": 1}, \"38\": {\"O\": 1}, \"39\": {\"O\": 1}}" n_minim_iter=3 energy=-45144.59425906876 stress="0.07706427140701504 -2.0574992398088328e-13 -2.1101239214245197e-13 -2.0574992398088328e-13 0.07795891351152372 -1.4179854685759094e-13 -2.1101239214245197e-13 -1.4179854685759094e-13 0.07568410944236999" free_energy=-45144.59425906876 pbc="T T T"
In       2.69025513       5.36065358       9.98076531        0       0.05143114       0.09758174       0.03745042
In      -0.25297520       4.23313420       7.28198600        1       0.05143114      -0.09758174      -0.03745042
In       3.19620553       2.16272432      15.91336165        2      -0.05143114       0.09758174      -0.03745042
In       6.13943586       1.03520494       1.34938966        3      -0.05143114      -0.09758174       0.03745042
In       3.19620553       1.03520494       7.28198600        4      -0.05143114      -0.09758174      -0.03745042
In       6.13943586       2.16272432       9.98076531        5      -0.05143114       0.09758174       0.03745042
In       2.69025513       4.23313420       1.34938966        6       0.05143114      -0.09758174       0.03745042
In      -0.25297520       5.36065358      15.91336165        7       0.05143114       0.09758174      -0.03745042
In       2.69210145       5.10658606      14.05068742        8      -0.01103405       0.00505721       0.01540018
In       5.63533178       4.48720173       3.21206388        9      -0.01103405      -0.00505721      -0.01540018
In       3.19435921       1.90865680      11.84343954       10       0.01103405       0.00505721      -0.01540018
In       0.25112888       1.28927247       5.41931177       11       0.01103405      -0.00505721       0.01540018
In       3.19435921       1.28927247       3.21206388       12       0.01103405      -0.00505721      -0.01540018
In       0.25112888       1.90865680      14.05068742       13       0.01103405       0.00505721       0.01540018
In       2.69210145       4.48720173       5.41931177       14      -0.01103405      -0.00505721       0.01540018
In       5.63533178       5.10658606      11.84343954       15      -0.01103405       0.00505721      -0.01540018
O        4.85108549       5.75599592      13.81412373       16       0.01815890      -0.08417415       0.02857880
O        1.90785516       3.83779187       3.44862757       17       0.01815890       0.08417415      -0.02857880
O        1.03537517       2.55806665      12.08000323       18      -0.01815890      -0.08417415      -0.02857880
O        3.97860550       0.63986261       5.18274808       19      -0.01815890       0.08417415       0.02857880
O        1.03537517       0.63986261       3.44862757       20      -0.01815890       0.08417415      -0.02857880
O        3.97860550       2.55806665      13.81412373       21      -0.01815890      -0.08417415       0.02857880
O        4.85108549       3.83779187       5.18274808       22       0.01815890       0.08417415       0.02857880
O        1.90785516       5.75599592      12.08000323       23       0.01815890      -0.08417415      -0.02857880
O        4.11862425       3.75679416      10.91073504       24       0.05093409       0.07401009       0.04864356
O        1.17539392       5.83699362       6.35201627       25       0.05093409      -0.07401009      -0.04864356
O        1.76783641       0.55886490      14.98339192       26      -0.05093409       0.07401009      -0.04864356
O        4.71106674       2.63906436       2.27935939       27      -0.05093409      -0.07401009       0.04864356
O        1.76783641       2.63906436       6.35201627       28      -0.05093409      -0.07401009      -0.04864356
O        4.71106674       0.55886490      10.91073504       29      -0.05093409       0.07401009       0.04864356
O        4.11862425       5.83699362       2.27935939       30       0.05093409      -0.07401009       0.04864356
O        1.17539392       3.75679416      14.98339192       31       0.05093409       0.07401009      -0.04864356
O        3.72075573       4.27932724      16.49655763       32      -0.02730654      -0.06676820      -0.02224318
O        0.77752540       5.31446055       0.76619368       33      -0.02730654       0.06676820       0.02224318
O        2.16570493       1.08139798       9.39756933       34       0.02730654      -0.06676820       0.02224318
O        5.10893526       2.11653128       7.86518198       35       0.02730654       0.06676820      -0.02224318
O        2.16570493       2.11653128       0.76619368       36       0.02730654       0.06676820       0.02224318
O        5.10893526       1.08139798      16.49655763       37       0.02730654      -0.06676820      -0.02224318
O        3.72075573       5.31446055       7.86518198       38      -0.02730654       0.06676820      -0.02224318
O        0.77752540       4.27932724       9.39756933       39      -0.02730654      -0.06676820       0.02224318
40
Lattice="5.879434503515291 -2.7387602142049183e-42 0.0 3.008996507546448e-42 6.3938125885063855 0.0 0.0 0.0 17.28891142415712" Properties=species:S:1:pos:R:3:spacegroup_kinds:I:1:forces:R:3 spacegroup="P 1" unit_cell=conventional occupancy="_JSON {\"0\": {\"In\": 1}, \"1\": {\"In\": 1}, \"2\": {\"In\": 1}, \"3\": {\"In\": 1}, \"4\": {\"In\": 1}, \"5\": {\"In\": 1}, \"6\": {\"In\": 1}, \"7\": {\"In\": 1}, \"8\": {\"In\": 1}, \"9\": {\"In\": 1}, \"10\": {\"In\": 1}, \"11\": {\"In\": 1}, \"12\": {\"In\": 1}, \"13\": {\"In\": 1}, \"14\": {\"In\": 1}, \"15\": {\"In\": 1}, \"16\": {\"O\": 1}, \"17\": {\"O\": 1}, \"18\": {\"O\": 1}, \"19\": {\"O\": 1}, \"20\": {\"O\": 1}, \"21\": {\"O\": 1}, \"22\": {\"O\": 1}, \"23\": {\"O\": 1}, \"24\": {\"O\": 1}, \"25\": {\"O\": 1}, \"26\": {\"O\": 1}, \"27\": {\"O\": 1}, \"28\": {\"O\": 1}, \"29\": {\"O\": 1}, \"30\": {\"O\": 1}, \"31\": {\"O\": 1}, \"32\": {\"O\": 1}, \"33\": {\"O\": 1}, \"34\": {\"O\": 1}, \"35\": {\"O\": 1}, \"36\": {\"O\": 1}, \"37\": {\"O\": 1}, \"38\": {\"O\": 1}, \"39\": {\"O\": 1}}" n_minim_iter=4 energy=-45144.61165617068 stress="0.07402324987347027 -2.521948162843468e-13 -2.4859454429716165e-13 -2.521948162843468e-13 0.07404805065992646 4.02596366454645e-15 -2.4859454429716165e-13 4.02596366454645e-15 0.07463719615407419" free_energy=-45144.61165617068 pbc="T T T"
In       2.69270879       5.36960567       9.99945663        0      -0.00492888      -0.01224529      -0.00374251
In      -0.24700847       4.22111322       7.28945480        1      -0.00492888       0.01224529       0.00374251
In       3.18672572       2.17269937      15.93391051        2       0.00492888      -0.01224529       0.00374251
In       6.12644297       1.02420692       1.35500092        3       0.00492888       0.01224529      -0.00374251
In       3.18672572       1.02420692       7.28945480        4       0.00492888       0.01224529       0.00374251
In       6.12644297       2.17269937       9.99945663        5       0.00492888      -0.01224529      -0.00374251
In       2.69270879       4.22111322       1.35500092        6      -0.00492888       0.01224529      -0.00374251
In      -0.24700847       5.36960567      15.93391051        7      -0.00492888      -0.01224529       0.00374251
In       2.68678332       5.10490161      14.07283641        8       0.04238848       0.04151458      -0.02314172
In       5.62650057       4.48581727       3.21607501        9       0.04238848      -0.04151458       0.02314172
In       3.19265118       1.90799532      11.86053072       10      -0.04238848       0.04151458       0.02314172
In       0.25293393       1.28891098       5.42838070       11      -0.04238848      -0.04151458      -0.02314172
In       3.19265118       1.28891098       3.21607501       12      -0.04238848      -0.04151458       0.02314172
In       0.25293393       1.90799532      14.07283641       13      -0.04238848       0.04151458      -0.02314172
In       2.68678332       4.48581727       5.42838070       14       0.04238848      -0.04151458      -0.02314172
In       5.62650057       5.10490161      11.86053072       15       0.04238848       0.04151458       0.02314172
O        4.84765180       5.74587275      13.83739819       16       0.00514409      -0.06898154       0.00502616
O        1.90793455       3.84484614       3.45151323       17       0.00514409       0.06898154      -0.00502616
O        1.03178270       2.54896645      12.09596894       18      -0.00514409      -0.06898154      -0.00502616
O        3.97149995       0.64793984       5.19294248       19      -0.00514409       0.06898154       0.00502616
O        1.03178270       0.64793984       3.45151323       20      -0.00514409       0.06898154      -0.00502616
O        3.97149995       2.54896645      13.83739819       21      -0.00514409      -0.06898154       0.00502616
O        4.84765180       3.84484614       5.19294248       22       0.00514409       0.06898154       0.00502616
O        1.90793455       5.74587275      12.09596894       23       0.00514409      -0.06898154      -0.00502616
O        4.11954368       3.76303812      10.93192369       24      -0.00627653       0.02380599       0.04220485
O        1.17982643       5.82768077       6.35698774       25      -0.00627653      -0.02380599      -0.04220485
O        1.75989082       0.56613182      15.00144345       26       0.00627653       0.02380599      -0.04220485
O        4.69960807       2.63077447       2.28746798       27       0.00627653      -0.02380599       0.04220485
O        1.75989082       2.63077447       6.35698774       28       0.00627653      -0.02380599      -0.04220485
O        4.69960807       0.56613182      10.93192369       29       0.00627653       0.02380599       0.04220485
O        4.11954368       5.82768077       2.28746798       30      -0.00627653      -0.02380599       0.04220485
O        1.17982643       3.76303812      15.00144345       31      -0.00627653       0.02380599      -0.04220485
O        3.71241866       4.27108727      16.51931159       32       0.05494287       0.03528021       0.00254949
O        0.77270141       5.31963161       0.76959983       33       0.05494287      -0.03528021      -0.00254949
O        2.16701584       1.07418097       9.41405555       34      -0.05494287       0.03528021      -0.00254949
O        5.10673309       2.12272532       7.87485588       35      -0.05494287      -0.03528021       0.00254949
O        2.16701584       2.12272532       0.76959983       36      -0.05494287      -0.03528021      -0.00254949
O        5.10673309       1.07418097      16.51931159       37      -0.05494287       0.03528021       0.00254949
O        3.71241866       5.31963161       7.87485588       38       0.05494287      -0.03528021       0.00254949
O        0.77270141       4.27108727       9.41405555       39       0.05494287       0.03528021      -0.00254949
40
Lattice="5.883468458130386 -2.5440124351026796e-42 0.0 3.4398962575339554e-42 6.406650156420406 0.0 0.0 0.0 17.242437857645374" Properties=species:S:1:pos:R:3:spacegroup_kinds:I:1:forces:R:3 spacegroup="P 1" unit_cell=conventional occupancy="_JSON {\"0\": {\"In\": 1}, \"1\": {\"In\": 1}, \"2\": {\"In\": 1}, \"3\": {\"In\": 1}, \"4\": {\"In\": 1}, \"5\": {\"In\": 1}, \"6\": {\"In\": 1}, \"7\": {\"In\": 1}, \"8\": {\"In\": 1}, \"9\": {\"In\": 1}, \"10\": {\"In\": 1}, \"11\": {\"In\": 1}, \"12\": {\"In\": 1}, \"13\": {\"In\": 1}, \"14\": {\"In\": 1}, \"15\": {\"In\": 1}, \"16\": {\"O\": 1}, \"17\": {\"O\": 1}, \"18\": {\"O\": 1}, \"19\": {\"O\": 1}, \"20\": {\"O\": 1}, \"21\": {\"O\": 1}, \"22\": {\"O\": 1}, \"23\": {\"O\": 1}, \"24\": {\"O\": 1}, \"25\": {\"O\": 1}, \"26\": {\"O\": 1}, \"27\": {\"O\": 1}, \"28\": {\"O\": 1}, \"29\": {\"O\": 1}, \"30\": {\"O\": 1}, \"31\": {\"O\": 1}, \"32\": {\"O\": 1}, \"33\": {\"O\": 1}, \"34\": {\"O\": 1}, \"35\": {\"O\": 1}, \"36\": {\"O\": 1}, \"37\": {\"O\": 1}, \"38\": {\"O\": 1}, \"39\": {\"O\": 1}}" n_minim_iter=5 energy=-45144.61697727008 stress="0.07364662514586799 -2.577186441033639e-13 6.172375580763028e-14 -2.577186441033639e-13 0.07370929561670507 4.847948328388559e-14 6.172375580763028e-14 4.847948328388559e-14 0.07123463895358814" free_energy=-45144.61697727008 pbc="T T T"
In       2.69708813       5.38496978       9.97427680        0      -0.00785978      -0.04444848      -0.00691181
In      -0.24464610       4.22500545       7.26816106        1      -0.00785978       0.04444848       0.00691181
In       3.18638033       2.18164471      15.88937999        2       0.00785978      -0.04444848       0.00691181
In       6.12811455       1.02168037       1.35305787        3       0.00785978       0.04444848      -0.00691181
In       3.18638033       1.02168037       7.26816106        4       0.00785978       0.04444848       0.00691181
In       6.12811455       2.18164471       9.97427680        5       0.00785978      -0.04444848      -0.00691181
In       2.69708813       4.22500545       1.35305787        6      -0.00785978       0.04444848      -0.00691181
In      -0.24464610       5.38496978      15.88937999        7      -0.00785978      -0.04444848       0.00691181
In       2.69063426       5.11812663      14.03394860        8       0.04835228       0.04042619      -0.00749911
In       5.63236849       4.49184861       3.20848926        9       0.04835228      -0.04042619       0.00749911
In       3.19283419       1.91480155      11.82970819       10      -0.04835228       0.04042619       0.00749911
In       0.25109996       1.28852353       5.41272967       11      -0.04835228      -0.04042619      -0.00749911
In       3.19283419       1.28852353       3.20848926       12      -0.04835228      -0.04042619       0.00749911
In       0.25109996       1.91480155      14.03394860       13      -0.04835228       0.04042619      -0.00749911
In       2.69063426       4.49184861       5.41272967       14       0.04835228      -0.04042619      -0.00749911
In       5.63236849       5.11812663      11.82970819       15       0.04835228       0.04042619       0.00749911
O        4.85247276       5.74819827      13.80188015       16      -0.00675164      -0.03997280       0.01164684
O        1.91073853       3.86177697       3.44055771       17      -0.00675164       0.03997280      -0.01164684
O        1.03099570       2.54487319      12.06177664       18       0.00675164      -0.03997280      -0.01164684
O        3.97272993       0.65845189       5.18066122       19       0.00675164       0.03997280       0.01164684
O        1.03099570       0.65845189       3.44055771       20       0.00675164       0.03997280      -0.01164684
O        3.97272993       2.54487319      13.80188015       21       0.00675164      -0.03997280       0.01164684
O        4.85247276       3.86177697       5.18066122       22      -0.00675164       0.03997280       0.01164684
O        1.91073853       5.74819827      12.06177664       23      -0.00675164      -0.03997280      -0.01164684
O        4.12490975       3.77622594      10.90787338       24      -0.01283136       0.00519841       0.01814777
O        1.18317552       5.83374930       6.33456448       25      -0.01283136      -0.00519841      -0.01814777
O        1.75855871       0.57290086      14.95578341       26       0.01283136       0.00519841      -0.01814777
O        4.70029294       2.63042422       2.28665445       27       0.01283136      -0.00519841       0.01814777
O        1.75855871       2.63042422       6.33456448       28       0.01283136      -0.00519841      -0.01814777
O        4.70029294       0.57290086      10.90787338       29       0.01283136       0.00519841       0.01814777
O        4.12490975       5.83374930       2.28665445       30      -0.01283136      -0.00519841       0.01814777
O        1.18317552       3.77622594      14.95578341       31      -0.01283136       0.00519841      -0.01814777
O        3.71683992       4.27854152      16.47385950       32       0.05600855       0.03985006       0.00539108
O        0.77510569       5.33143372       0.76857836       33       0.05600855      -0.03985006      -0.00539108
O        2.16662854       1.07521644       9.38979729       34      -0.05600855       0.03985006      -0.00539108
O        5.10836277       2.12810864       7.85264057       35      -0.05600855      -0.03985006       0.00539108
O        2.16662854       2.12810864       0.76857836       36      -0.05600855      -0.03985006      -0.00539108
O        5.10836277       1.07521644      16.47385950       37      -0.05600855       0.03985006       0.00539108
O        3.71683992       5.33143372       7.85264057       38       0.05600855      -0.03985006       0.00539108
O        0.77510569       4.27854152       9.38979729       39       0.05600855       0.03985006      -0.00539108
40