40
Lattice="6.03100521291376 -8.706665371594464e-18 3.2525364020514e-16 -2.9400813466266657e-16 4.028309896501362 7.222675134423518e-16 2.4959282526614196e-16 -8.027550761888183e-16 16.58602137425654" Properties=species:S:1:pos:R:3:spacegroup_kinds:I:1:forces:R:3 spacegroup="P 1" unit_cell=conventional occupancy="_JSON {\"0\": {\"In\": 1}, \"1\": {\"In\": 1}, \"2\": {\"In\": 1}, \"3\": {\"In\": 1}, \"4\": {\"In\": 1}, \"5\": {\"In\": 1}, \"6\": {\"In\": 1}, \"7\": {\"In\": 1}, \"8\": {\"In\": 1}, \"9\": {\"In\": 1}, \"10\": {\"In\": 1}, \"11\": {\"In\": 1}, \"12\": {\"In\": 1}, \"13\": {\"In\": 1}, \"14\": {\"In\": 1}, \"15\": {\"In\": 1}, \"16\": {\"O\": 1}, \"17\": {\"O\": 1}, \"18\": {\"O\": 1}, \"19\": {\"O\": 1}, \"20\": {\"O\": 1}, \"21\": {\"O\": 1}, \"22\": {\"O\": 1}, \"23\": {\"O\": 1}, \"24\": {\"O\": 1}, \"25\": {\"O\": 1}, \"26\": {\"O\": 1}, \"27\": {\"O\": 1}, \"28\": {\"O\": 1}, \"29\": {\"O\": 1}, \"30\": {\"O\": 1}, \"31\": {\"O\": 1}, \"32\": {\"O\": 1}, \"33\": {\"O\": 1}, \"34\": {\"O\": 1}, \"35\": {\"O\": 1}, \"36\": {\"O\": 1}, \"37\": {\"O\": 1}, \"38\": {\"O\": 1}, \"39\": {\"O\": 1}}" n_minim_iter=9 energy=-45144.93931660111 stress="-0.17672932484975476 -1.4814743794800988e-13 5.037386414826476e-13 -1.4814743794800988e-13 -0.17664818299974006 1.7805039159720014e-13 5.037386414826476e-13 1.7805039159720014e-13 -0.17675130744813242" free_energy=-45144.93931660111 pbc="T T T"
In       2.86778614       3.02149710       9.39468019        0      -0.00295170      -0.00000000      -0.00071525
In      -0.14771647       3.02149710       7.19215680        1      -0.00295170       0.00000000       0.00071525
In       3.16328541       1.00734215      15.48516749        2       0.00295170       0.00000000       0.00071525
In       6.17878802       1.00734215       1.10166950        3       0.00295170      -0.00000000      -0.00071525
In       3.16328541       1.00734215       7.19215680        4       0.00295170       0.00000000       0.00071525
In       6.17878802       1.00734215       9.39468019        5       0.00295170      -0.00000000      -0.00071525
In       2.86778614       3.02149710       1.10166950        6      -0.00295170      -0.00000000      -0.00071525
In      -0.14771647       3.02149710      15.48516749        7      -0.00295170      -0.00000000       0.00071525
In       3.16328541       3.02149710      13.54118553        8       0.00295170      -0.00000000      -0.00071525
In       6.17878802       3.02149710       3.04565146        9       0.00295170       0.00000000       0.00071525
In       2.86778614       1.00734215      11.33866214       10      -0.00295170       0.00000000       0.00071525
In      -0.14771647       1.00734215       5.24817485       11      -0.00295170       0.00000000      -0.00071525
In       2.86778614       1.00734215       3.04565146       12      -0.00295170      -0.00000000       0.00071525
In      -0.14771647       1.00734215      13.54118553       13      -0.00295170       0.00000000      -0.00071525
In       3.16328541       3.02149710       5.24817485       14       0.00295170      -0.00000000      -0.00071525
In       6.17878802       3.02149710      11.33866214       15       0.00295170      -0.00000000       0.00071525
O        5.25534988       3.02149710      13.22190501       16      -0.00059211       0.00000000       0.00081213
O        2.23984727       3.02149710       3.36493198       17      -0.00059211       0.00000000      -0.00081213
O        0.77572167       1.00734215      11.65794267       18       0.00059211      -0.00000000      -0.00081213
O        3.79122428       1.00734215       4.92889432       19       0.00059211       0.00000000       0.00081213
O        0.77572167       1.00734215       3.36493198       20       0.00059211      -0.00000000      -0.00081213
O        3.79122428       1.00734215      13.22190501       21       0.00059211      -0.00000000       0.00081213
O        5.25534988       3.02149710       4.92889432       22      -0.00059211      -0.00000000       0.00081213
O        2.23984727       3.02149710      11.65794267       23      -0.00059211       0.00000000      -0.00081213
O        4.52328708       2.01441962      10.36667117       24      -0.00000000       0.00000000      -0.00000000
O        1.50778447       4.02857457       6.22016582       25      -0.00000000       0.00000000       0.00000000
O        1.50778447       0.00026467      14.51317651       26       0.00000000      -0.00000000       0.00000000
O        4.52328708       2.01441962       2.07366048       27      -0.00000000      -0.00000000       0.00000000
O        1.50778447       2.01441962       6.22016582       28       0.00000000       0.00000000      -0.00000000
O        4.52328708       0.00026467      10.36667117       29       0.00000000       0.00000000      -0.00000000
O        4.52328708       4.02857457       2.07366048       30       0.00000000       0.00000000       0.00000000
O        1.50778447       2.01441962      14.51317651       31      -0.00000000       0.00000000       0.00000000
O        3.79122428       3.02149710      15.80444801       32       0.00059211       0.00000000      -0.00081213
O        0.77572167       3.02149710       0.78238898       33       0.00059211      -0.00000000       0.00081213
O        2.23984727       1.00734215       9.07539966       34      -0.00059211       0.00000000       0.00081213
O        5.25534988       1.00734215       7.51143733       35      -0.00059211       0.00000000      -0.00081213
O        2.23984727       1.00734215       0.78238898       36      -0.00059211      -0.00000000       0.00081213
O        5.25534988       1.00734215      15.80444801       37      -0.00059211       0.00000000      -0.00081213
O        3.79122428       3.02149710       7.51143733       38       0.00059211       0.00000000      -0.00081213
O        0.77572167       3.02149710       9.07539966       39       0.00059211      -0.00000000       0.00081213
