40
Lattice="5.533429105913164 1.0906162514147647e-42 0.0 -1.12867149513834e-42 5.726508929342796 0.0 0.0 0.0 15.998284610711496" Properties=species:S:1:pos:R:3:spacegroup_kinds:I:1:forces:R:3 spacegroup="P 1" unit_cell=conventional occupancy="_JSON {\"0\": {\"In\": 1}, \"1\": {\"In\": 1}, \"2\": {\"In\": 1}, \"3\": {\"In\": 1}, \"4\": {\"In\": 1}, \"5\": {\"In\": 1}, \"6\": {\"In\": 1}, \"7\": {\"In\": 1}, \"8\": {\"In\": 1}, \"9\": {\"In\": 1}, \"10\": {\"In\": 1}, \"11\": {\"In\": 1}, \"12\": {\"In\": 1}, \"13\": {\"In\": 1}, \"14\": {\"In\": 1}, \"15\": {\"In\": 1}, \"16\": {\"O\": 1}, \"17\": {\"O\": 1}, \"18\": {\"O\": 1}, \"19\": {\"O\": 1}, \"20\": {\"O\": 1}, \"21\": {\"O\": 1}, \"22\": {\"O\": 1}, \"23\": {\"O\": 1}, \"24\": {\"O\": 1}, \"25\": {\"O\": 1}, \"26\": {\"O\": 1}, \"27\": {\"O\": 1}, \"28\": {\"O\": 1}, \"29\": {\"O\": 1}, \"30\": {\"O\": 1}, \"31\": {\"O\": 1}, \"32\": {\"O\": 1}, \"33\": {\"O\": 1}, \"34\": {\"O\": 1}, \"35\": {\"O\": 1}, \"36\": {\"O\": 1}, \"37\": {\"O\": 1}, \"38\": {\"O\": 1}, \"39\": {\"O\": 1}}" n_minim_iter=1 energy=-45150.15512855435 stress="-0.022344659079534306 5.986699845838451e-15 1.1818607496365278e-13 5.986699845838451e-15 -0.022758572065083495 3.3893314853738824e-14 1.1818607496365278e-13 3.3893314853738824e-14 -0.02011439065006429" free_energy=-45150.15512855435 pbc="T T T"
In       2.76142162       4.57474385       9.13178125        0       0.01173667       0.07381536       0.02641512
In      -0.00529293       4.01501954       6.86650336        1       0.01173667      -0.07381536      -0.02641512
In       2.77200749       1.71148939      14.86564566        2      -0.01173667       0.07381536      -0.02641512
In       5.53872204       1.15176508       1.13263895        3      -0.01173667      -0.07381536       0.02641512
In       2.77200749       1.15176508       6.86650336        4      -0.01173667      -0.07381536      -0.02641512
In       5.53872204       1.71148939       9.13178125        5      -0.01173667       0.07381536       0.02641512
In       2.76142162       4.01501954       1.13263895        6       0.01173667      -0.07381536       0.02641512
In      -0.00529293       4.57474385      14.86564566        7       0.01173667       0.07381536      -0.02641512
In       2.75187259       4.27751461      13.09172280        8       0.04633959      -0.04135061       0.02487273
In       5.51858714       4.31224878       2.90656181        9       0.04633959       0.04135061      -0.02487273
In       2.78155652       1.41426015      10.90570412       10      -0.04633959      -0.04135061      -0.02487273
In       0.01484196       1.44899432       5.09258049       11      -0.04633959       0.04135061       0.02487273
In       2.78155652       1.44899432       2.90656181       12      -0.04633959       0.04135061      -0.02487273
In       0.01484196       1.41426015      13.09172280       13      -0.04633959      -0.04135061       0.02487273
In       2.75187259       4.31224878       5.09258049       14       0.04633959       0.04135061       0.02487273
In       5.51858714       4.27751461      10.90570412       15       0.04633959      -0.04135061      -0.02487273
O        4.75414082       5.04522967      12.76895320       16       0.01944712       0.04077984       0.01679120
O        1.98742627       3.54453372       3.22933141       17       0.01944712      -0.04077984      -0.01679120
O        0.77928829       2.18197521      11.22847372       18      -0.01944712       0.04077984      -0.01679120
O        3.54600284       0.68127926       4.76981090       19      -0.01944712      -0.04077984       0.01679120
O        0.77928829       0.68127926       3.22933141       20      -0.01944712      -0.04077984      -0.01679120
O        3.54600284       2.18197521      12.76895320       21      -0.01944712       0.04077984       0.01679120
O        4.75414082       3.54453372       4.76981090       22       0.01944712      -0.04077984       0.01679120
O        1.98742627       5.04522967      11.22847372       23       0.01944712       0.04077984      -0.01679120
O        3.90894664       3.01868303       9.98987379       24       0.06508034      -0.02579208       0.03296850
O        1.14223208       5.57108036       6.00841082       25       0.06508034       0.02579208      -0.03296850
O        1.62448247       0.15542856      14.00755313       26      -0.06508034      -0.02579208      -0.03296850
O        4.39119702       2.70782590       1.99073148       27      -0.06508034       0.02579208       0.03296850
O        1.62448247       2.70782590       6.00841082       28      -0.06508034       0.02579208      -0.03296850
O        4.39119702       0.15542856       9.98987379       29      -0.06508034      -0.02579208       0.03296850
O        3.90894664       5.57108036       1.99073148       30       0.06508034       0.02579208       0.03296850
O        1.14223208       3.01868303      14.00755313       31       0.06508034      -0.02579208      -0.03296850
O        3.57387458       3.78119307      15.16312744       32      -0.05185883      -0.02364829      -0.05905622
O        0.80716002       4.80857032       0.83515717       33      -0.05185883       0.02364829       0.05905622
O        1.95955453       0.91793861       8.83429947       34       0.05185883      -0.02364829       0.05905622
O        4.72626908       1.94531586       7.16398514       35       0.05185883       0.02364829      -0.05905622
O        1.95955453       1.94531586       0.83515717       36       0.05185883       0.02364829       0.05905622
O        4.72626908       0.91793861      15.16312744       37       0.05185883      -0.02364829      -0.05905622
O        3.57387458       4.80857032       7.16398514       38      -0.05185883       0.02364829      -0.05905622
O        0.80716002       3.78119307       8.83429947       39      -0.05185883      -0.02364829       0.05905622
40
Lattice="5.537462043550798 1.0907623008908362e-42 0.0 -1.1302246208114368e-42 5.7335376344125395 0.0 0.0 0.0 15.967035142879954" Properties=species:S:1:pos:R:3:spacegroup_kinds:I:1:forces:R:3 spacegroup="P 1" unit_cell=conventional occupancy="_JSON {\"0\": {\"In\": 1}, \"1\": {\"In\": 1}, \"2\": {\"In\": 1}, \"3\": {\"In\": 1}, \"4\": {\"In\": 1}, \"5\": {\"In\": 1}, \"6\": {\"In\": 1}, \"7\": {\"In\": 1}, \"8\": {\"In\": 1}, \"9\": {\"In\": 1}, \"10\": {\"In\": 1}, \"11\": {\"In\": 1}, \"12\": {\"In\": 1}, \"13\": {\"In\": 1}, \"14\": {\"In\": 1}, \"15\": {\"In\": 1}, \"16\": {\"O\": 1}, \"17\": {\"O\": 1}, \"18\": {\"O\": 1}, \"19\": {\"O\": 1}, \"20\": {\"O\": 1}, \"21\": {\"O\": 1}, \"22\": {\"O\": 1}, \"23\": {\"O\": 1}, \"24\": {\"O\": 1}, \"25\": {\"O\": 1}, \"26\": {\"O\": 1}, \"27\": {\"O\": 1}, \"28\": {\"O\": 1}, \"29\": {\"O\": 1}, \"30\": {\"O\": 1}, \"31\": {\"O\": 1}, \"32\": {\"O\": 1}, \"33\": {\"O\": 1}, \"34\": {\"O\": 1}, \"35\": {\"O\": 1}, \"36\": {\"O\": 1}, \"37\": {\"O\": 1}, \"38\": {\"O\": 1}, \"39\": {\"O\": 1}}" n_minim_iter=2 energy=-45150.156601034614 stress="-0.02119768884894011 1.5455567073474947e-13 4.023518482230879e-14 1.5455567073474947e-13 -0.02142837580525328 3.920744173493131e-13 4.023518482230879e-14 3.920744173493131e-13 -0.021832387378678153" free_energy=-45150.156601034614 pbc="T T T"
In       2.76346211       4.58053432       9.11400671        0      -0.00335862       0.06370389       0.04524402
In      -0.00526891       4.01977213       6.85302843        1      -0.00335862      -0.06370389      -0.04524402
In       2.77399993       1.71376550      14.83654600        2       0.00335862       0.06370389      -0.04524402
In       5.54273096       1.15300332       1.13048914        3       0.00335862      -0.06370389       0.04524402
In       2.77399993       1.15300332       6.85302843        4       0.00335862      -0.06370389      -0.04524402
In       5.54273096       1.71376550       9.11400671        5       0.00335862       0.06370389       0.04524402
In       2.76346211       4.01977213       1.13048914        6      -0.00335862      -0.06370389       0.04524402
In      -0.00526891       4.58053432      14.83654600        7      -0.00335862       0.06370389      -0.04524402
In       2.75398832       4.28266655      13.06620965        8       0.05738924      -0.04329721       0.03134154
In       5.52271934       4.31763990       2.90082549        9       0.05738924       0.04329721      -0.03134154
In       2.78347373       1.41589773      10.88434307       10      -0.05738924      -0.04329721      -0.03134154
In       0.01474270       1.45087109       5.08269208       11      -0.05738924       0.04329721       0.03134154
In       2.78347373       1.45087109       2.90082549       12      -0.05738924       0.04329721      -0.03134154
In       0.01474270       1.41589773      13.06620965       13      -0.05738924      -0.04329721       0.03134154
In       2.75398832       4.31763990       5.08269208       14       0.05738924       0.04329721       0.03134154
In       5.52271934       4.28266655      10.88434307       15       0.05738924      -0.04329721      -0.03134154
O        4.75765198       5.05151910      12.74405137       16       0.00962287       0.04174492       0.01971243
O        1.98892096       3.54878736       3.22298377       17       0.00962287      -0.04174492      -0.01971243
O        0.77981006       2.18475028      11.20650134       18      -0.00962287       0.04174492      -0.01971243
O        3.54854108       0.68201854       4.76053380       19      -0.00962287      -0.04174492       0.01971243
O        0.77981006       0.68201854       3.22298377       20      -0.00962287      -0.04174492      -0.01971243
O        3.54854108       2.18475028      12.74405137       21      -0.00962287       0.04174492       0.01971243
O        4.75765198       3.54878736       4.76053380       22       0.00962287      -0.04174492       0.01971243
O        1.98892096       5.05151910      11.20650134       23       0.00962287       0.04174492      -0.01971243
O        3.91195020       3.02232686       9.97043866       24       0.05438858      -0.01966964       0.03181973
O        1.14321917       5.57797960       5.99659648       25       0.05438858       0.01966964      -0.03181973
O        1.62551185       0.15555804      13.98011405       26      -0.05438858      -0.01966964      -0.03181973
O        4.39424287       2.71121078       1.98692109       27      -0.05438858       0.01966964       0.03181973
O        1.62551185       2.71121078       5.99659648       28      -0.05438858       0.01966964      -0.03181973
O        4.39424287       0.15555804       9.97043866       29      -0.05438858      -0.01966964       0.03181973
O        3.91195020       5.57797960       1.98692109       30       0.05438858       0.01966964       0.03181973
O        1.14321917       3.02232686      13.98011405       31       0.05438858      -0.01966964      -0.03181973
O        3.57635614       3.78577790      15.13336938       32      -0.03802149      -0.02379249      -0.07249473
O        0.80762512       4.81452855       0.83366577       33      -0.03802149       0.02379249       0.07249473
O        1.96110590       0.91900908       8.81718334       34       0.03802149      -0.02379249       0.07249473
O        4.72983692       1.94775974       7.14985181       35       0.03802149       0.02379249      -0.07249473
O        1.96110590       1.94775974       0.83366577       36       0.03802149       0.02379249       0.07249473
O        4.72983692       0.91900908      15.13336938       37       0.03802149      -0.02379249      -0.07249473
O        3.57635614       4.81452855       7.14985181       38      -0.03802149       0.02379249      -0.07249473
O        0.80762512       3.78577790       8.81718334       39      -0.03802149      -0.02379249       0.07249473
40
Lattice="5.524551187260935 1.0254973036155991e-42 0.0 -1.1166766074653658e-42 5.746733552030275 0.0 0.0 0.0 15.967600111640397" Properties=species:S:1:pos:R:3:spacegroup_kinds:I:1:forces:R:3 spacegroup="P 1" unit_cell=conventional occupancy="_JSON {\"0\": {\"In\": 1}, \"1\": {\"In\": 1}, \"2\": {\"In\": 1}, \"3\": {\"In\": 1}, \"4\": {\"In\": 1}, \"5\": {\"In\": 1}, \"6\": {\"In\": 1}, \"7\": {\"In\": 1}, \"8\": {\"In\": 1}, \"9\": {\"In\": 1}, \"10\": {\"In\": 1}, \"11\": {\"In\": 1}, \"12\": {\"In\": 1}, \"13\": {\"In\": 1}, \"14\": {\"In\": 1}, \"15\": {\"In\": 1}, \"16\": {\"O\": 1}, \"17\": {\"O\": 1}, \"18\": {\"O\": 1}, \"19\": {\"O\": 1}, \"20\": {\"O\": 1}, \"21\": {\"O\": 1}, \"22\": {\"O\": 1}, \"23\": {\"O\": 1}, \"24\": {\"O\": 1}, \"25\": {\"O\": 1}, \"26\": {\"O\": 1}, \"27\": {\"O\": 1}, \"28\": {\"O\": 1}, \"29\": {\"O\": 1}, \"30\": {\"O\": 1}, \"31\": {\"O\": 1}, \"32\": {\"O\": 1}, \"33\": {\"O\": 1}, \"34\": {\"O\": 1}, \"35\": {\"O\": 1}, \"36\": {\"O\": 1}, \"37\": {\"O\": 1}, \"38\": {\"O\": 1}, \"39\": {\"O\": 1}}" n_minim_iter=3 energy=-45150.160353315376 stress="-0.02211924310992548 5.620437158459895e-14 -4.610614092844408e-14 5.620437158459895e-14 -0.01961627725340609 -3.7452133718784e-13 -4.610614092844408e-14 -3.7452133718784e-13 -0.020804200233813335" free_energy=-45150.160353315376 pbc="T T T"
In       2.75699380       4.59336470       9.11578360        0       0.02595008       0.02672187       0.03417676
In      -0.00528179       4.02673563       6.85181651        1       0.02595008      -0.02672187      -0.03417676
In       2.76755738       1.71999792      14.83561657        2      -0.02595008       0.02672187      -0.03417676
In       5.52983298       1.15336885       1.13198354        3      -0.02595008      -0.02672187       0.03417676
In       2.76755738       1.15336885       6.85181651        4      -0.02595008      -0.02672187      -0.03417676
In       5.52983298       1.71999792       9.11578360        5      -0.02595008       0.02672187       0.03417676
In       2.75699380       4.02673563       1.13198354        6       0.02595008      -0.02672187       0.03417676
In      -0.00528179       4.59336470      14.83561657        7       0.02595008       0.02672187      -0.03417676
In       2.74949493       4.29102185      13.06771934        8       0.01652382      -0.02044506       0.00635749
In       5.51177052       4.32907848       2.89988077        9       0.01652382       0.02044506      -0.00635749
In       2.77505626       1.41765508      10.88368083       10      -0.01652382      -0.02044506      -0.00635749
In       0.01278067       1.45571170       5.08391929       11      -0.01652382       0.02044506       0.00635749
In       2.77505626       1.45571170       2.89988077       12      -0.01652382       0.02044506      -0.00635749
In       0.01278067       1.41765508      13.06771934       13      -0.01652382      -0.02044506       0.00635749
In       2.74949493       4.32907848       5.08391929       14       0.01652382       0.02044506       0.00635749
In       5.51177052       4.29102185      10.88368083       15       0.01652382      -0.02044506      -0.00635749
O        4.74695335       5.06459845      12.74516800       16       0.01289328       0.02840902      -0.00920486
O        1.98467776       3.55550188       3.22243211       17       0.01289328      -0.02840902       0.00920486
O        0.77759783       2.19123167      11.20623217       18      -0.01289328       0.02840902       0.00920486
O        3.53987343       0.68213511       4.76136795       19      -0.01289328      -0.02840902      -0.00920486
O        0.77759783       0.68213511       3.22243211       20      -0.01289328      -0.02840902       0.00920486
O        3.53987343       2.19123167      12.74516800       21      -0.01289328       0.02840902      -0.00920486
O        4.74695335       3.55550188       4.76136795       22       0.01289328      -0.02840902      -0.00920486
O        1.98467776       5.06459845      11.20623217       23       0.01289328       0.02840902       0.00920486
O        3.90478456       3.02855804       9.97190159       24       0.00919892       0.00124087       0.01214601
O        1.14250896       5.59154229       5.99569852       25       0.00919892      -0.00124087      -0.01214601
O        1.61976663       0.15519126      13.97949858       26      -0.00919892       0.00124087      -0.01214601
O        4.38204222       2.71817551       1.98810153       27      -0.00919892      -0.00124087       0.01214601
O        1.61976663       2.71817551       5.99569852       28      -0.00919892      -0.00124087      -0.01214601
O        4.38204222       0.15519126       9.97190159       29      -0.00919892       0.00124087       0.01214601
O        3.90478456       5.59154229       1.98810153       30       0.00919892      -0.00124087       0.01214601
O        1.14250896       3.02855804      13.97949858       31       0.00919892       0.00124087      -0.01214601
O        3.56661223       3.79366031      15.13147299       32      -0.02969050      -0.01728774      -0.02520650
O        0.80433663       4.82644002       0.83612712       33      -0.02969050       0.01728774       0.02520650
O        1.95793896       0.92029353       8.81992718       34       0.02969050      -0.01728774       0.02520650
O        4.72021455       1.95307325       7.14767293       35       0.02969050       0.01728774      -0.02520650
O        1.95793896       1.95307325       0.83612712       36       0.02969050       0.01728774       0.02520650
O        4.72021455       0.92029353      15.13147299       37       0.02969050      -0.01728774      -0.02520650
O        3.56661223       4.82644002       7.14767293       38      -0.02969050       0.01728774      -0.02520650
O        0.80433663       3.79366031       8.81992718       39      -0.02969050      -0.01728774       0.02520650
40
Lattice="5.534021648266213 1.0207650568755094e-42 0.0 -1.1177390218311438e-42 5.737724791430488 0.0 0.0 0.0 15.965302209405582" Properties=species:S:1:pos:R:3:spacegroup_kinds:I:1:forces:R:3 spacegroup="P 1" unit_cell=conventional occupancy="_JSON {\"0\": {\"In\": 1}, \"1\": {\"In\": 1}, \"2\": {\"In\": 1}, \"3\": {\"In\": 1}, \"4\": {\"In\": 1}, \"5\": {\"In\": 1}, \"6\": {\"In\": 1}, \"7\": {\"In\": 1}, \"8\": {\"In\": 1}, \"9\": {\"In\": 1}, \"10\": {\"In\": 1}, \"11\": {\"In\": 1}, \"12\": {\"In\": 1}, \"13\": {\"In\": 1}, \"14\": {\"In\": 1}, \"15\": {\"In\": 1}, \"16\": {\"O\": 1}, \"17\": {\"O\": 1}, \"18\": {\"O\": 1}, \"19\": {\"O\": 1}, \"20\": {\"O\": 1}, \"21\": {\"O\": 1}, \"22\": {\"O\": 1}, \"23\": {\"O\": 1}, \"24\": {\"O\": 1}, \"25\": {\"O\": 1}, \"26\": {\"O\": 1}, \"27\": {\"O\": 1}, \"28\": {\"O\": 1}, \"29\": {\"O\": 1}, \"30\": {\"O\": 1}, \"31\": {\"O\": 1}, \"32\": {\"O\": 1}, \"33\": {\"O\": 1}, \"34\": {\"O\": 1}, \"35\": {\"O\": 1}, \"36\": {\"O\": 1}, \"37\": {\"O\": 1}, \"38\": {\"O\": 1}, \"39\": {\"O\": 1}}" n_minim_iter=4 energy=-45150.1622614178 stress="-0.02052373455122047 -5.292438891518304e-13 -3.5768620766909517e-14 -5.292438891518304e-13 -0.020554548803297885 -4.42553908654422e-13 -3.5768620766909517e-14 -4.42553908654422e-13 -0.020550277803832468" free_energy=-45150.1622614178 pbc="T T T"
In       2.76182327       4.58744088       9.11535806        0       0.01755099      -0.01493458       0.01591864
In      -0.00518755       4.01914631       6.84994415        1       0.01755099       0.01493458      -0.01591864
In       2.77219837       1.71857848      14.83259526        2      -0.01755099      -0.01493458      -0.01591864
In       5.53920920       1.15028392       1.13270695        3      -0.01755099       0.01493458       0.01591864
In       2.77219837       1.15028392       6.84994415        4      -0.01755099       0.01493458      -0.01591864
In       5.53920920       1.71857848       9.11535806        5      -0.01755099      -0.01493458       0.01591864
In       2.76182327       4.01914631       1.13270695        6       0.01755099       0.01493458       0.01591864
In      -0.00518755       4.58744088      14.83259526        7       0.01755099      -0.01493458      -0.01591864
In       2.75525862       4.28344485      13.06639677        8       0.01498042       0.00725604      -0.01594530
In       5.52226944       4.32314234       2.89890544        9       0.01498042      -0.00725604       0.01594530
In       2.77876303       1.41458245      10.88155655       10      -0.01498042       0.00725604       0.01594530
In       0.01175220       1.45427995       5.08374566       11      -0.01498042      -0.00725604      -0.01594530
In       2.77876303       1.45427995       2.89890544       12      -0.01498042      -0.00725604       0.01594530
In       0.01175220       1.41458245      13.06639677       13      -0.01498042       0.00725604      -0.01594530
In       2.75525862       4.32314234       5.08374566       14       0.01498042      -0.00725604      -0.01594530
In       5.52226944       4.28344485      10.88155655       15       0.01498042       0.00725604       0.01594530
O        4.75534853       5.05752051      12.74363001       16       0.00864185       0.01301582      -0.02496596
O        1.98833771       3.54906668       3.22167220       17       0.00864185      -0.01301582       0.02496596
O        0.77867312       2.18865811      11.20432331       18      -0.00864185       0.01301582       0.02496596
O        3.54568394       0.68020429       4.76097890       19      -0.00864185      -0.01301582      -0.02496596
O        0.77867312       0.68020429       3.22167220       20      -0.00864185      -0.01301582       0.02496596
O        3.54568394       2.18865811      12.74363001       21      -0.00864185       0.01301582      -0.02496596
O        4.75534853       3.54906668       4.76097890       22       0.00864185      -0.01301582      -0.02496596
O        1.98833771       5.05752051      11.20432331       23       0.00864185       0.01301582       0.02496596
O        3.91251168       3.02344905       9.97108243       24      -0.00907265       0.00515347       0.00819724
O        1.14550086       5.58313814       5.99421978       25      -0.00907265      -0.00515347      -0.00819724
O        1.62150997       0.15458665      13.97687089       26       0.00907265       0.00515347      -0.00819724
O        4.38852079       2.71427575       1.98843132       27       0.00907265      -0.00515347       0.00819724
O        1.62150997       2.71427575       5.99421978       28       0.00907265      -0.00515347      -0.00819724
O        4.38852079       0.15458665       9.97108243       29       0.00907265       0.00515347       0.00819724
O        3.91251168       5.58313814       1.98843132       30      -0.00907265      -0.00515347       0.00819724
O        1.14550086       3.02344905      13.97687089       31      -0.00907265       0.00515347      -0.00819724
O        3.57188078       3.78721607      15.12795349       32      -0.00549169       0.00835210      -0.00483056
O        0.80486996       4.81937112       0.83734872       33      -0.00549169      -0.00835210       0.00483056
O        1.96214087       0.91835368       8.81999982       34       0.00549169       0.00835210       0.00483056
O        4.72915169       1.95050872       7.14530239       35       0.00549169      -0.00835210      -0.00483056
O        1.96214087       1.95050872       0.83734872       36       0.00549169      -0.00835210       0.00483056
O        4.72915169       0.91835368      15.12795349       37       0.00549169       0.00835210      -0.00483056
O        3.57188078       4.81937112       7.14530239       38      -0.00549169      -0.00835210      -0.00483056
O        0.80486996       3.78721607       8.81999982       39      -0.00549169       0.00835210       0.00483056
40
Lattice="5.5340423818334505 1.0208079282647456e-42 0.0 -1.1177750049472481e-42 5.737966065544025 0.0 0.0 0.0 15.964571076634762" Properties=species:S:1:pos:R:3:spacegroup_kinds:I:1:forces:R:3 spacegroup="P 1" unit_cell=conventional occupancy="_JSON {\"0\": {\"In\": 1}, \"1\": {\"In\": 1}, \"2\": {\"In\": 1}, \"3\": {\"In\": 1}, \"4\": {\"In\": 1}, \"5\": {\"In\": 1}, \"6\": {\"In\": 1}, \"7\": {\"In\": 1}, \"8\": {\"In\": 1}, \"9\": {\"In\": 1}, \"10\": {\"In\": 1}, \"11\": {\"In\": 1}, \"12\": {\"In\": 1}, \"13\": {\"In\": 1}, \"14\": {\"In\": 1}, \"15\": {\"In\": 1}, \"16\": {\"O\": 1}, \"17\": {\"O\": 1}, \"18\": {\"O\": 1}, \"19\": {\"O\": 1}, \"20\": {\"O\": 1}, \"21\": {\"O\": 1}, \"22\": {\"O\": 1}, \"23\": {\"O\": 1}, \"24\": {\"O\": 1}, \"25\": {\"O\": 1}, \"26\": {\"O\": 1}, \"27\": {\"O\": 1}, \"28\": {\"O\": 1}, \"29\": {\"O\": 1}, \"30\": {\"O\": 1}, \"31\": {\"O\": 1}, \"32\": {\"O\": 1}, \"33\": {\"O\": 1}, \"34\": {\"O\": 1}, \"35\": {\"O\": 1}, \"36\": {\"O\": 1}, \"37\": {\"O\": 1}, \"38\": {\"O\": 1}, \"39\": {\"O\": 1}}" n_minim_iter=5 energy=-45150.16317912775 stress="-0.020420655299342616 -1.2133973598867742e-13 5.383754077265903e-13 -1.2133973598867742e-13 -0.020433906420239595 5.2002994285705e-14 5.383754077265903e-13 5.2002994285705e-14 -0.02037191799056435" free_energy=-45150.16317912775 pbc="T T T"
In       2.76313084       4.58705323       9.11640872        0      -0.00180948       0.00023034      -0.00752979
In      -0.00389035       4.01989587       6.84816236        1      -0.00180948      -0.00023034       0.00752979
In       2.77091154       1.71807020      14.83044789        2       0.00180948       0.00023034       0.00752979
In       5.53793273       1.15091283       1.13412318        3       0.00180948      -0.00023034      -0.00752979
In       2.77091154       1.15091283       6.84816236        4       0.00180948      -0.00023034       0.00752979
In       5.53793273       1.71807020       9.11640872        5       0.00180948       0.00023034      -0.00752979
In       2.76313084       4.01989587       1.13412318        6      -0.00180948      -0.00023034      -0.00752979
In      -0.00389035       4.58705323      14.83044789        7      -0.00180948       0.00023034       0.00752979
In       2.75674257       4.28382094      13.06487489        8       0.00790282       0.00746526      -0.00009964
In       5.52376376       4.32312816       2.89969619        9       0.00790282      -0.00746526       0.00009964
In       2.77729982       1.41483790      10.88198173       10      -0.00790282       0.00746526       0.00009964
In       0.01027862       1.45414513       5.08258935       11      -0.00790282      -0.00746526      -0.00009964
In       2.77729982       1.45414513       2.89969619       12      -0.00790282      -0.00746526       0.00009964
In       0.01027862       1.41483790      13.06487489       13      -0.00790282       0.00746526      -0.00009964
In       2.75674257       4.32312816       5.08258935       14       0.00790282      -0.00746526      -0.00009964
In       5.52376376       4.28382094      10.88198173       15       0.00790282       0.00746526       0.00009964
O        4.75608566       5.05899770      12.74138156       16       0.00510195       0.01022108      -0.01301086
O        1.98906447       3.54795140       3.22318952       17       0.00510195      -0.01022108       0.01301086
O        0.77795673       2.19001466      11.20547505       18      -0.00510195       0.01022108       0.01301086
O        3.54497792       0.67896837       4.75909602       19      -0.00510195      -0.01022108      -0.01301086
O        0.77795673       0.67896837       3.22318952       20      -0.00510195      -0.01022108       0.01301086
O        3.54497792       2.19001466      12.74138156       21      -0.00510195       0.01022108      -0.01301086
O        4.75608566       3.54795140       4.75909602       22       0.00510195      -0.01022108      -0.01301086
O        1.98906447       5.05899770      11.20547505       23       0.00510195       0.01022108       0.01301086
O        3.91227780       3.02380511       9.97144700       24      -0.00501862      -0.00382838       0.01473862
O        1.14525661       5.58314399       5.99312408       25      -0.00501862       0.00382838      -0.01473862
O        1.62176458       0.15482208      13.97540962       26       0.00501862      -0.00382838      -0.01473862
O        4.38878577       2.71416096       1.98916146       27       0.00501862       0.00382838       0.01473862
O        1.62176458       2.71416096       5.99312408       28       0.00501862       0.00382838      -0.01473862
O        4.38878577       0.15482208       9.97144700       29       0.00501862      -0.00382838       0.01473862
O        3.91227780       5.58314399       1.98916146       30      -0.00501862       0.00382838       0.01473862
O        1.14525661       3.02380511      13.97540962       31      -0.00501862      -0.00382838      -0.01473862
O        3.57117431       3.78778568      15.12640435       32       0.00365784       0.00909620       0.00137261
O        0.80415312       4.81916342       0.83816673       33       0.00365784      -0.00909620      -0.00137261
O        1.96286808       0.91880265       8.82045227       34      -0.00365784       0.00909620      -0.00137261
O        4.72988927       1.95018038       7.14411881       35      -0.00365784      -0.00909620       0.00137261
O        1.96286808       1.95018038       0.83816673       36      -0.00365784      -0.00909620      -0.00137261
O        4.72988927       0.91880265      15.12640435       37      -0.00365784       0.00909620       0.00137261
O        3.57117431       4.81916342       7.14411881       38       0.00365784      -0.00909620       0.00137261
O        0.80415312       3.78778568       8.82045227       39       0.00365784       0.00909620      -0.00137261
40