40
Lattice="5.670559670844712 1.0929140145122104e-42 0.0 -1.44025260256628e-42 5.86279428859974 0.0 0.0 0.0 16.421461766021917" Properties=species:S:1:pos:R:3:spacegroup_kinds:I:1:forces:R:3 spacegroup="P 1" unit_cell=conventional occupancy="_JSON {\"0\": {\"In\": 1}, \"1\": {\"In\": 1}, \"2\": {\"In\": 1}, \"3\": {\"In\": 1}, \"4\": {\"In\": 1}, \"5\": {\"In\": 1}, \"6\": {\"In\": 1}, \"7\": {\"In\": 1}, \"8\": {\"In\": 1}, \"9\": {\"In\": 1}, \"10\": {\"In\": 1}, \"11\": {\"In\": 1}, \"12\": {\"In\": 1}, \"13\": {\"In\": 1}, \"14\": {\"In\": 1}, \"15\": {\"In\": 1}, \"16\": {\"O\": 1}, \"17\": {\"O\": 1}, \"18\": {\"O\": 1}, \"19\": {\"O\": 1}, \"20\": {\"O\": 1}, \"21\": {\"O\": 1}, \"22\": {\"O\": 1}, \"23\": {\"O\": 1}, \"24\": {\"O\": 1}, \"25\": {\"O\": 1}, \"26\": {\"O\": 1}, \"27\": {\"O\": 1}, \"28\": {\"O\": 1}, \"29\": {\"O\": 1}, \"30\": {\"O\": 1}, \"31\": {\"O\": 1}, \"32\": {\"O\": 1}, \"33\": {\"O\": 1}, \"34\": {\"O\": 1}, \"35\": {\"O\": 1}, \"36\": {\"O\": 1}, \"37\": {\"O\": 1}, \"38\": {\"O\": 1}, \"39\": {\"O\": 1}}" n_minim_iter=8 energy=-45150.1744412468 stress="0.01789799643712453 -2.1047181137607243e-13 -4.96584833440812e-13 -2.1047181137607243e-13 0.017918745973770744 3.894651581270473e-13 -4.96584833440812e-13 3.894651581270473e-13 0.01789069225046945" free_energy=-45150.1744412468 pbc="T T T"
In       2.82904076       4.68298515       9.37214469        0       0.00044130      -0.00467412      -0.00130214
In      -0.00623908       4.11120628       7.04931707        1       0.00044130       0.00467412       0.00130214
In       2.84151892       1.75158800      15.26004796        2      -0.00044130      -0.00467412       0.00130214
In       5.67679875       1.17980914       1.16141381        3      -0.00044130       0.00467412      -0.00130214
In       2.84151892       1.17980914       7.04931707        4      -0.00044130       0.00467412       0.00130214
In       5.67679875       1.75158800       9.37214469        5      -0.00044130      -0.00467412      -0.00130214
In       2.82904076       4.11120628       1.16141381        6       0.00044130       0.00467412      -0.00130214
In      -0.00623908       4.68298515      15.26004796        7       0.00044130      -0.00467412       0.00130214
In       2.81571331       4.37950769      13.43643372        8      -0.00113475      -0.00394862      -0.00178212
In       5.65099315       4.41468374       2.98502804        9      -0.00113475       0.00394862       0.00178212
In       2.85484636       1.44811055      11.19575893       10       0.00113475      -0.00394862       0.00178212
In       0.01956653       1.48328660       5.22570284       11       0.00113475       0.00394862      -0.00178212
In       2.85484636       1.48328660       2.98502804       12       0.00113475       0.00394862       0.00178212
In       0.01956653       1.44811055      13.43643372       13       0.00113475      -0.00394862      -0.00178212
In       2.81571331       4.41468374       5.22570284       14      -0.00113475       0.00394862      -0.00178212
In       5.65099315       4.37950769      11.19575893       15      -0.00113475      -0.00394862       0.00178212
O        4.87094737       5.15876131      13.10882575       16      -0.00104862      -0.00502355      -0.00327567
O        2.03566753       3.63543012       3.31263601       17      -0.00104862       0.00502355       0.00327567
O        0.79961230       2.22736416      11.52336690       18       0.00104862      -0.00502355       0.00327567
O        3.63489214       0.70403298       4.89809487       19       0.00104862       0.00502355      -0.00327567
O        0.79961230       0.70403298       3.31263601       20       0.00104862       0.00502355       0.00327567
O        3.63489214       2.22736416      13.10882575       21       0.00104862      -0.00502355      -0.00327567
O        4.87094737       3.63543012       4.89809487       22      -0.00104862       0.00502355      -0.00327567
O        2.03566753       5.15876131      11.52336690       23      -0.00104862      -0.00502355       0.00327567
O        4.00219952       3.09168620      10.25244177       24      -0.00082695      -0.00036461       0.00163683
O        1.16691969       5.70250523       6.16902000       25      -0.00082695       0.00036461      -0.00163683
O        1.66836015       0.16028906      14.37975088       26       0.00082695      -0.00036461      -0.00163683
O        4.50363999       2.77110808       2.04171089       27       0.00082695       0.00036461       0.00163683
O        1.66836015       2.77110808       6.16902000       28       0.00082695       0.00036461      -0.00163683
O        4.50363999       0.16028906      10.25244177       29       0.00082695      -0.00036461       0.00163683
O        4.00219952       5.70250523       2.04171089       30      -0.00082695       0.00036461       0.00163683
O        1.16691969       3.09168620      14.37975088       31      -0.00082695      -0.00036461      -0.00163683
O        3.66573210       3.87146911      15.56960837       32      -0.00175930      -0.00224351      -0.00341037
O        0.83045227       4.92272233       0.85185340       33      -0.00175930       0.00224351       0.00341037
O        2.00482757       0.94007196       9.06258428       34       0.00175930      -0.00224351       0.00341037
O        4.84010740       1.99132518       7.35887749       35       0.00175930       0.00224351      -0.00341037
O        2.00482757       1.99132518       0.85185340       36       0.00175930       0.00224351       0.00341037
O        4.84010740       0.94007196      15.56960837       37       0.00175930      -0.00224351      -0.00341037
O        3.66573210       4.92272233       7.35887749       38      -0.00175930       0.00224351      -0.00341037
O        0.83045227       3.87146911       9.06258428       39      -0.00175930      -0.00224351       0.00341037
