40
Lattice="5.739394033680658 -6.327145024343108e-43 0.0 5.702751099988712e-43 5.983712538252992 0.0 0.0 0.0 17.032125728498972" Properties=species:S:1:pos:R:3:spacegroup_kinds:I:1:forces:R:3 spacegroup="P 1" unit_cell=conventional occupancy="_JSON {\"0\": {\"In\": 1}, \"1\": {\"In\": 1}, \"2\": {\"In\": 1}, \"3\": {\"In\": 1}, \"4\": {\"In\": 1}, \"5\": {\"In\": 1}, \"6\": {\"In\": 1}, \"7\": {\"In\": 1}, \"8\": {\"In\": 1}, \"9\": {\"In\": 1}, \"10\": {\"In\": 1}, \"11\": {\"In\": 1}, \"12\": {\"In\": 1}, \"13\": {\"In\": 1}, \"14\": {\"In\": 1}, \"15\": {\"In\": 1}, \"16\": {\"O\": 1}, \"17\": {\"O\": 1}, \"18\": {\"O\": 1}, \"19\": {\"O\": 1}, \"20\": {\"O\": 1}, \"21\": {\"O\": 1}, \"22\": {\"O\": 1}, \"23\": {\"O\": 1}, \"24\": {\"O\": 1}, \"25\": {\"O\": 1}, \"26\": {\"O\": 1}, \"27\": {\"O\": 1}, \"28\": {\"O\": 1}, \"29\": {\"O\": 1}, \"30\": {\"O\": 1}, \"31\": {\"O\": 1}, \"32\": {\"O\": 1}, \"33\": {\"O\": 1}, \"34\": {\"O\": 1}, \"35\": {\"O\": 1}, \"36\": {\"O\": 1}, \"37\": {\"O\": 1}, \"38\": {\"O\": 1}, \"39\": {\"O\": 1}}" n_minim_iter=26 energy=-45148.6871328814 stress="0.0399269908769022 3.9139889877763976e-14 -4.019275201919943e-13 3.9139889877763976e-14 0.040048282081362054 -5.940914272362728e-14 -4.019275201919943e-13 -5.940914272362728e-14 0.04006773001238618" free_energy=-45148.6871328814 pbc="T T T"
In       2.79205281       4.92360624       9.81360446        0       0.00285111       0.00084828       0.00443353
In      -0.07764421       4.05196257       7.21852127        1       0.00285111      -0.00084828      -0.00443353
In       2.94734123       1.93174997      15.73458413        2      -0.00285111       0.00084828      -0.00443353
In       5.81703824       1.06010630       1.29754160        3      -0.00285111      -0.00084828       0.00443353
In       2.94734123       1.06010630       7.21852127        4      -0.00285111      -0.00084828      -0.00443353
In       5.81703824       1.93174997       9.81360446        5      -0.00285111       0.00084828       0.00443353
In       2.79205281       4.05196257       1.29754160        6       0.00285111      -0.00084828       0.00443353
In      -0.07764421       4.92360624      15.73458413        7       0.00285111       0.00084828      -0.00443353
In       2.76818390       4.57403039      13.85842052        8       0.00326675      -0.00347185       0.00222490
In       5.63788092       4.40153842       3.17370521        9       0.00326675       0.00347185      -0.00222490
In       2.97121013       1.58217412      11.68976807       10      -0.00326675      -0.00347185      -0.00222490
In       0.10151312       1.40968215       5.34235766       11      -0.00326675       0.00347185       0.00222490
In       2.97121013       1.40968215       3.17370521       12      -0.00326675       0.00347185      -0.00222490
In       0.10151312       1.58217412      13.85842052       13      -0.00326675      -0.00347185       0.00222490
In       2.76818390       4.40153842       5.34235766       14       0.00326675       0.00347185       0.00222490
In       5.63788092       4.57403039      11.68976807       15       0.00326675      -0.00347185      -0.00222490
O        4.86113309       5.38501639      13.59830723       16      -0.00173251       0.00054789       0.00141913
O        1.99143607       3.59055242       3.43381850       17      -0.00173251      -0.00054789      -0.00141913
O        0.87826094       2.39316012      11.94988136       18       0.00173251       0.00054789      -0.00141913
O        3.74795796       0.59869615       5.08224437       19       0.00173251      -0.00054789       0.00141913
O        0.87826094       0.59869615       3.43381850       20       0.00173251      -0.00054789      -0.00141913
O        3.74795796       2.39316012      13.59830723       21       0.00173251       0.00054789       0.00141913
O        4.86113309       3.59055242       5.08224437       22      -0.00173251      -0.00054789       0.00141913
O        1.99143607       5.38501639      11.94988136       23      -0.00173251       0.00054789      -0.00141913
O        4.02651386       3.28845880      10.71937468       24       0.00198369      -0.00227481      -0.00203088
O        1.15681684       5.68711000       6.31275105       25       0.00198369       0.00227481       0.00203088
O        1.71288017       0.29660253      14.82881391       26      -0.00198369      -0.00227481       0.00203088
O        4.58257719       2.69525374       2.20331181       27      -0.00198369       0.00227481      -0.00203088
O        1.71288017       2.69525374       6.31275105       28      -0.00198369       0.00227481       0.00203088
O        4.58257719       0.29660253      10.71937468       29      -0.00198369      -0.00227481      -0.00203088
O        4.02651386       5.68711000       2.20331181       30       0.00198369       0.00227481      -0.00203088
O        1.15681684       3.28845880      14.82881391       31       0.00198369      -0.00227481       0.00203088
O        3.66745828       4.04096794      16.17331202       32      -0.00247680       0.00529491      -0.00440721
O        0.79776126       4.93460087       0.85881370       33      -0.00247680      -0.00529491       0.00440721
O        2.07193575       1.04911167       9.37487657       34       0.00247680       0.00529491       0.00440721
O        4.94163277       1.94274460       7.65724916       35       0.00247680      -0.00529491      -0.00440721
O        2.07193575       1.94274460       0.85881370       36       0.00247680      -0.00529491       0.00440721
O        4.94163277       1.04911167      16.17331202       37       0.00247680       0.00529491      -0.00440721
O        3.66745828       4.93460087       7.65724916       38      -0.00247680      -0.00529491      -0.00440721
O        0.79776126       4.04096794       9.37487657       39      -0.00247680       0.00529491       0.00440721
