40
Lattice="5.886068148478033 -2.2096617125116202e-42 0.0 2.5181153534421247e-42 6.145783482747172 0.0 0.0 0.0 17.247724220268076" Properties=species:S:1:pos:R:3:spacegroup_kinds:I:1:forces:R:3 spacegroup="P 1" unit_cell=conventional occupancy="_JSON {\"0\": {\"In\": 1}, \"1\": {\"In\": 1}, \"2\": {\"In\": 1}, \"3\": {\"In\": 1}, \"4\": {\"In\": 1}, \"5\": {\"In\": 1}, \"6\": {\"In\": 1}, \"7\": {\"In\": 1}, \"8\": {\"In\": 1}, \"9\": {\"In\": 1}, \"10\": {\"In\": 1}, \"11\": {\"In\": 1}, \"12\": {\"In\": 1}, \"13\": {\"In\": 1}, \"14\": {\"In\": 1}, \"15\": {\"In\": 1}, \"16\": {\"O\": 1}, \"17\": {\"O\": 1}, \"18\": {\"O\": 1}, \"19\": {\"O\": 1}, \"20\": {\"O\": 1}, \"21\": {\"O\": 1}, \"22\": {\"O\": 1}, \"23\": {\"O\": 1}, \"24\": {\"O\": 1}, \"25\": {\"O\": 1}, \"26\": {\"O\": 1}, \"27\": {\"O\": 1}, \"28\": {\"O\": 1}, \"29\": {\"O\": 1}, \"30\": {\"O\": 1}, \"31\": {\"O\": 1}, \"32\": {\"O\": 1}, \"33\": {\"O\": 1}, \"34\": {\"O\": 1}, \"35\": {\"O\": 1}, \"36\": {\"O\": 1}, \"37\": {\"O\": 1}, \"38\": {\"O\": 1}, \"39\": {\"O\": 1}}" n_minim_iter=9 energy=-45147.00590843048 stress="0.05268285242243381 -2.907447188102258e-13 -3.210660372673315e-14 -2.907447188102258e-13 0.0526121266754063 -5.6399676768113996e-14 -3.210660372673315e-14 -5.6399676768113996e-14 0.05275675654789143" free_energy=-45147.00590843048 pbc="T T T"
In       2.66622299       5.12966771       9.97033587        0      -0.00224151       0.00423460       0.00243261
In      -0.27681108       4.08900751       7.27738835        1      -0.00224151      -0.00423460      -0.00243261
In       3.21984516       2.05677597      15.90125046        2       0.00224151       0.00423460      -0.00243261
In       6.16287923       1.01611577       1.34647376        3       0.00224151      -0.00423460       0.00243261
In       3.21984516       1.01611577       7.27738835        4       0.00224151      -0.00423460      -0.00243261
In       6.16287923       2.05677597       9.97033587        5       0.00224151       0.00423460       0.00243261
In       2.66622299       4.08900751       1.34647376        6      -0.00224151      -0.00423460       0.00243261
In      -0.27681108       5.12966771      15.90125046        7      -0.00224151       0.00423460      -0.00243261
In       2.66850031       4.81461180      13.99689562        8       0.00244515       0.00061758       0.00882930
In       5.61153439       4.40406343       3.25082860        9       0.00244515      -0.00061758      -0.00882930
In       3.21756783       1.74172006      11.87469071       10      -0.00244515       0.00061758      -0.00882930
In       0.27453376       1.33117169       5.37303351       11      -0.00244515      -0.00061758       0.00882930
In       3.21756783       1.33117169       3.25082860       12      -0.00244515      -0.00061758      -0.00882930
In       0.27453376       1.74172006      13.99689562       13      -0.00244515       0.00061758       0.00882930
In       2.66850031       4.40406343       5.37303351       14       0.00244515      -0.00061758       0.00882930
In       5.61153439       4.81461180      11.87469071       15       0.00244515       0.00061758      -0.00882930
O        4.83888384       5.65828312      13.76490015       16       0.00380216      -0.00112750       0.00324138
O        1.89584976       3.56039210       3.48282407       17       0.00380216       0.00112750      -0.00324138
O        1.04718431       2.58539138      12.10668618       18      -0.00380216      -0.00112750      -0.00324138
O        3.99021839       0.48750036       5.14103804       19      -0.00380216       0.00112750       0.00324138
O        1.04718431       0.48750036       3.48282407       20      -0.00380216       0.00112750      -0.00324138
O        3.99021839       2.58539138      13.76490015       21      -0.00380216      -0.00112750       0.00324138
O        4.83888384       3.56039210       5.14103804       22       0.00380216       0.00112750       0.00324138
O        1.89584976       5.65828312      12.10668618       23       0.00380216      -0.00112750      -0.00324138
O        4.08979070       3.53614637      10.86863169       24       0.00374687       0.00421878      -0.00200758
O        1.14675663       5.68252885       6.37909253       25       0.00374687      -0.00421878       0.00200758
O        1.79627745       0.46325463      15.00295464       26      -0.00374687       0.00421878       0.00200758
O        4.73931152       2.60963711       2.24476958       27      -0.00374687      -0.00421878      -0.00200758
O        1.79627745       2.60963711       6.37909253       28      -0.00374687      -0.00421878       0.00200758
O        4.73931152       0.46325463      10.86863169       29      -0.00374687       0.00421878      -0.00200758
O        4.08979070       5.68252885       2.24476958       30       0.00374687      -0.00421878      -0.00200758
O        1.14675663       3.53614637      15.00295464       31       0.00374687       0.00421878       0.00200758
O        3.70365051       4.14571401      16.47063704       32       0.00275120       0.00054838      -0.00273966
O        0.76061643       5.07296122       0.77708718       33       0.00275120      -0.00054838       0.00273966
O        2.18241764       1.07282227       9.40094929       34      -0.00275120       0.00054838       0.00273966
O        5.12545172       2.00006947       7.84677493       35      -0.00275120      -0.00054838      -0.00273966
O        2.18241764       2.00006947       0.77708718       36      -0.00275120      -0.00054838       0.00273966
O        5.12545172       1.07282227      16.47063704       37      -0.00275120       0.00054838      -0.00273966
O        3.70365051       5.07296122       7.84677493       38       0.00275120      -0.00054838      -0.00273966
O        0.76061643       4.14571401       9.40094929       39       0.00275120       0.00054838       0.00273966
