80
Lattice="11.758126722809244 0.0032431971852246284 0.0022393820830804933 6.454652327802576 9.828072948201065 0.0022393820830795964 6.454652327802579 3.484241886800298 9.189726947209042" Properties=species:S:1:pos:R:3:spacegroup_kinds:I:1:forces:R:3 spacegroup="P 1" unit_cell=conventional occupancy="_JSON {\"0\": {\"In\": 1}, \"1\": {\"In\": 1}, \"2\": {\"In\": 1}, \"3\": {\"In\": 1}, \"4\": {\"O\": 1}, \"5\": {\"O\": 1}, \"6\": {\"O\": 1}, \"7\": {\"O\": 1}, \"8\": {\"O\": 1}, \"9\": {\"O\": 1}}" n_minim_iter=4 energy=-90301.4227355501 stress="-0.00020908099817516492 -9.751967879497424e-05 -5.80692148596723e-05 -9.751967879497424e-05 -4.342096922984944e-05 -4.108322162108411e-05 -5.80692148596723e-05 -4.108322162108411e-05 -5.566561162530893e-05" free_energy=-11287.677888450358 pbc="T T T"
In      10.57237179       5.70699997       3.94060328        0       0.00278071       0.00159406       0.00122299
In      16.45143515       5.70862157       3.94172297        0       0.00247785       0.00168435       0.00148352
In      13.79969795      10.62103644       3.94172297        0       0.00230444       0.00132592       0.00098601
In      19.67876132      10.62265804       3.94284266        0       0.00294239       0.00165228       0.00048055
In      13.79969795       7.44912091       8.53546675        0      -0.00550340      -0.01245862       0.00549410
In      19.67876132       7.45074251       8.53658644        0       0.00439857      -0.00006683       0.00130514
In      17.02702412      12.36315739       8.53658644        0       0.00398999       0.00398706       0.00087608
In      22.90608748      12.36477899       8.53770614        0       0.00183825       0.00224420       0.00093228
In       7.92820176       4.27966857       2.95505101        1      -0.00146368      -0.00190364       0.00136393
In      13.80726512       4.28129017       2.95617070        1      -0.00228839      -0.00289677      -0.00099639
In      11.15552792       9.19370504       2.95617070        1      -0.00182241      -0.00015856      -0.00184634
In      17.03459129       9.19532664       2.95729039        1      -0.00279816      -0.00177209      -0.00097722
In      11.15552792       6.02178951       7.54991448        1      -0.00717046      -0.00648591      -0.00381683
In      17.03459129       6.02341111       7.55103417        1      -0.00000805      -0.00161420      -0.00294025
In      14.38285409      10.93582599       7.55103417        1      -0.00223121       0.00013032      -0.00099445
In      20.26191745      10.93744759       7.55215387        1      -0.00293451      -0.00110161      -0.00063628
In       4.40551394       2.37811046       1.64205185        2      -0.01456480      -0.00124211       0.01353143
In      10.28457730       2.37973206       1.64317154        2       0.00382231       0.00148564       0.00254051
In       7.63284010       7.29214693       1.64317154        2       0.00306603       0.00453369       0.00132162
In      13.51190347       7.29376853       1.64429123        2       0.00244279       0.00205809       0.00068554
In       7.63284010       4.12023140       6.23691532        2       0.00279682       0.00142975       0.00161352
In      13.51190347       4.12185300       6.23803501        2       0.00089454       0.00035652       0.00201910
In      10.86016627       9.03426788       6.23803501        2       0.00143023       0.00247529      -0.00177513
In      16.73922963       9.03588948       6.23915471        2       0.00329168       0.00186524       0.00050699
In       1.76134391       0.95077906       0.65649958        3      -0.00052489      -0.00008274      -0.00074879
In       7.64040727       0.95240066       0.65761927        3      -0.00016670      -0.00818686      -0.00006136
In       4.98867007       5.86481553       0.65761927        3      -0.00562870       0.00106680      -0.00045644
In      10.86773344       5.86643713       0.65873896        3      -0.00219319      -0.00080481      -0.00117211
In       4.98867007       2.69290000       5.25136305        3      -0.00279309      -0.00224316      -0.00157641
In      10.86773344       2.69452160       5.25248274        3      -0.00237272      -0.00034119       0.00108419
In       8.21599624       7.60693648       5.25248274        3      -0.00227455      -0.00125061      -0.00044986
In      14.09505960       7.60855808       5.25360244        3      -0.00232980      -0.00151951      -0.00275116
O        6.01747109       2.30234431       0.21506114        4       0.05198536       0.05097496      -0.02675123
O       11.90202397       2.31232445       0.21618273        4      -0.00094498       0.00400605      -0.00480404
O        9.25028677       7.22473932       0.21618273        4      -0.00204264      -0.00011942      -0.00501735
O       15.12935014       7.22636092       0.21730242        4       0.00012975       0.00289553      -0.00542310
O        9.25028677       4.05282379       4.80992651        4      -0.00087144       0.00327705      -0.00712882
O       15.12935014       4.05444539       4.81104620        4      -0.00022371       0.00355186      -0.00541835
O       12.47761294       8.96686027       4.81104620        4       0.00014286       0.00315095      -0.00428019
O       18.35667630       8.96848187       4.81216590        4       0.00011920       0.00348658      -0.00523752
O        7.09702654       5.12189212       1.15039541        5      -0.00419256      -0.00030685      -0.00414692
O       12.97608990       5.12351372       1.15151510        5      -0.00286690       0.00591284       0.00007421
O       10.32435270      10.03592859       1.15151510        5      -0.00873598       0.00244400       0.00095158
O       16.20341607      10.03755019       1.15263479        5      -0.00277436       0.00575123       0.00013650
O       10.32435270       6.86401306       5.74525888        5      -0.00239336       0.00549024       0.00069714
O       16.20341607       6.86563466       5.74637857        5      -0.00329686       0.00556114       0.00037475
O       13.55167887      11.77804954       5.74637857        5      -0.00305392       0.00603243      -0.00018279
O       19.43074223      11.77967114       5.74749827        5      -0.00220959       0.00485509      -0.00105504
O        8.17622084       2.18214500       2.51249477        6       0.00220896      -0.00111675      -0.00662126
O       14.05528420       2.18376660       2.51361446        6       0.00308651      -0.00126416      -0.00474540
O       11.40354700       7.09618147       2.51361446        6       0.00305303      -0.00308818      -0.00463902
O       17.28261037       7.09780307       2.51473415        6       0.00368716      -0.00327749      -0.00555702
O       11.40354700       3.92426594       7.10735824        6       0.00224339      -0.00485301      -0.01086398
O       17.28261037       3.92588754       7.10847793        6       0.00305034      -0.00214560      -0.00522707
O       14.63087317       8.83830242       7.10847793        6       0.00306480      -0.00101232      -0.00526398
O       20.50993653       8.83992402       7.10959763        6       0.00369304      -0.00220404      -0.00457402
O        4.15749485       4.47563403       2.08460809        7      -0.00198556       0.00275175       0.00482300
O       10.03655821       4.47725563       2.08572778        7      -0.00415328       0.00151746       0.00476703
O        7.38482101       9.38967050       2.08572778        7      -0.00537165       0.00150238       0.00596283
O       13.26388438       9.39129210       2.08684747        7      -0.00201064      -0.00071218       0.00723530
O        7.38482101       6.21775497       6.67947156        7      -0.00347872       0.00222543       0.00437637
O       13.26388438       6.21937657       6.68059125        7      -0.00471694       0.00301657       0.01328712
O       10.61214718      11.13179145       6.68059125        7      -0.00275536       0.00224799       0.00539376
O       16.49121054      11.13341305       6.68171095        7      -0.00347813       0.00048031       0.00506812
O        6.31075509       4.34707618       4.38203982        8      -0.00015975      -0.00348835       0.00510091
O       12.18981845       4.34869778       4.38315951        8       0.00018970      -0.00341155       0.00518191
O        9.53808125       9.26111265       4.38315951        8      -0.00068512      -0.00421101       0.00634782
O       15.41714462       9.26273425       4.38427920        8       0.00054863      -0.00336368       0.00517450
O        9.53808125       6.08919712       8.97690329        8      -0.00959573      -0.00299407       0.00314632
O       15.41714462       6.09081872       8.97802298        8      -0.01339983      -0.00335279       0.00608242
O       12.76540742      11.00323360       8.97802298        8       0.00037718      -0.00480730       0.00556656
O       18.64447078      11.00485520       8.97914268        8       0.00016768      -0.00367849       0.00493966
O        5.23668916       1.53588691       3.44670745        9       0.00351086      -0.00590765       0.00287768
O       11.11575252       1.53750851       3.44782714        9       0.00214248      -0.00528101      -0.00021692
O        8.46401532       6.44992338       3.44782714        9       0.00214759      -0.00631276      -0.00132762
O       14.34307869       6.45154498       3.44894683        9       0.00336572      -0.00537513      -0.00006307
O        8.46401532       3.27800785       8.04157092        9       0.00189738      -0.00591276      -0.00112738
O       14.34307869       3.27962945       8.04269061        9       0.00432138      -0.00644028      -0.00079222
O       11.69134149       8.19204433       8.04269061        9       0.00869534      -0.01393040       0.00609084
O       17.57040485       8.19366593       8.04381031        9       0.00216079      -0.00632461       0.00055953
