80
Lattice="11.758126722809244 0.0032431971852246284 0.0022393820830804933 6.454652327802576 9.828072948201065 0.0022393820830795964 6.454652327802579 3.484241886800298 9.189726947209042" Properties=species:S:1:pos:R:3:spacegroup_kinds:I:1:forces:R:3 spacegroup="P 1" unit_cell=conventional occupancy="_JSON {\"0\": {\"In\": 1}, \"1\": {\"In\": 1}, \"2\": {\"In\": 1}, \"3\": {\"In\": 1}, \"4\": {\"O\": 1}, \"5\": {\"O\": 1}, \"6\": {\"O\": 1}, \"7\": {\"O\": 1}, \"8\": {\"O\": 1}, \"9\": {\"O\": 1}}" n_minim_iter=4 energy=-90301.42254898712 stress="-0.00021008455287059886 -0.00014449795627748726 -7.395019912610484e-05 -0.00014449795627748726 -4.3996457024441814e-05 -7.880961603246214e-05 -7.395019912610484e-05 -7.880961603246214e-05 -2.5591631935181005e-05" free_energy=-11287.677888450358 pbc="T T T"
In      10.56237179       5.70699721       3.94060138        0       0.10892818      -0.00655416      -0.00492075
In      16.45143515       5.70862157       3.94172297        0      -0.00193064       0.00007276       0.00163921
In      13.79969795      10.62103644       3.94172297        0       0.00103576      -0.00039861      -0.00005191
In      19.67876132      10.62265804       3.94284266        0       0.00434252       0.00208054       0.00091031
In      13.79969795       7.44912091       8.53546675        0       0.00013666       0.00040739      -0.00151567
In      19.67876132       7.45074251       8.53658644        0       0.00128374       0.00210216       0.00358520
In      17.02702412      12.36315739       8.53658644        0       0.00355738       0.00210776      -0.00015465
In      22.90608748      12.36477899       8.53770614        0       0.00192006       0.00122161       0.00084357
In       7.92820176       4.27966857       2.95505101        1      -0.02414676      -0.01705097      -0.01195493
In      13.80726512       4.28129017       2.95617070        1      -0.00967634       0.00194120       0.00281018
In      11.15552792       9.19370504       2.95617070        1      -0.00103496      -0.00373615      -0.00065441
In      17.03459129       9.19532664       2.95729039        1      -0.00258073      -0.00068935      -0.00093066
In      11.15552792       6.02178951       7.54991448        1      -0.00104193      -0.00196842      -0.00180876
In      17.03459129       6.02341111       7.55103417        1      -0.00258810      -0.00149065      -0.00105159
In      14.38285409      10.93582599       7.55103417        1      -0.00250400      -0.00153964      -0.00066642
In      20.26191745      10.93744759       7.55215387        1      -0.00295927      -0.00102816      -0.00097543
In       4.40551394       2.37811046       1.64205185        2       0.00300215       0.00205680       0.00215986
In      10.28457730       2.37973206       1.64317154        2       0.00428188       0.00025007       0.00073283
In       7.63284010       7.29214693       1.64317154        2      -0.00144966       0.00555896      -0.00669603
In      13.51190347       7.29376853       1.64429123        2      -0.00148451      -0.00175761       0.00552630
In       7.63284010       4.12023140       6.23691532        2      -0.00235707      -0.00118968       0.00590070
In      13.51190347       4.12185300       6.23803501        2      -0.00239608       0.00460270      -0.00571942
In      10.86016627       9.03426788       6.23803501        2       0.00427940       0.00179278       0.00008684
In      16.73922963       9.03588948       6.23915471        2       0.00299612       0.00207273       0.00217350
In       1.76134391       0.95077906       0.65649958        3      -0.00304292      -0.00063793      -0.00044794
In       7.64040727       0.95240066       0.65761927        3      -0.00335980      -0.00172119      -0.00086677
In       4.98867007       5.86481553       0.65761927        3      -0.00227527      -0.00213480      -0.00110818
In      10.86773344       5.86643713       0.65873896        3      -0.00053090       0.00023269       0.00340033
In       4.98867007       2.69290000       5.25136305        3      -0.00353135      -0.00096354      -0.00135740
In      10.86773344       2.69452160       5.25248274        3       0.00365735       0.00062227      -0.00293603
In       8.21599624       7.60693648       5.25248274        3      -0.00837236       0.00848861       0.00585334
In      14.09505960       7.60855808       5.25360244        3      -0.00546674      -0.00332829      -0.00229986
O        6.02296061       2.31070285       0.21506304        4       0.00007916       0.00377251      -0.00486370
O       11.90202397       2.31232445       0.21618273        4      -0.00013553       0.00353994      -0.00551105
O        9.25028677       7.22473932       0.21618273        4       0.00010153       0.00316079      -0.00407907
O       15.12935014       7.22636092       0.21730242        4       0.00050750       0.00367030      -0.00584507
O        9.25028677       4.05282379       4.80992651        4      -0.00803152      -0.00164511      -0.00351013
O       15.12935014       4.05444539       4.81104620        4       0.00463402       0.00272565      -0.00475756
O       12.47761294       8.96686027       4.81104620        4       0.00008987       0.00527109      -0.00447716
O       18.35667630       8.96848187       4.81216590        4       0.00193132       0.00139038      -0.00534634
O        7.09702654       5.12189212       1.15039541        5      -0.00073404       0.00638637       0.00277496
O       12.97608990       5.12351372       1.15151510        5      -0.00260431       0.00484989      -0.00035760
O       10.32435270      10.03592859       1.15151510        5      -0.00381136       0.00595354       0.00014315
O       16.20341607      10.03755019       1.15263479        5      -0.00269704       0.00555188      -0.00033701
O       10.32435270       6.86401306       5.74525888        5      -0.00734846       0.00786395       0.00416831
O       16.20341607       6.86563466       5.74637857        5      -0.00227787       0.00584128      -0.00001430
O       13.55167887      11.77804954       5.74637857        5      -0.00197650       0.00665167      -0.00051113
O       19.43074223      11.77967114       5.74749827        5      -0.00297356       0.00259508       0.00178535
O        8.17622084       2.18214500       2.51249477        6       0.00373003       0.00006580      -0.00429904
O       14.05528420       2.18376660       2.51361446        6       0.00348436      -0.00369442      -0.00595362
O       11.40354700       7.09618147       2.51361446        6      -0.00856761      -0.01375127       0.00743974
O       17.28261037       7.09780307       2.51473415        6       0.00589928      -0.00260395      -0.00435912
O       11.40354700       3.92426594       7.10735824        6       0.00120524      -0.00113288      -0.00495463
O       17.28261037       3.92588754       7.10847793        6       0.00376931      -0.00218507      -0.00485116
O       14.63087317       8.83830242       7.10847793        6       0.00313027      -0.00152153      -0.00514226
O       20.50993653       8.83992402       7.10959763        6       0.00324901      -0.00303207      -0.00659940
O        4.15749485       4.47563403       2.08460809        7      -0.00152762       0.00213226       0.00457027
O       10.03655821       4.47725563       2.08572778        7      -0.00979449       0.00154884       0.00353612
O        7.38482101       9.38967050       2.08572778        7      -0.00292157       0.00050236       0.00624185
O       13.26388438       9.39129210       2.08684747        7      -0.00174257       0.00420195       0.00452872
O        7.38482101       6.21775497       6.67947156        7      -0.00151159       0.00191605       0.00393179
O       13.26388438       6.21937657       6.68059125        7      -0.00279692       0.00258621       0.00684355
O       10.61214718      11.13179145       6.68059125        7      -0.00341715       0.00216228       0.00527247
O       16.49121054      11.13341305       6.68171095        7      -0.00408486       0.00205754       0.00567392
O        6.31075509       4.34707618       4.38203982        8       0.00241526      -0.00269598       0.00473598
O       12.18981845       4.34869778       4.38315951        8      -0.03260680       0.02064447      -0.00212436
O        9.53808125       9.26111265       4.38315951        8      -0.00123516      -0.00638536       0.00489466
O       15.41714462       9.26273425       4.38427920        8       0.00047377      -0.00340706       0.00504509
O        9.53808125       6.08919712       8.97690329        8       0.00009558      -0.00388440       0.00504306
O       15.41714462       6.09081872       8.97802298        8       0.00014630      -0.00341685       0.00562392
O       12.76540742      11.00323360       8.97802298        8       0.00018213      -0.00332409       0.00586443
O       18.64447078      11.00485520       8.97914268        8       0.00059127      -0.00366785       0.00330923
O        5.23668916       1.53588691       3.44670745        9       0.00327505      -0.00499068      -0.00008529
O       11.11575252       1.53750851       3.44782714        9       0.00275758      -0.00524105      -0.00031109
O        8.46401532       6.44992338       3.44782714        9      -0.01445008      -0.00172593      -0.00065391
O       14.34307869       6.45154498       3.44894683        9       0.00617938      -0.00487986      -0.00090437
O        8.46401532       3.27800785       8.04157092        9       0.00317471      -0.00547074      -0.00081105
O       14.34307869       3.27962945       8.04269061        9       0.00340191      -0.00609818       0.00106220
O       11.69134149       8.19204433       8.04269061        9       0.00275901      -0.00560717      -0.00009347
O       17.57040485       8.19366593       8.04381031        9       0.00329194      -0.00610242      -0.00124124
