80
Lattice="11.760353064053739 0.013207041144850294 0.009119276325545328 6.464203793105487 9.824466801732024 0.00911927632554403 6.464203793105484 3.489397798195459 9.183917143870815" Properties=species:S:1:pos:R:3:spacegroup_kinds:I:1:forces:R:3 spacegroup="P 1" unit_cell=conventional occupancy="_JSON {\"0\": {\"In\": 1}, \"1\": {\"In\": 1}, \"2\": {\"In\": 1}, \"3\": {\"In\": 1}, \"4\": {\"O\": 1}, \"5\": {\"O\": 1}, \"6\": {\"O\": 1}, \"7\": {\"O\": 1}, \"8\": {\"O\": 1}, \"9\": {\"O\": 1}}" n_minim_iter=5 energy=-11287.68368957848 stress="9.11107880171869e-06 7.927998739617373e-06 5.474171941834298e-06 7.927998739617373e-06 -1.2961931879076364e-06 2.9549746599581876e-06 5.474171941834298e-06 2.9549746599581876e-06 -3.5353835348598827e-06" free_energy=-11287.68368957848 pbc="T T T"
In      10.58142205       5.71188533       3.94397656        0       0.00441524       0.00238336       0.00164568
In      16.46159858       5.71848885       3.94853620        0       0.00441524       0.00238336       0.00164568
In      13.81352395      10.62411873       3.94853620        0       0.00441524       0.00238336       0.00164568
In      19.69370048      10.63072225       3.95309584        0       0.00441524       0.00238336       0.00164568
In      13.81352395       7.45658423       8.53593513        0       0.00441524       0.00238336       0.00164568
In      19.69370048       7.46318775       8.54049477        0       0.00441524       0.00238336       0.00164568
In      17.04562584      12.36881763       8.54049477        0       0.00441524       0.00238336       0.00164568
In      22.92580238      12.37542115       8.54505441        0       0.00441524       0.00238336       0.00164568
In       7.93514845       4.28341841       2.95764022        1      -0.00441524      -0.00238336      -0.00164568
In      13.81532498       4.29002193       2.96219986        1      -0.00441524      -0.00238336      -0.00164568
In      11.16725035       9.19565181       2.96219986        1      -0.00441524      -0.00238336      -0.00164568
In      17.04742688       9.20225533       2.96675950        1      -0.00441524      -0.00238336      -0.00164568
In      11.16725035       6.02811731       7.54959879        1      -0.00441524      -0.00238336      -0.00164568
In      17.04742688       6.03472083       7.55415843        1      -0.00441524      -0.00238336      -0.00164568
In      14.39935224      10.94035071       7.55415843        1      -0.00441524      -0.00238336      -0.00164568
In      20.27952878      10.94695423       7.55871807        1      -0.00441524      -0.00238336      -0.00164568
In       4.40923189       2.38011742       1.64343763        2       0.00441524       0.00238336       0.00164568
In      10.28940842       2.38672094       1.64799727        2       0.00441524       0.00238336       0.00164568
In       7.64133379       7.29235082       1.64799727        2       0.00441524       0.00238336       0.00164568
In      13.52151032       7.29895434       1.65255691        2       0.00441524       0.00238336       0.00164568
In       7.64133379       4.12481632       6.23539620        2       0.00441524       0.00238336       0.00164568
In      13.52151032       4.13141984       6.23995584        2       0.00441524       0.00238336       0.00164568
In      10.87343568       9.03704972       6.23995584        2       0.00441524       0.00238336       0.00164568
In      16.75361222       9.04365324       6.24451548        2       0.00441524       0.00238336       0.00164568
In       1.76295829       0.95165050       0.65710130        3      -0.00441524      -0.00238336      -0.00164568
In       7.64313482       0.95825402       0.66166094        3      -0.00441524      -0.00238336      -0.00164568
In       4.99506019       5.86388390       0.66166094        3      -0.00441524      -0.00238336      -0.00164568
In      10.87523672       5.87048742       0.66622058        3      -0.00441524      -0.00238336      -0.00164568
In       4.99506019       2.69634940       5.24905987        3      -0.00441524      -0.00238336      -0.00164568
In      10.87523672       2.70295292       5.25361951        3      -0.00441524      -0.00238336      -0.00164568
In       8.22716208       7.60858280       5.25361951        3      -0.00441524      -0.00238336      -0.00164568
In      14.10733862       7.61518632       5.25817915        3      -0.00441524      -0.00238336      -0.00164568
O        6.02618335       2.31420995       0.21838946        4       0.00000000       0.00051228      -0.00074191
O       11.90635988       2.32081347       0.22294910        4       0.00000000       0.00051228      -0.00074191
O        9.25828525       7.22644335       0.22294910        4       0.00000000       0.00051228      -0.00074191
O       15.13846178       7.23304687       0.22750874        4       0.00000000       0.00051228      -0.00074191
O        9.25828525       4.05890885       4.81034803        4       0.00000000       0.00051228      -0.00074191
O       15.13846178       4.06551237       4.81490767        4       0.00000000       0.00051228      -0.00074191
O       12.49038714       8.97114225       4.81490767        4       0.00000000       0.00051228      -0.00074191
O       18.37056368       8.97774577       4.81946731        4       0.00000000       0.00051228      -0.00074191
O        7.10299083       5.12426554       1.15482910        5      -0.00042827       0.00079338      -0.00000000
O       12.98316736       5.13086906       1.15938874        5      -0.00042827       0.00079338      -0.00000000
O       10.33509273      10.03649894       1.15938874        5      -0.00042827       0.00079338      -0.00000000
O       16.21526926      10.04310246       1.16394838        5      -0.00042827       0.00079338      -0.00000000
O       10.33509273       6.86896444       5.74678767        5      -0.00042827       0.00079338      -0.00000000
O       16.21526926       6.87556796       5.75134731        5      -0.00042827       0.00079338      -0.00000000
O       13.56719462      11.78119784       5.75134731        5      -0.00042827       0.00079338      -0.00000000
O       19.44737116      11.78780136       5.75590695        5      -0.00042827       0.00079338      -0.00000000
O        8.18147777       2.18759628       2.51436875        6       0.00042827      -0.00028110      -0.00074191
O       14.06165430       2.19419980       2.51892839        6       0.00042827      -0.00028110      -0.00074191
O       11.41357967       7.09982968       2.51892839        6       0.00042827      -0.00028110      -0.00074191
O       17.29375620       7.10643320       2.52348803        6       0.00042827      -0.00028110      -0.00074191
O       11.41357967       3.93229518       7.10632732        6       0.00042827      -0.00028110      -0.00074191
O       17.29375620       3.93889870       7.11088696        6       0.00042827      -0.00028110      -0.00074191
O       14.64568156       8.84452858       7.11088696        6       0.00042827      -0.00028110      -0.00074191
O       20.52585810       8.85113210       7.11544660        6       0.00042827      -0.00028110      -0.00074191
O        4.16290256       4.47593955       2.08670911        7      -0.00042827       0.00028110       0.00074191
O       10.04307909       4.48254307       2.09126875        7      -0.00042827       0.00028110       0.00074191
O        7.39500446       9.38817295       2.09126875        7      -0.00042827       0.00028110       0.00074191
O       13.27518099       9.39477647       2.09582839        7      -0.00042827       0.00028110       0.00074191
O        7.39500446       6.22063845       6.67866768        7      -0.00042827       0.00028110       0.00074191
O       13.27518099       6.22724197       6.68322732        7      -0.00042827       0.00028110       0.00074191
O       10.62710635      11.13287185       6.68322732        7      -0.00042827       0.00028110       0.00074191
O       16.50728289      11.13947537       6.68778696        7      -0.00042827       0.00028110       0.00074191
O        6.31819698       4.34932588       4.38268839        8       0.00000000      -0.00051228       0.00074191
O       12.19837351       4.35592940       4.38724803        8       0.00000000      -0.00051228       0.00074191
O        9.55029888       9.26155928       4.38724803        8       0.00000000      -0.00051228       0.00074191
O       15.43047541       9.26816280       4.39180767        8       0.00000000      -0.00051228       0.00074191
O        9.55029888       6.09402478       8.97464696        8       0.00000000      -0.00051228       0.00074191
O       15.43047541       6.10062830       8.97920660        8       0.00000000      -0.00051228       0.00074191
O       12.78240077      11.00625818       8.97920660        8       0.00000000      -0.00051228       0.00074191
O       18.66257731      11.01286170       8.98376624        8       0.00000000      -0.00051228       0.00074191
O        5.24138951       1.53927029       3.44624875        9       0.00042827      -0.00079338       0.00000000
O       11.12156604       1.54587381       3.45080839        9       0.00042827      -0.00079338       0.00000000
O        8.47349141       6.45150369       3.45080839        9       0.00042827      -0.00079338       0.00000000
O       14.35366794       6.45810721       3.45536803        9       0.00042827      -0.00079338       0.00000000
O        8.47349141       3.28396919       8.03820732        9       0.00042827      -0.00079338       0.00000000
O       14.35366794       3.29057271       8.04276696        9       0.00042827      -0.00079338       0.00000000
O       11.70559330       8.19620259       8.04276696        9       0.00042827      -0.00079338       0.00000000
O       17.58576984       8.20280611       8.04732660        9       0.00042827      -0.00079338       0.00000000
