--------------------------------------------------------------------------
[[20368,1],0]: A high-performance Open MPI point-to-point messaging module
was unable to find any relevant network interfaces:

Module: OpenFabrics (openib)
  Host: node19

Another transport will be used instead, although this may result in
lower performance.

NOTE: You can disable this warning by setting the MCA parameter
btl_base_warn_component_unused to 0.
--------------------------------------------------------------------------

     Program PWSCF v.6.7MaX starts on 16Jul2021 at  0:13:14 

     This program is part of the open-source Quantum ESPRESSO suite
     for quantum simulation of materials; please cite
         "P. Giannozzi et al., J. Phys.:Condens. Matter 21 395502 (2009);
         "P. Giannozzi et al., J. Phys.:Condens. Matter 29 465901 (2017);
          URL http://www.quantum-espresso.org", 
     in publications or presentations arising from this work. More details at
     http://www.quantum-espresso.org/quote

     Parallel version (MPI), running on    16 processors

     MPI processes distributed on     1 nodes
     R & G space division:  proc/nbgrp/npool/nimage =      16
     Reading input from pw.inp

     Current dimensions of program PWSCF are:
     Max number of different atomic species (ntypx) = 10
     Max number of k-points (npk) =  40000
     Max angular momentum in pseudopotentials (lmaxx) =  3
     Message from routine cell_base_init:
     DEPRECATED: use true lattice parameter, not A to a.u. conversion factor
     file In.UPF: wavefunction(s)  5S renormalized
     file O.UPF: wavefunction(s)  2P renormalized

     IMPORTANT: XC functional enforced from input :
     Exchange-correlation= PBE
                           (   1   4   3   4   0   0   0)
     Any further DFT definition will be discarded
     Please, verify this is what you really want


     Subspace diagonalization in iterative solution of the eigenvalue problem:
     a serial algorithm will be used

     Found symmetry operation: I + ( -0.5000 -0.0000 -0.0000)
     This is a supercell, fractional translations are disabled
     Message from routine setup:
     using ibrav=0 with symmetry is DISCOURAGED, use correct ibrav instead

     Parallelization info
     --------------------
     sticks:   dense  smooth     PW     G-vecs:    dense   smooth      PW
     Min        1067     533    141                89723    31724    4314
     Max        1068     534    142                89725    31725    4317
     Sum       17077    8539   2257              1435587   507593   69037



     bravais-lattice index     =            0
     lattice parameter (alat)  =       1.8897  a.u.
     unit-cell volume          =    7169.5930 (a.u.)^3
     number of atoms/cell      =           80
     number of atomic types    =            2
     number of electrons       =       704.00
     number of Kohn-Sham states=          372
     kinetic-energy cutoff     =      65.0000  Ry
     charge density cutoff     =     520.0000  Ry
     scf convergence threshold =      7.3E-09
     mixing beta               =       0.5000
     number of iterations used =           10  plain     mixing
     Exchange-correlation= PBE
                           (   1   4   3   4   0   0   0)

     celldm(1)=   1.889726  celldm(2)=   0.000000  celldm(3)=   0.000000
     celldm(4)=   0.000000  celldm(5)=   0.000000  celldm(6)=   0.000000

     crystal axes: (cart. coord. in units of alat)
               a(1) = (  11.758272   0.000206   0.000142 )  
               a(2) = (   6.452193   9.829861   0.000142 )  
               a(3) = (   6.452193   3.482914   9.192142 )  

     reciprocal axes: (cart. coord. in units 2 pi/alat)
               b(1) = (  0.085048 -0.055824 -0.038546 )  
               b(2) = ( -0.000001  0.101732 -0.038546 )  
               b(3) = ( -0.000001 -0.000001  0.108790 )  


     PseudoPot. # 1 for In read from file:
     /home/lls34/programs/QuantumExpresso/pseudopotentials/use_pot/In.UPF
     MD5 check sum: b236236d7d320b3bac520569a9051741
     Pseudo is Ultrasoft + core correction, Zval = 13.0
     Generated using "atomic" code by A. Dal Corso  v.5.0.99 svn rev. 10869
     Using radial grid of 1241 points,  6 beta functions with: 
                l(1) =   0
                l(2) =   0
                l(3) =   1
                l(4) =   1
                l(5) =   2
                l(6) =   2
     Q(r) pseudized with 0 coefficients 


     PseudoPot. # 2 for O  read from file:
     /home/lls34/programs/QuantumExpresso/pseudopotentials/use_pot/O.UPF
     MD5 check sum: 3f94a2996a3169367d6eb21d9b593f20
     Pseudo is Projector augmented-wave + core cor, Zval =  6.0
     Generated using "atomic" code by A. Dal Corso  v.5.0.99 svn rev. 10869
     Shape of augmentation charge: BESSEL
     Using radial grid of 1095 points,  4 beta functions with: 
                l(1) =   0
                l(2) =   0
                l(3) =   1
                l(4) =   1
     Q(r) pseudized with 0 coefficients 


     atomic species   valence    mass     pseudopotential
        In1           13.00   114.81800     In( 1.00)
        O1             6.00    15.99900     O ( 1.00)

     Starting magnetic structure 
     atomic species   magnetization
        In1          0.000
        O1           0.000

      2 Sym. Ops., with inversion, found



   Cartesian axes

     site n.     atom                  positions (alat units)
         1           In1 tau(   1) = (  10.5706437   5.7060672   3.9399592  )
         2           In1 tau(   2) = (  16.4497798   5.7061700   3.9400302  )
         3           In1 tau(   3) = (  13.7967401  10.6209978   3.9400302  )
         4           In1 tau(   4) = (  19.6758761  10.6211006   3.9401012  )
         5           In1 tau(   5) = (  13.7967401   7.4475242   8.5360304  )
         6           In1 tau(   6) = (  19.6758761   7.4476270   8.5361014  )
         7           In1 tau(   7) = (  17.0228364  12.3624549   8.5361014  )
         8           In1 tau(   8) = (  22.9019725  12.3625577   8.5361724  )
         9           In1 tau(   9) = (   7.9263494   4.2786687   2.9543606  )
        10           In1 tau(  10) = (  13.8054855   4.2787715   2.9544316  )
        11           In1 tau(  11) = (  11.1524457   9.1935993   2.9544316  )
        12           In1 tau(  12) = (  17.0315818   9.1937021   2.9545026  )
        13           In1 tau(  13) = (  11.1524457   6.0201257   7.5504318  )
        14           In1 tau(  14) = (  17.0315818   6.0202285   7.5505028  )
        15           In1 tau(  15) = (  14.3785421  10.9350564   7.5505028  )
        16           In1 tau(  16) = (  20.2576781  10.9351592   7.5505738  )
        17           In1 tau(  17) = (   4.4049794   2.3778219   1.6418526  )
        18           In1 tau(  18) = (  10.2841154   2.3779247   1.6419236  )
        19           In1 tau(  19) = (   7.6310757   7.2927525   1.6419236  )
        20           In1 tau(  20) = (  13.5102117   7.2928553   1.6419946  )
        21           In1 tau(  21) = (   7.6310757   4.1192790   6.2379238  )
        22           In1 tau(  22) = (  13.5102118   4.1193818   6.2379948  )
        23           In1 tau(  23) = (  10.8571720   9.0342096   6.2379948  )
        24           In1 tau(  24) = (  16.7363081   9.0343124   6.2380658  )
        25           In1 tau(  25) = (   1.7606850   0.9504234   0.6562540  )
        26           In1 tau(  26) = (   7.6398211   0.9505262   0.6563250  )
        27           In1 tau(  27) = (   4.9867814   5.8653540   0.6563250  )
        28           In1 tau(  28) = (  10.8659174   5.8654568   0.6563960  )
        29           In1 tau(  29) = (   4.9867814   2.6918805   5.2523252  )
        30           In1 tau(  30) = (  10.8659174   2.6919833   5.2523962  )
        31           In1 tau(  31) = (   8.2128777   7.6068111   5.2523962  )
        32           In1 tau(  32) = (  14.0920138   7.6069139   5.2524672  )
        33           O1  tau(  33) = (   6.0224002   2.3094188   0.2146096  )
        34           O1  tau(  34) = (  11.9015363   2.3095216   0.2146806  )
        35           O1  tau(  35) = (   9.2484966   7.2243494   0.2146806  )
        36           O1  tau(  36) = (  15.1276326   7.2244522   0.2147516  )
        37           O1  tau(  37) = (   9.2484966   4.0508758   4.8106808  )
        38           O1  tau(  38) = (  15.1276326   4.0509787   4.8107518  )
        39           O1  tau(  39) = (  12.4745929   8.9658065   4.8107518  )
        40           O1  tau(  40) = (  18.3537290   8.9659093   4.8108228  )
        41           O1  tau(  41) = (   7.0960206   5.1209440   1.1491243  )
        42           O1  tau(  42) = (  12.9751566   5.1210468   1.1491953  )
        43           O1  tau(  43) = (  10.3221169  10.0358746   1.1491953  )
        44           O1  tau(  44) = (  16.2012530  10.0359774   1.1492663  )
        45           O1  tau(  45) = (  10.3221169   6.8624010   5.7451955  )
        46           O1  tau(  46) = (  16.2012530   6.8625039   5.7452665  )
        47           O1  tau(  47) = (  13.5482133  11.7773317   5.7452665  )
        48           O1  tau(  48) = (  19.4273493  11.7774345   5.7453375  )
        49           O1  tau(  49) = (   8.1748762   2.1808427   2.5126452  )
        50           O1  tau(  50) = (  14.0540123   2.1809455   2.5127162  )
        51           O1  tau(  51) = (  11.4009725   7.0957733   2.5127162  )
        52           O1  tau(  52) = (  17.2801086   7.0958762   2.5127872  )
        53           O1  tau(  53) = (  11.4009725   3.9222998   7.1087164  )
        54           O1  tau(  54) = (  17.2801086   3.9224026   7.1087874  )
        55           O1  tau(  55) = (  14.6270689   8.8372304   7.1087874  )
        56           O1  tau(  56) = (  20.5062049   8.8373332   7.1088584  )
        57           O1  tau(  57) = (   4.1564525   4.4756478   2.0835680  )
        58           O1  tau(  58) = (  10.0355886   4.4757506   2.0836389  )
        59           O1  tau(  59) = (   7.3825489   9.3905785   2.0836389  )
        60           O1  tau(  60) = (  13.2616849   9.3906813   2.0837099  )
        61           O1  tau(  61) = (   7.3825489   6.2171049   6.6796391  )
        62           O1  tau(  62) = (  13.2616849   6.2172077   6.6797101  )
        63           O1  tau(  63) = (  10.6086452  11.1320356   6.6797101  )
        64           O1  tau(  64) = (  16.4877813  11.1321384   6.6797811  )
        65           O1  tau(  65) = (   6.3089285   4.3470718   4.3816035  )
        66           O1  tau(  66) = (  12.1880646   4.3471746   4.3816745  )
        67           O1  tau(  67) = (   9.5350249   9.2620024   4.3816745  )
        68           O1  tau(  68) = (  15.4141609   9.2621052   4.3817455  )
        69           O1  tau(  69) = (   9.5350249   6.0885288   8.9776747  )
        70           O1  tau(  70) = (  15.4141609   6.0886317   8.9777457  )
        71           O1  tau(  71) = (  12.7611212  11.0034595   8.9777457  )
        72           O1  tau(  72) = (  18.6402573  11.0035623   8.9778167  )
        73           O1  tau(  73) = (   5.2353082   1.5355466   3.4470889  )
        74           O1  tau(  74) = (  11.1144442   1.5356494   3.4471599  )
        75           O1  tau(  75) = (   8.4614045   6.4504772   3.4471599  )
        76           O1  tau(  76) = (  14.3405406   6.4505800   3.4472309  )
        77           O1  tau(  77) = (   8.4614045   3.2770037   8.0431601  )
        78           O1  tau(  78) = (  14.3405406   3.2771065   8.0432311  )
        79           O1  tau(  79) = (  11.6875008   8.1919343   8.0432311  )
        80           O1  tau(  80) = (  17.5666369   8.1920371   8.0433021  )

     number of k points=    14  Gaussian smearing, width (Ry)=  0.0073
                       cart. coord. in units 2pi/alat
        k(    1) = (   0.0000000   0.0000000   0.0000000), wk =   0.0370370
        k(    2) = (  -0.0000004  -0.0000002   0.0362633), wk =   0.0740741
        k(    3) = (  -0.0000004   0.0339108  -0.0128485), wk =   0.0740741
        k(    4) = (  -0.0000009   0.0339105   0.0234147), wk =   0.0740741
        k(    5) = (  -0.0000000   0.0339110  -0.0491118), wk =   0.0740741
        k(    6) = (   0.0283493  -0.0186079  -0.0128485), wk =   0.0740741
        k(    7) = (   0.0283489  -0.0186082   0.0234147), wk =   0.0740741
        k(    8) = (   0.0283498  -0.0186077  -0.0491118), wk =   0.0740741
        k(    9) = (   0.0283489   0.0153028  -0.0256970), wk =   0.0740741
        k(   10) = (   0.0283484   0.0153026   0.0105662), wk =   0.0740741
        k(   11) = (   0.0283493   0.0153031  -0.0619603), wk =   0.0740741
        k(   12) = (   0.0283498  -0.0525187  -0.0000000), wk =   0.0740741
        k(   13) = (   0.0283493  -0.0525189   0.0362633), wk =   0.0740741
        k(   14) = (   0.0283502  -0.0525185  -0.0362633), wk =   0.0740741

     Dense  grid:  1435587 G-vectors     FFT dimensions: ( 162, 162, 162)

     Smooth grid:   507593 G-vectors     FFT dimensions: ( 120, 120, 120)

     Estimated max dynamical RAM per process >       1.24 GB

     Estimated total dynamical RAM >      19.91 GB
     Generating pointlists ...
     new r_m :   0.8903 (alat units)  1.6823 (a.u.) for type    1
     new r_m :   0.8903 (alat units)  1.6823 (a.u.) for type    2

     Initial potential from superposition of free atoms

     starting charge  703.88090, renormalised to  704.00000
     Starting wfcs are  480 randomized atomic wfcs
     Checking if some PAW data can be deallocated... 

     total cpu time spent up to now is      284.1 secs

     Self-consistent Calculation

     iteration #  1     ecut=    65.00 Ry     beta= 0.50
     Davidson diagonalization with overlap
     ethr =  1.00E-02,  avg # of iterations =  2.0

     total cpu time spent up to now is      898.6 secs

     total energy              =   -6627.38090133 Ry
     estimated scf accuracy    <      22.66478968 Ry

     total magnetization       =    -0.00 Bohr mag/cell
     absolute magnetization    =     0.06 Bohr mag/cell

     iteration #  2     ecut=    65.00 Ry     beta= 0.50
     Davidson diagonalization with overlap
     ethr =  3.22E-03,  avg # of iterations =  4.0

     total cpu time spent up to now is     1795.5 secs

     total energy              =   -6635.48934077 Ry
     estimated scf accuracy    <       8.35774110 Ry

     total magnetization       =     0.00 Bohr mag/cell
     absolute magnetization    =     0.04 Bohr mag/cell

     iteration #  3     ecut=    65.00 Ry     beta= 0.50
     Davidson diagonalization with overlap
     ethr =  1.19E-03,  avg # of iterations =  2.2

     total cpu time spent up to now is     2502.1 secs

     total energy              =   -6636.77381340 Ry
     estimated scf accuracy    <       0.33992837 Ry

     total magnetization       =     0.00 Bohr mag/cell
     absolute magnetization    =     0.03 Bohr mag/cell

     iteration #  4     ecut=    65.00 Ry     beta= 0.50
     Davidson diagonalization with overlap
     ethr =  4.83E-05,  avg # of iterations =  7.1

     total cpu time spent up to now is     3681.7 secs

     total energy              =   -6636.92291083 Ry
     estimated scf accuracy    <       0.82039548 Ry

     total magnetization       =    -0.00 Bohr mag/cell
     absolute magnetization    =     0.01 Bohr mag/cell

     iteration #  5     ecut=    65.00 Ry     beta= 0.50
     Davidson diagonalization with overlap
     ethr =  4.83E-05,  avg # of iterations =  3.6

     total cpu time spent up to now is     4475.2 secs

     total energy              =   -6637.02016630 Ry
     estimated scf accuracy    <       0.03507706 Ry

     total magnetization       =     0.00 Bohr mag/cell
     absolute magnetization    =     0.01 Bohr mag/cell

     iteration #  6     ecut=    65.00 Ry     beta= 0.50
     Davidson diagonalization with overlap
     c_bands:  1 eigenvalues not converged
     ethr =  4.98E-06,  avg # of iterations = 10.4

     total cpu time spent up to now is     5567.4 secs

     total energy              =   -6637.03717124 Ry
     estimated scf accuracy    <       0.00548428 Ry

     total magnetization       =    -0.00 Bohr mag/cell
     absolute magnetization    =     0.01 Bohr mag/cell

     iteration #  7     ecut=    65.00 Ry     beta= 0.50
     Davidson diagonalization with overlap
     c_bands:  3 eigenvalues not converged
     c_bands:  1 eigenvalues not converged
     c_bands:  3 eigenvalues not converged
     ethr =  7.79E-07,  avg # of iterations =  5.4

     total cpu time spent up to now is     6317.3 secs

     total energy              =   -6637.03701141 Ry
     estimated scf accuracy    <       0.00165947 Ry

     total magnetization       =     0.00 Bohr mag/cell
     absolute magnetization    =     0.01 Bohr mag/cell

     iteration #  8     ecut=    65.00 Ry     beta= 0.50
     Davidson diagonalization with overlap
     c_bands:  2 eigenvalues not converged
     c_bands:  3 eigenvalues not converged
     c_bands:  1 eigenvalues not converged
     c_bands:  3 eigenvalues not converged
     c_bands:  1 eigenvalues not converged
     c_bands:  4 eigenvalues not converged
     ethr =  2.36E-07,  avg # of iterations =  6.8

     total cpu time spent up to now is     7150.8 secs

     total energy              =   -6637.03747110 Ry
     estimated scf accuracy    <       0.00000984 Ry

     total magnetization       =     0.00 Bohr mag/cell
     absolute magnetization    =     0.00 Bohr mag/cell

     iteration #  9     ecut=    65.00 Ry     beta= 0.50
     Davidson diagonalization with overlap
     c_bands:  1 eigenvalues not converged
     c_bands:  3 eigenvalues not converged
     ethr =  1.40E-09,  avg # of iterations =  9.4

     total cpu time spent up to now is     9208.8 secs

     total energy              =   -6637.03751013 Ry
     estimated scf accuracy    <       0.00002211 Ry

     total magnetization       =    -0.00 Bohr mag/cell
     absolute magnetization    =     0.00 Bohr mag/cell

     iteration # 10     ecut=    65.00 Ry     beta= 0.50
     Davidson diagonalization with overlap
     c_bands:  1 eigenvalues not converged
     ethr =  1.40E-09,  avg # of iterations =  3.9

     total cpu time spent up to now is    10033.4 secs

     total energy              =   -6637.03751421 Ry
     estimated scf accuracy    <       0.00000009 Ry

     total magnetization       =     0.00 Bohr mag/cell
     absolute magnetization    =     0.00 Bohr mag/cell

     iteration # 11     ecut=    65.00 Ry     beta= 0.50
     Davidson diagonalization with overlap
     c_bands:  4 eigenvalues not converged
     ethr =  1.30E-11,  avg # of iterations =  7.0

     total cpu time spent up to now is    11614.9 secs

     total energy              =   -6637.03751440 Ry
     estimated scf accuracy    <       0.00000006 Ry

     total magnetization       =    -0.00 Bohr mag/cell
     absolute magnetization    =     0.00 Bohr mag/cell

     iteration # 12     ecut=    65.00 Ry     beta= 0.50
     Davidson diagonalization with overlap
     c_bands:  2 eigenvalues not converged
     ethr =  8.20E-12,  avg # of iterations =  2.7

     total cpu time spent up to now is    12295.6 secs

     total energy              =   -6637.03751439 Ry
     estimated scf accuracy    <       0.00000002 Ry

     total magnetization       =     0.00 Bohr mag/cell
     absolute magnetization    =     0.00 Bohr mag/cell

     iteration # 13     ecut=    65.00 Ry     beta= 0.50
     Davidson diagonalization with overlap
     ethr =  3.10E-12,  avg # of iterations =  2.5

     total cpu time spent up to now is    12906.4 secs

     total energy              =   -6637.03751439 Ry
     estimated scf accuracy    <       0.00000001 Ry

     total magnetization       =     0.00 Bohr mag/cell
     absolute magnetization    =     0.00 Bohr mag/cell

     iteration # 14     ecut=    65.00 Ry     beta= 0.50
     Davidson diagonalization with overlap
     ethr =  1.87E-12,  avg # of iterations =  2.4

     Magnetic moment per site:
     atom:    1    charge:    9.3971    magn:   -0.0000    constr:    0.0000
     atom:    2    charge:    9.3971    magn:   -0.0000    constr:    0.0000
     atom:    3    charge:    9.3971    magn:   -0.0000    constr:    0.0000
     atom:    4    charge:    9.3971    magn:   -0.0000    constr:    0.0000
     atom:    5    charge:    9.3971    magn:   -0.0000    constr:    0.0000
     atom:    6    charge:    9.3971    magn:   -0.0000    constr:    0.0000
     atom:    7    charge:    9.3971    magn:   -0.0000    constr:    0.0000
     atom:    8    charge:    9.3971    magn:   -0.0000    constr:    0.0000
     atom:    9    charge:    9.3969    magn:   -0.0000    constr:    0.0000
     atom:   10    charge:    9.3969    magn:   -0.0000    constr:    0.0000
     atom:   11    charge:    9.3969    magn:   -0.0000    constr:    0.0000
     atom:   12    charge:    9.3969    magn:   -0.0000    constr:    0.0000
     atom:   13    charge:    9.3969    magn:   -0.0000    constr:    0.0000
     atom:   14    charge:    9.3969    magn:   -0.0000    constr:    0.0000
     atom:   15    charge:    9.3969    magn:   -0.0000    constr:    0.0000
     atom:   16    charge:    9.3969    magn:   -0.0000    constr:    0.0000
     atom:   17    charge:    9.3969    magn:   -0.0000    constr:    0.0000
     atom:   18    charge:    9.3969    magn:   -0.0000    constr:    0.0000
     atom:   19    charge:    9.3969    magn:   -0.0000    constr:    0.0000
     atom:   20    charge:    9.3969    magn:   -0.0000    constr:    0.0000
     atom:   21    charge:    9.3969    magn:   -0.0000    constr:    0.0000
     atom:   22    charge:    9.3969    magn:   -0.0000    constr:    0.0000
     atom:   23    charge:    9.3969    magn:   -0.0000    constr:    0.0000
     atom:   24    charge:    9.3969    magn:   -0.0000    constr:    0.0000
     atom:   25    charge:    9.3971    magn:   -0.0000    constr:    0.0000
     atom:   26    charge:    9.3971    magn:   -0.0000    constr:    0.0000
     atom:   27    charge:    9.3971    magn:   -0.0000    constr:    0.0000
     atom:   28    charge:    9.3971    magn:   -0.0000    constr:    0.0000
     atom:   29    charge:    9.3971    magn:   -0.0000    constr:    0.0000
     atom:   30    charge:    9.3971    magn:   -0.0000    constr:    0.0000
     atom:   31    charge:    9.3971    magn:   -0.0000    constr:    0.0000
     atom:   32    charge:    9.3971    magn:   -0.0000    constr:    0.0000
     atom:   33    charge:    5.8033    magn:    0.0000    constr:    0.0000
     atom:   34    charge:    5.8033    magn:    0.0000    constr:    0.0000
     atom:   35    charge:    5.8033    magn:    0.0000    constr:    0.0000
     atom:   36    charge:    5.8033    magn:    0.0000    constr:    0.0000
     atom:   37    charge:    5.8033    magn:    0.0000    constr:    0.0000
     atom:   38    charge:    5.8033    magn:    0.0000    constr:    0.0000
     atom:   39    charge:    5.8033    magn:    0.0000    constr:    0.0000
     atom:   40    charge:    5.8033    magn:    0.0000    constr:    0.0000
     atom:   41    charge:    5.8033    magn:    0.0000    constr:    0.0000
     atom:   42    charge:    5.8033    magn:    0.0000    constr:    0.0000
     atom:   43    charge:    5.8033    magn:    0.0000    constr:    0.0000
     atom:   44    charge:    5.8033    magn:    0.0000    constr:    0.0000
     atom:   45    charge:    5.8033    magn:    0.0000    constr:    0.0000
     atom:   46    charge:    5.8033    magn:    0.0000    constr:    0.0000
     atom:   47    charge:    5.8033    magn:    0.0000    constr:    0.0000
     atom:   48    charge:    5.8033    magn:    0.0000    constr:    0.0000
     atom:   49    charge:    5.8033    magn:    0.0000    constr:    0.0000
     atom:   50    charge:    5.8033    magn:    0.0000    constr:    0.0000
     atom:   51    charge:    5.8033    magn:    0.0000    constr:    0.0000
     atom:   52    charge:    5.8033    magn:    0.0000    constr:    0.0000
     atom:   53    charge:    5.8033    magn:    0.0000    constr:    0.0000
     atom:   54    charge:    5.8033    magn:    0.0000    constr:    0.0000
     atom:   55    charge:    5.8033    magn:    0.0000    constr:    0.0000
     atom:   56    charge:    5.8033    magn:    0.0000    constr:    0.0000
     atom:   57    charge:    5.8033    magn:    0.0000    constr:    0.0000
     atom:   58    charge:    5.8033    magn:    0.0000    constr:    0.0000
     atom:   59    charge:    5.8033    magn:    0.0000    constr:    0.0000
     atom:   60    charge:    5.8033    magn:    0.0000    constr:    0.0000
     atom:   61    charge:    5.8033    magn:    0.0000    constr:    0.0000
     atom:   62    charge:    5.8033    magn:    0.0000    constr:    0.0000
     atom:   63    charge:    5.8033    magn:    0.0000    constr:    0.0000
     atom:   64    charge:    5.8033    magn:    0.0000    constr:    0.0000
     atom:   65    charge:    5.8033    magn:    0.0000    constr:    0.0000
     atom:   66    charge:    5.8033    magn:    0.0000    constr:    0.0000
     atom:   67    charge:    5.8033    magn:    0.0000    constr:    0.0000
     atom:   68    charge:    5.8033    magn:    0.0000    constr:    0.0000
     atom:   69    charge:    5.8033    magn:    0.0000    constr:    0.0000
     atom:   70    charge:    5.8033    magn:    0.0000    constr:    0.0000
     atom:   71    charge:    5.8033    magn:    0.0000    constr:    0.0000
     atom:   72    charge:    5.8033    magn:    0.0000    constr:    0.0000
     atom:   73    charge:    5.8033    magn:    0.0000    constr:    0.0000
     atom:   74    charge:    5.8033    magn:    0.0000    constr:    0.0000
     atom:   75    charge:    5.8033    magn:    0.0000    constr:    0.0000
     atom:   76    charge:    5.8033    magn:    0.0000    constr:    0.0000
     atom:   77    charge:    5.8033    magn:    0.0000    constr:    0.0000
     atom:   78    charge:    5.8033    magn:    0.0000    constr:    0.0000
     atom:   79    charge:    5.8033    magn:    0.0000    constr:    0.0000
     atom:   80    charge:    5.8033    magn:    0.0000    constr:    0.0000

     total cpu time spent up to now is    13620.6 secs

     End of self-consistent calculation

 ------ SPIN UP ------------


          k = 0.0000 0.0000 0.0000 ( 63395 PWs)   bands (ev):

    -9.2334  -8.8483  -8.8483  -8.8483  -8.7276  -8.7276  -8.7271  -8.7271
    -8.7271  -8.7271  -8.7271  -8.7271  -8.6112  -8.6112  -8.6112  -8.4637
    -8.4637  -8.4637  -8.4446  -8.4446  -8.3600  -8.3600  -8.3600  -8.3600
    -8.3600  -8.3600  -8.3494  -8.3494  -8.3494  -8.3494  -8.3317  -8.3317
    -8.3317  -8.3264  -8.3264  -8.3264  -8.3200  -8.3200  -8.3200  -8.3200
    -8.3200  -8.3200  -8.2492  -8.2492  -8.1606  -8.1591  -8.1591  -8.1591
    -4.3160  -4.3160  -4.2842  -4.2842  -4.2842  -4.2668  -4.2668  -4.2668
    -4.2668  -4.2668  -4.2668  -4.2446  -4.2446  -4.2446  -4.2299  -4.2298
    -4.2174  -4.2174  -4.2174  -4.2152  -4.2152  -4.2152  -4.2152  -4.1929
    -4.1864  -4.1864  -4.1864  -4.1820  -4.1820  -4.1775  -4.1775  -4.1775
    -4.1568  -4.1568  -4.1568  -4.1568  -4.1568  -4.1568  -4.1391  -4.1391
    -4.1391  -4.1258  -4.1258  -4.1258  -4.1231  -4.1231  -4.1231  -4.1152
    -4.1152  -4.1152  -4.1152  -4.1152  -4.1152  -4.0948  -4.0948  -4.0948
    -4.0948  -4.0948  -4.0948  -4.0770  -4.0770  -4.0770  -4.0703  -4.0703
    -4.0703  -4.0703  -4.0643  -4.0511  -4.0511  -4.0161  -4.0161  -4.0148
    -4.0148  -4.0148  -4.0148  -4.0148  -4.0148  -3.9757  -3.9757  -3.9660
    -3.9660  -3.9660  -3.9646  -3.9646  -3.9646  -3.9646  -3.9646  -3.9646
    -3.9502  -3.9502  -3.9502  -3.9332  -3.9332  -3.9332  -3.9286  -3.9286
    -3.9286  -3.8884  -3.8884  -3.8884  -3.8884  -3.8760  -3.8760  -3.8741
    -3.8657  -3.8657  -3.8657  -3.8657  -3.8657  -3.8657  -3.8612  -3.8591
    -3.8591  -3.8591  -3.8591  -3.8591  -3.8591  -3.8471  -3.8471  -3.8471
    -3.8316  -3.8316  -3.8316  -3.7933  -3.7933  -3.7933  -3.7835  -3.7835
    -3.7320  -3.7320  -3.7320  -3.6893  -3.6893  -3.6893  -3.6002  -3.6002
    -3.4763  -3.4763  -3.4763  -3.4763  -3.4763  -3.4763  -3.3522  -3.3522
    -3.3522  -3.3522  -3.3173  -3.3173  -3.3173  -3.3044  -3.3044  -3.3044
    -3.3044  -3.3044  -3.3044  -2.9631  -2.9631  -2.8478  -2.8478  -2.8478
     2.6339   3.0034   3.1910   3.1910   3.1910   3.1910   3.1910   3.1910
     3.2106   3.2106   3.2106   3.2880   3.2880   3.7059   3.7059   3.7059
     3.9336   3.9336   3.9336   3.9336   3.9336   3.9336   4.2684   4.2684
     4.4444   4.4444   4.4444   4.4510   4.4510   4.4510   4.5744   4.5744
     4.8975   4.8975   4.8975   4.9686   5.2060   5.3173   5.3173   5.3173
     5.3173   5.3630   5.3630   5.3630   5.3829   5.3829   5.3829   5.4468
     5.4468   5.4468   5.4468   5.4468   5.4468   5.5941   5.5941   5.8030
     5.9253   5.9253   5.9254   5.9254   5.9254   5.9254   5.9336   5.9336
     5.9336   6.0372   6.0372   6.0372   6.2316   6.2316   6.2316   6.2327
     6.2327   6.6556   6.6556   6.6556   6.6556   6.6556   6.6556   7.0646
     7.0646   7.0646   7.0646   7.0672   7.0672   7.0672   7.1523   7.1523
     7.1523   7.1729   7.1729   7.1729   7.1729   7.1729   7.1729   7.1749
     7.1749   7.1749   7.2637   7.2637   7.2637   7.2637   7.2637   7.2637
     7.3070   7.3070   7.3070   7.3697   7.3697   7.3751   7.3751   7.3751
     7.3751   7.3751   7.3751   7.5653   7.5653   7.5653   7.6626   7.7420
     7.7420   7.7420   7.7492   7.7492   7.8555   7.8555   7.8995   7.8995
     7.8995   7.8995   7.9907   7.9907   7.9907   7.9998   7.9998   8.0292
     8.0292   8.0292   8.0292   8.0292   8.0292   8.0429   8.0429   8.0429
     9.0291  12.1671  12.1671  12.6919  12.6919  12.6920  12.6920  12.6920
    12.6920  12.8716  12.8716  12.8716  13.2479  13.2479  13.2479  13.4080
    13.6101  13.6101  13.6101  13.6101

          k =-0.0000-0.0000 0.0363 ( 63469 PWs)   bands (ev):

    -9.1645  -8.9776  -8.8415  -8.8407  -8.8407  -8.8058  -8.8042  -8.8042
    -8.6417  -8.6415  -8.6415  -8.6113  -8.6095  -8.6095  -8.4844  -8.4497
    -8.4497  -8.4449  -8.4357  -8.4305  -8.4109  -8.4109  -8.4045  -8.4015
    -8.3888  -8.3851  -8.3662  -8.3662  -8.3584  -8.3509  -8.3509  -8.3241
    -8.3227  -8.3227  -8.3224  -8.3214  -8.3214  -8.3092  -8.3037  -8.2665
    -8.2639  -8.2516  -8.2516  -8.2476  -8.1902  -8.1866  -8.1853  -8.1853
    -4.2997  -4.2898  -4.2854  -4.2806  -4.2806  -4.2795  -4.2783  -4.2783
    -4.2641  -4.2548  -4.2548  -4.2491  -4.2484  -4.2484  -4.2267  -4.2239
    -4.2229  -4.2224  -4.2155  -4.2155  -4.2103  -4.2070  -4.2007  -4.1979
    -4.1979  -4.1944  -4.1944  -4.1864  -4.1804  -4.1781  -4.1659  -4.1615
    -4.1611  -4.1610  -4.1610  -4.1544  -4.1539  -4.1539  -4.1496  -4.1496
    -4.1465  -4.1436  -4.1436  -4.1415  -4.1369  -4.1218  -4.1218  -4.1183
    -4.1170  -4.1170  -4.1037  -4.1012  -4.1012  -4.0987  -4.0924  -4.0924
    -4.0856  -4.0833  -4.0833  -4.0732  -4.0688  -4.0661  -4.0567  -4.0562
    -4.0465  -4.0431  -4.0370  -4.0315  -4.0272  -4.0272  -4.0269  -4.0219
    -4.0219  -4.0189  -4.0175  -4.0055  -4.0055  -3.9878  -3.9878  -3.9874
    -3.9874  -3.9824  -3.9715  -3.9707  -3.9688  -3.9688  -3.9596  -3.9596
    -3.9539  -3.9530  -3.9439  -3.9439  -3.9376  -3.9314  -3.9268  -3.9242
    -3.9098  -3.9027  -3.9009  -3.9007  -3.9007  -3.8947  -3.8942  -3.8942
    -3.8891  -3.8822  -3.8737  -3.8706  -3.8687  -3.8672  -3.8591  -3.8591
    -3.8587  -3.8587  -3.8445  -3.8445  -3.8400  -3.8400  -3.8310  -3.8222
    -3.8222  -3.8062  -3.8062  -3.7960  -3.7925  -3.7924  -3.7723  -3.7505
    -3.7279  -3.6955  -3.6894  -3.6894  -3.6645  -3.6257  -3.6243  -3.6243
    -3.5957  -3.5857  -3.5693  -3.5693  -3.5600  -3.5422  -3.5073  -3.5073
    -3.3650  -3.3650  -3.3266  -3.3266  -3.2647  -3.2191  -3.1997  -3.1211
    -3.1211  -3.1149  -3.0752  -3.0630  -2.9961  -2.9311  -2.9311  -2.9050
     2.7473   2.9958   3.0025   3.2064   3.2121   3.2157   3.3065   3.3065
     3.3105   3.3105   3.3865   3.3865   3.4964   3.5261   3.5768   3.5768
     3.6359   3.6359   3.8008   3.9354   3.9605   3.9606   3.9641   4.1343
     4.2518   4.2518   4.5256   4.5256   4.6145   4.6242   4.6332   4.6926
     4.7767   4.9850   4.9850   5.0989   5.1104   5.1269   5.1835   5.2841
     5.3119   5.3119   5.3225   5.3225   5.3662   5.3662   5.3952   5.4349
     5.5107   5.6208   5.6208   5.6565   5.6830   5.6897   5.8136   5.8136
     5.8440   5.8469   5.9728   5.9731   5.9731   6.0265   6.0265   6.1317
     6.1317   6.1637   6.1740   6.2037   6.2255   6.2524   6.2524   6.2654
     6.4165   6.4165   6.4838   6.5315   6.5400   6.5873   6.6422   6.6891
     6.6891   6.7819   6.7819   6.9016   6.9295   6.9374   6.9649   6.9649
     7.0098   7.0503   7.0503   7.1192   7.1192   7.1817   7.2074   7.2074
     7.2301   7.2301   7.2561   7.2591   7.2677   7.3030   7.3057   7.4354
     7.4398   7.4398   7.4737   7.4956   7.5359   7.5599   7.5599   7.5826
     7.5830   7.5830   7.6182   7.6287   7.6303   7.6576   7.6636   7.6636
     7.6740   7.7224   7.7224   7.7228   7.7884   7.7884   7.8028   7.8029
     7.8606   7.8855   7.9125   7.9125   7.9169   7.9177   7.9198   7.9198
     7.9323   7.9626   7.9626   7.9670   8.0126   8.0126   8.0406   8.0897
     9.9490  11.3470  12.1355  12.3788  12.3788  12.4936  12.5367  12.5367
    12.7633  13.2134  13.2134  13.4335  13.4335  13.5786  13.6001  13.6693
    13.6702  13.6723  13.7267  13.7423

          k =-0.0000 0.0339-0.0128 ( 63469 PWs)   bands (ev):

    -9.1645  -8.9776  -8.8415  -8.8407  -8.8407  -8.8058  -8.8042  -8.8042
    -8.6417  -8.6415  -8.6415  -8.6113  -8.6095  -8.6095  -8.4844  -8.4497
    -8.4497  -8.4449  -8.4357  -8.4305  -8.4109  -8.4109  -8.4045  -8.4015
    -8.3888  -8.3851  -8.3662  -8.3662  -8.3584  -8.3509  -8.3509  -8.3241
    -8.3227  -8.3227  -8.3224  -8.3214  -8.3214  -8.3092  -8.3037  -8.2665
    -8.2639  -8.2516  -8.2516  -8.2476  -8.1902  -8.1866  -8.1853  -8.1853
    -4.2997  -4.2898  -4.2854  -4.2806  -4.2806  -4.2795  -4.2783  -4.2783
    -4.2641  -4.2548  -4.2548  -4.2491  -4.2484  -4.2484  -4.2267  -4.2239
    -4.2229  -4.2224  -4.2155  -4.2155  -4.2103  -4.2070  -4.2007  -4.1979
    -4.1979  -4.1944  -4.1944  -4.1864  -4.1804  -4.1781  -4.1659  -4.1615
    -4.1611  -4.1610  -4.1610  -4.1544  -4.1539  -4.1539  -4.1496  -4.1496
    -4.1465  -4.1436  -4.1436  -4.1415  -4.1369  -4.1218  -4.1218  -4.1183
    -4.1170  -4.1170  -4.1037  -4.1012  -4.1012  -4.0987  -4.0924  -4.0924
    -4.0856  -4.0833  -4.0833  -4.0732  -4.0688  -4.0661  -4.0567  -4.0562
    -4.0465  -4.0431  -4.0370  -4.0315  -4.0272  -4.0272  -4.0269  -4.0219
    -4.0219  -4.0189  -4.0175  -4.0055  -4.0055  -3.9878  -3.9878  -3.9874
    -3.9874  -3.9824  -3.9715  -3.9707  -3.9688  -3.9688  -3.9596  -3.9596
    -3.9539  -3.9530  -3.9439  -3.9439  -3.9376  -3.9314  -3.9268  -3.9242
    -3.9098  -3.9027  -3.9009  -3.9007  -3.9007  -3.8947  -3.8942  -3.8942
    -3.8891  -3.8822  -3.8737  -3.8706  -3.8687  -3.8672  -3.8591  -3.8591
    -3.8587  -3.8587  -3.8445  -3.8445  -3.8400  -3.8400  -3.8310  -3.8222
    -3.8222  -3.8062  -3.8062  -3.7960  -3.7925  -3.7924  -3.7723  -3.7505
    -3.7279  -3.6955  -3.6894  -3.6894  -3.6645  -3.6257  -3.6243  -3.6243
    -3.5957  -3.5857  -3.5693  -3.5693  -3.5600  -3.5422  -3.5073  -3.5073
    -3.3650  -3.3650  -3.3266  -3.3266  -3.2647  -3.2191  -3.1997  -3.1211
    -3.1211  -3.1149  -3.0752  -3.0630  -2.9961  -2.9311  -2.9311  -2.9050
     2.7473   2.9958   3.0025   3.2064   3.2121   3.2157   3.3065   3.3065
     3.3105   3.3105   3.3864   3.3864   3.4964   3.5261   3.5768   3.5768
     3.6359   3.6359   3.8008   3.9354   3.9605   3.9605   3.9641   4.1343
     4.2518   4.2518   4.5256   4.5256   4.6145   4.6242   4.6332   4.6926
     4.7767   4.9850   4.9850   5.0989   5.1104   5.1269   5.1835   5.2841
     5.3119   5.3119   5.3225   5.3225   5.3662   5.3662   5.3952   5.4350
     5.5107   5.6208   5.6208   5.6565   5.6830   5.6897   5.8136   5.8136
     5.8440   5.8469   5.9728   5.9731   5.9731   6.0265   6.0265   6.1317
     6.1317   6.1637   6.1740   6.2037   6.2255   6.2524   6.2524   6.2654
     6.4165   6.4165   6.4838   6.5315   6.5400   6.5873   6.6422   6.6891
     6.6891   6.7819   6.7819   6.9016   6.9295   6.9374   6.9649   6.9649
     7.0098   7.0502   7.0503   7.1192   7.1192   7.1817   7.2074   7.2074
     7.2300   7.2301   7.2561   7.2591   7.2677   7.3030   7.3057   7.4354
     7.4398   7.4398   7.4737   7.4956   7.5359   7.5599   7.5599   7.5826
     7.5830   7.5830   7.6182   7.6287   7.6303   7.6576   7.6636   7.6636
     7.6740   7.7224   7.7224   7.7228   7.7884   7.7884   7.8028   7.8029
     7.8606   7.8855   7.9125   7.9125   7.9169   7.9177   7.9198   7.9198
     7.9323   7.9626   7.9626   7.9670   8.0126   8.0126   8.0406   8.0897
     9.9490  11.3470  12.1355  12.3788  12.3788  12.4936  12.5367  12.5367
    12.7633  13.2134  13.2134  13.4335  13.4335  13.5795  13.6001  13.6693
    13.6702  13.7267  13.7398  13.7885

          k =-0.0000 0.0339 0.0234 ( 63470 PWs)   bands (ev):

    -9.1466  -8.9554  -8.8745  -8.8731  -8.8623  -8.8623  -8.7788  -8.7788
    -8.6512  -8.6512  -8.5897  -8.5897  -8.5719  -8.5705  -8.5500  -8.4618
    -8.4551  -8.4551  -8.4373  -8.4373  -8.4250  -8.4229  -8.4221  -8.4061
    -8.3904  -8.3904  -8.3583  -8.3530  -8.3451  -8.3364  -8.3364  -8.3262
    -8.3223  -8.3136  -8.3049  -8.2992  -8.2992  -8.2843  -8.2843  -8.2829
    -8.2715  -8.2715  -8.2622  -8.2358  -8.2136  -8.1986  -8.1986  -8.1920
    -4.3091  -4.2933  -4.2832  -4.2783  -4.2745  -4.2745  -4.2736  -4.2736
    -4.2711  -4.2510  -4.2510  -4.2485  -4.2485  -4.2374  -4.2350  -4.2305
    -4.2254  -4.2158  -4.2128  -4.2109  -4.2109  -4.2062  -4.2019  -4.2019
    -4.1992  -4.1864  -4.1820  -4.1817  -4.1817  -4.1778  -4.1757  -4.1708
    -4.1687  -4.1687  -4.1662  -4.1576  -4.1576  -4.1477  -4.1474  -4.1474
    -4.1464  -4.1464  -4.1430  -4.1430  -4.1314  -4.1273  -4.1187  -4.1187
    -4.1146  -4.1059  -4.1059  -4.1009  -4.0991  -4.0991  -4.0970  -4.0966
    -4.0817  -4.0808  -4.0808  -4.0808  -4.0804  -4.0763  -4.0623  -4.0514
    -4.0480  -4.0346  -4.0341  -4.0325  -4.0325  -4.0304  -4.0190  -4.0143
    -4.0050  -4.0044  -4.0044  -4.0010  -4.0010  -3.9917  -3.9917  -3.9790
    -3.9788  -3.9783  -3.9777  -3.9740  -3.9740  -3.9720  -3.9594  -3.9594
    -3.9592  -3.9584  -3.9584  -3.9414  -3.9414  -3.9363  -3.9304  -3.9277
    -3.9195  -3.9080  -3.9029  -3.9024  -3.9024  -3.9008  -3.9008  -3.8904
    -3.8873  -3.8768  -3.8688  -3.8679  -3.8598  -3.8593  -3.8553  -3.8553
    -3.8523  -3.8523  -3.8485  -3.8471  -3.8471  -3.8456  -3.8456  -3.8129
    -3.8048  -3.8048  -3.7886  -3.7856  -3.7849  -3.7657  -3.7657  -3.7556
    -3.7459  -3.7459  -3.7175  -3.7175  -3.6905  -3.6738  -3.6705  -3.6511
    -3.6400  -3.6400  -3.5536  -3.5204  -3.5199  -3.5051  -3.4055  -3.4055
    -3.3809  -3.3095  -3.3069  -3.3069  -3.2569  -3.2260  -3.2260  -3.2008
    -3.2008  -3.1444  -3.0435  -3.0243  -2.9664  -2.9664  -2.9458  -2.8879
     2.7535   3.0206   3.0733   3.1363   3.1363   3.1635   3.3372   3.3794
     3.3812   3.3812   3.3965   3.3965   3.4053   3.4214   3.5323   3.6186
     3.6186   3.7427   3.7427   3.8943   4.0175   4.0448   4.0592   4.0592
     4.2132   4.2132   4.3995   4.3995   4.5604   4.6215   4.7940   4.8364
     4.9089   4.9398   5.0455   5.0741   5.0741   5.1785   5.1785   5.2224
     5.2245   5.2251   5.2801   5.2801   5.2918   5.3812   5.3812   5.3990
     5.4620   5.5395   5.6539   5.6539   5.7259   5.7407   5.7407   5.7856
     5.7924   5.7924   5.8817   5.9642   6.0603   6.0962   6.0962   6.1511
     6.1649   6.1800   6.2481   6.2529   6.2529   6.4281   6.4281   6.4336
     6.4539   6.4937   6.4937   6.4964   6.5161   6.7033   6.7199   6.7413
     6.7413   6.7921   6.7921   6.8533   6.9545   6.9545   6.9727   6.9778
     6.9810   7.0199   7.0199   7.0480   7.0480   7.0545   7.0802   7.0899
     7.1098   7.2370   7.2370   7.2378   7.2378   7.3054   7.3061   7.3061
     7.3880   7.4025   7.4350   7.4586   7.4586   7.4959   7.5208   7.5208
     7.5566   7.5984   7.6031   7.6262   7.6646   7.6646   7.6820   7.7097
     7.7119   7.7637   7.7664   7.7664   7.8040   7.8064   7.8103   7.8284
     7.8284   7.8991   7.8992   7.9071   7.9136   7.9342   7.9614   7.9614
     7.9743   7.9786   7.9786   7.9970   8.0089   8.0145   8.0575   8.0575
    10.1461  11.7342  11.7907  11.9674  12.0660  12.0660  13.0138  13.0596
    13.0596  13.3167  13.3167  13.3601  13.3601  13.5166  13.5167  13.5826
    13.6417  13.6837  13.6838  13.8720

          k =-0.0000 0.0339-0.0491 ( 63467 PWs)   bands (ev):

    -9.0584  -9.0115  -9.0115  -8.8840  -8.8840  -8.7258  -8.7157  -8.7157
    -8.7146  -8.7146  -8.7016  -8.5713  -8.5713  -8.4933  -8.4933  -8.4566
    -8.4477  -8.4259  -8.4203  -8.4203  -8.4185  -8.4185  -8.4129  -8.4129
    -8.3956  -8.3956  -8.3858  -8.3858  -8.3744  -8.3687  -8.3687  -8.3622
    -8.3102  -8.3102  -8.3043  -8.3043  -8.2990  -8.2598  -8.2598  -8.2597
    -8.2529  -8.2529  -8.2277  -8.2277  -8.2277  -8.2269  -8.2198  -8.2198
    -4.2916  -4.2916  -4.2816  -4.2816  -4.2767  -4.2747  -4.2687  -4.2687
    -4.2675  -4.2558  -4.2527  -4.2527  -4.2412  -4.2412  -4.2309  -4.2309
    -4.2248  -4.2248  -4.2211  -4.2203  -4.2203  -4.2135  -4.2064  -4.2064
    -4.1920  -4.1916  -4.1916  -4.1825  -4.1825  -4.1733  -4.1726  -4.1726
    -4.1628  -4.1628  -4.1605  -4.1569  -4.1569  -4.1567  -4.1532  -4.1532
    -4.1513  -4.1513  -4.1323  -4.1323  -4.1306  -4.1300  -4.1162  -4.1162
    -4.1112  -4.1112  -4.0957  -4.0957  -4.0941  -4.0930  -4.0930  -4.0909
    -4.0909  -4.0838  -4.0665  -4.0665  -4.0609  -4.0609  -4.0586  -4.0515
    -4.0443  -4.0276  -4.0276  -4.0273  -4.0273  -4.0195  -4.0195  -4.0115
    -4.0090  -4.0054  -4.0054  -4.0035  -4.0035  -4.0026  -3.9997  -3.9997
    -3.9851  -3.9842  -3.9842  -3.9810  -3.9743  -3.9743  -3.9646  -3.9646
    -3.9630  -3.9534  -3.9534  -3.9520  -3.9400  -3.9400  -3.9388  -3.9388
    -3.9251  -3.9251  -3.9211  -3.9211  -3.9190  -3.8876  -3.8876  -3.8828
    -3.8809  -3.8809  -3.8708  -3.8708  -3.8564  -3.8559  -3.8526  -3.8526
    -3.8473  -3.8473  -3.8383  -3.8349  -3.8341  -3.8341  -3.8304  -3.8304
    -3.7855  -3.7817  -3.7817  -3.7773  -3.7773  -3.7758  -3.7586  -3.7586
    -3.7425  -3.7425  -3.7164  -3.7164  -3.6882  -3.6796  -3.6796  -3.6601
    -3.6224  -3.6224  -3.6041  -3.6041  -3.5803  -3.4897  -3.4521  -3.4521
    -3.3605  -3.3605  -3.2766  -3.2503  -3.2503  -3.1816  -3.1816  -3.1484
    -3.1222  -3.0997  -3.0654  -3.0654  -2.9735  -2.9735  -2.9575  -2.9575
     2.9177   3.0074   3.0074   3.0329   3.1878   3.1878   3.2293   3.2293
     3.4652   3.4652   3.4971   3.5519   3.5519   3.5559   3.5559   3.6151
     3.7076   3.7076   3.7308   3.7308   3.7721   3.8897   3.9034   3.9034
     3.9320   4.2403   4.2403   4.6839   4.7793   4.7793   4.8930   4.8930
     4.9959   4.9959   5.0393   5.0512   5.0512   5.1500   5.1500   5.1776
     5.1776   5.1922   5.2697   5.3513   5.3513   5.3658   5.3658   5.3916
     5.5086   5.6342   5.6342   5.6815   5.6815   5.7591   5.7591   5.7698
     5.7698   5.8103   5.9048   5.9048   5.9475   5.9475   6.1477   6.1642
     6.1788   6.1788   6.2352   6.3377   6.3377   6.4216   6.4216   6.4798
     6.5163   6.5174   6.5174   6.5206   6.5206   6.5540   6.7082   6.7082
     6.7141   6.8688   6.8688   6.8835   6.8835   6.8879   6.8879   6.9181
     6.9181   7.0406   7.0436   7.0513   7.0514   7.1054   7.1054   7.1511
     7.1906   7.2053   7.2054   7.2170   7.2171   7.3507   7.3507   7.3559
     7.3559   7.3614   7.3614   7.3732   7.4127   7.4609   7.4609   7.5701
     7.5780   7.5780   7.6044   7.6044   7.6118   7.6543   7.7043   7.7043
     7.7179   7.7179   7.8215   7.8215   7.8273   7.8273   7.8295   7.8718
     7.8718   7.8813   7.8813   7.8991   7.8991   7.9234   7.9430   7.9449
     7.9449   7.9559   7.9584   7.9584   8.0020   8.0367   8.0367   8.0923
    10.8423  11.1962  11.1962  11.9974  11.9974  12.8900  12.8900  12.9163
    13.0075  13.0075  13.2721  13.2753  13.5472  13.5638  13.5639  13.6415
    13.6415  13.6770  13.6770  13.8509

          k = 0.0283-0.0186-0.0128 ( 63469 PWs)   bands (ev):

    -9.1645  -8.9776  -8.8415  -8.8407  -8.8407  -8.8058  -8.8042  -8.8042
    -8.6417  -8.6415  -8.6415  -8.6113  -8.6095  -8.6095  -8.4844  -8.4497
    -8.4497  -8.4449  -8.4357  -8.4305  -8.4109  -8.4109  -8.4045  -8.4015
    -8.3888  -8.3851  -8.3662  -8.3662  -8.3584  -8.3509  -8.3509  -8.3241
    -8.3227  -8.3227  -8.3224  -8.3214  -8.3214  -8.3092  -8.3037  -8.2665
    -8.2639  -8.2516  -8.2516  -8.2476  -8.1902  -8.1866  -8.1853  -8.1853
    -4.2997  -4.2898  -4.2854  -4.2806  -4.2806  -4.2795  -4.2783  -4.2783
    -4.2641  -4.2548  -4.2548  -4.2491  -4.2484  -4.2484  -4.2267  -4.2239
    -4.2229  -4.2224  -4.2155  -4.2155  -4.2103  -4.2070  -4.2007  -4.1979
    -4.1979  -4.1944  -4.1944  -4.1864  -4.1804  -4.1781  -4.1659  -4.1615
    -4.1611  -4.1610  -4.1610  -4.1544  -4.1539  -4.1539  -4.1496  -4.1496
    -4.1465  -4.1436  -4.1436  -4.1415  -4.1369  -4.1218  -4.1218  -4.1183
    -4.1170  -4.1170  -4.1037  -4.1012  -4.1012  -4.0987  -4.0924  -4.0924
    -4.0856  -4.0833  -4.0833  -4.0732  -4.0688  -4.0661  -4.0567  -4.0562
    -4.0465  -4.0431  -4.0370  -4.0315  -4.0272  -4.0272  -4.0269  -4.0219
    -4.0219  -4.0189  -4.0175  -4.0055  -4.0055  -3.9878  -3.9878  -3.9874
    -3.9874  -3.9824  -3.9715  -3.9707  -3.9688  -3.9688  -3.9596  -3.9596
    -3.9539  -3.9530  -3.9439  -3.9439  -3.9376  -3.9314  -3.9268  -3.9242
    -3.9098  -3.9027  -3.9009  -3.9007  -3.9007  -3.8947  -3.8942  -3.8942
    -3.8891  -3.8822  -3.8737  -3.8706  -3.8687  -3.8672  -3.8591  -3.8591
    -3.8587  -3.8587  -3.8445  -3.8445  -3.8400  -3.8400  -3.8310  -3.8222
    -3.8222  -3.8062  -3.8062  -3.7960  -3.7925  -3.7924  -3.7723  -3.7505
    -3.7279  -3.6955  -3.6894  -3.6894  -3.6645  -3.6257  -3.6243  -3.6243
    -3.5957  -3.5857  -3.5693  -3.5693  -3.5600  -3.5422  -3.5073  -3.5073
    -3.3650  -3.3650  -3.3266  -3.3266  -3.2647  -3.2191  -3.1997  -3.1211
    -3.1211  -3.1149  -3.0752  -3.0630  -2.9961  -2.9311  -2.9311  -2.9050
     2.7473   2.9958   3.0025   3.2064   3.2121   3.2157   3.3065   3.3065
     3.3105   3.3105   3.3864   3.3864   3.4964   3.5261   3.5768   3.5768
     3.6359   3.6359   3.8008   3.9354   3.9605   3.9605   3.9641   4.1343
     4.2518   4.2518   4.5256   4.5256   4.6145   4.6242   4.6332   4.6926
     4.7767   4.9850   4.9850   5.0989   5.1104   5.1269   5.1835   5.2841
     5.3119   5.3119   5.3225   5.3225   5.3662   5.3662   5.3952   5.4350
     5.5107   5.6208   5.6208   5.6565   5.6830   5.6897   5.8136   5.8136
     5.8440   5.8469   5.9728   5.9731   5.9731   6.0265   6.0265   6.1317
     6.1317   6.1637   6.1740   6.2037   6.2255   6.2524   6.2524   6.2654
     6.4165   6.4165   6.4838   6.5315   6.5400   6.5873   6.6422   6.6891
     6.6891   6.7819   6.7819   6.9016   6.9295   6.9374   6.9649   6.9649
     7.0098   7.0502   7.0503   7.1192   7.1192   7.1817   7.2074   7.2074
     7.2300   7.2301   7.2561   7.2591   7.2677   7.3030   7.3057   7.4354
     7.4398   7.4398   7.4737   7.4956   7.5359   7.5599   7.5599   7.5826
     7.5830   7.5830   7.6182   7.6287   7.6303   7.6576   7.6636   7.6636
     7.6740   7.7224   7.7224   7.7228   7.7884   7.7884   7.8028   7.8029
     7.8606   7.8855   7.9125   7.9125   7.9169   7.9177   7.9198   7.9198
     7.9323   7.9626   7.9626   7.9670   8.0126   8.0126   8.0406   8.0897
     9.9490  11.3470  12.1355  12.3788  12.3788  12.4936  12.5367  12.5367
    12.7633  13.2134  13.2134  13.4335  13.4335  13.5787  13.6001  13.6693
    13.6715  13.6722  13.7267  13.7430

          k = 0.0283-0.0186 0.0234 ( 63470 PWs)   bands (ev):

    -9.1466  -8.9554  -8.8745  -8.8731  -8.8623  -8.8623  -8.7788  -8.7788
    -8.6512  -8.6512  -8.5897  -8.5897  -8.5719  -8.5705  -8.5500  -8.4618
    -8.4551  -8.4551  -8.4373  -8.4373  -8.4250  -8.4229  -8.4221  -8.4061
    -8.3904  -8.3904  -8.3583  -8.3530  -8.3451  -8.3364  -8.3364  -8.3262
    -8.3223  -8.3136  -8.3049  -8.2992  -8.2992  -8.2843  -8.2843  -8.2829
    -8.2715  -8.2715  -8.2622  -8.2358  -8.2136  -8.1986  -8.1986  -8.1920
    -4.3091  -4.2933  -4.2832  -4.2783  -4.2745  -4.2745  -4.2736  -4.2736
    -4.2711  -4.2510  -4.2510  -4.2485  -4.2485  -4.2374  -4.2350  -4.2305
    -4.2254  -4.2158  -4.2128  -4.2109  -4.2109  -4.2062  -4.2019  -4.2019
    -4.1992  -4.1864  -4.1820  -4.1817  -4.1817  -4.1778  -4.1757  -4.1708
    -4.1687  -4.1687  -4.1662  -4.1576  -4.1576  -4.1477  -4.1474  -4.1474
    -4.1464  -4.1464  -4.1430  -4.1430  -4.1314  -4.1273  -4.1187  -4.1187
    -4.1146  -4.1059  -4.1059  -4.1009  -4.0991  -4.0991  -4.0970  -4.0966
    -4.0817  -4.0808  -4.0808  -4.0808  -4.0804  -4.0763  -4.0623  -4.0514
    -4.0480  -4.0346  -4.0341  -4.0325  -4.0325  -4.0304  -4.0190  -4.0143
    -4.0050  -4.0044  -4.0044  -4.0010  -4.0010  -3.9917  -3.9917  -3.9790
    -3.9788  -3.9783  -3.9777  -3.9740  -3.9740  -3.9720  -3.9594  -3.9594
    -3.9592  -3.9584  -3.9584  -3.9414  -3.9414  -3.9363  -3.9304  -3.9277
    -3.9195  -3.9080  -3.9029  -3.9024  -3.9024  -3.9008  -3.9008  -3.8904
    -3.8873  -3.8768  -3.8688  -3.8679  -3.8598  -3.8593  -3.8553  -3.8553
    -3.8523  -3.8523  -3.8485  -3.8471  -3.8471  -3.8456  -3.8456  -3.8129
    -3.8048  -3.8048  -3.7886  -3.7856  -3.7849  -3.7657  -3.7657  -3.7556
    -3.7459  -3.7459  -3.7175  -3.7175  -3.6905  -3.6738  -3.6705  -3.6511
    -3.6400  -3.6400  -3.5536  -3.5204  -3.5199  -3.5051  -3.4055  -3.4055
    -3.3809  -3.3095  -3.3069  -3.3069  -3.2569  -3.2260  -3.2260  -3.2008
    -3.2008  -3.1444  -3.0435  -3.0243  -2.9664  -2.9664  -2.9458  -2.8879
     2.7535   3.0206   3.0733   3.1363   3.1363   3.1635   3.3372   3.3794
     3.3812   3.3812   3.3965   3.3965   3.4053   3.4214   3.5323   3.6186
     3.6186   3.7427   3.7427   3.8943   4.0175   4.0448   4.0592   4.0592
     4.2132   4.2132   4.3995   4.3995   4.5604   4.6215   4.7940   4.8364
     4.9089   4.9398   5.0455   5.0741   5.0741   5.1785   5.1785   5.2224
     5.2245   5.2251   5.2801   5.2801   5.2918   5.3812   5.3812   5.3990
     5.4620   5.5395   5.6539   5.6539   5.7259   5.7407   5.7407   5.7856
     5.7924   5.7924   5.8817   5.9642   6.0603   6.0962   6.0962   6.1511
     6.1649   6.1800   6.2481   6.2529   6.2529   6.4281   6.4281   6.4336
     6.4539   6.4937   6.4937   6.4964   6.5161   6.7033   6.7199   6.7413
     6.7413   6.7921   6.7921   6.8533   6.9545   6.9545   6.9727   6.9778
     6.9810   7.0199   7.0199   7.0480   7.0480   7.0545   7.0802   7.0899
     7.1098   7.2370   7.2370   7.2378   7.2378   7.3054   7.3061   7.3061
     7.3880   7.4025   7.4350   7.4586   7.4586   7.4959   7.5208   7.5208
     7.5566   7.5984   7.6031   7.6262   7.6646   7.6646   7.6820   7.7097
     7.7119   7.7637   7.7664   7.7664   7.8040   7.8064   7.8103   7.8284
     7.8284   7.8992   7.8992   7.9071   7.9136   7.9342   7.9614   7.9614
     7.9743   7.9786   7.9786   7.9970   8.0089   8.0145   8.0575   8.0575
    10.1461  11.7342  11.7907  11.9674  12.0660  12.0660  13.0138  13.0596
    13.0596  13.3165  13.3167  13.3601  13.3601  13.5166  13.5166  13.5826
    13.6417  13.6837  13.6837  13.8721

          k = 0.0283-0.0186-0.0491 ( 63467 PWs)   bands (ev):

    -9.0584  -9.0115  -9.0115  -8.8840  -8.8840  -8.7258  -8.7157  -8.7157
    -8.7146  -8.7146  -8.7016  -8.5713  -8.5713  -8.4933  -8.4933  -8.4566
    -8.4477  -8.4259  -8.4203  -8.4203  -8.4185  -8.4185  -8.4129  -8.4129
    -8.3956  -8.3956  -8.3858  -8.3858  -8.3744  -8.3687  -8.3687  -8.3622
    -8.3102  -8.3102  -8.3043  -8.3043  -8.2990  -8.2598  -8.2598  -8.2597
    -8.2529  -8.2529  -8.2277  -8.2277  -8.2277  -8.2269  -8.2198  -8.2198
    -4.2916  -4.2916  -4.2816  -4.2816  -4.2767  -4.2747  -4.2687  -4.2687
    -4.2675  -4.2558  -4.2527  -4.2527  -4.2412  -4.2412  -4.2309  -4.2309
    -4.2248  -4.2248  -4.2211  -4.2203  -4.2203  -4.2135  -4.2064  -4.2064
    -4.1920  -4.1916  -4.1916  -4.1825  -4.1825  -4.1733  -4.1726  -4.1726
    -4.1628  -4.1628  -4.1605  -4.1569  -4.1569  -4.1567  -4.1532  -4.1532
    -4.1513  -4.1513  -4.1323  -4.1323  -4.1306  -4.1300  -4.1162  -4.1162
    -4.1112  -4.1112  -4.0957  -4.0957  -4.0941  -4.0930  -4.0930  -4.0909
    -4.0909  -4.0838  -4.0665  -4.0665  -4.0609  -4.0609  -4.0586  -4.0515
    -4.0443  -4.0276  -4.0276  -4.0273  -4.0273  -4.0195  -4.0195  -4.0115
    -4.0090  -4.0054  -4.0054  -4.0035  -4.0035  -4.0026  -3.9997  -3.9997
    -3.9851  -3.9842  -3.9842  -3.9810  -3.9743  -3.9743  -3.9646  -3.9646
    -3.9630  -3.9534  -3.9534  -3.9520  -3.9400  -3.9400  -3.9388  -3.9388
    -3.9251  -3.9251  -3.9211  -3.9211  -3.9190  -3.8876  -3.8876  -3.8828
    -3.8809  -3.8809  -3.8708  -3.8708  -3.8564  -3.8559  -3.8526  -3.8526
    -3.8473  -3.8473  -3.8383  -3.8349  -3.8341  -3.8341  -3.8304  -3.8304
    -3.7855  -3.7817  -3.7817  -3.7773  -3.7773  -3.7758  -3.7586  -3.7586
    -3.7425  -3.7425  -3.7164  -3.7164  -3.6882  -3.6796  -3.6796  -3.6601
    -3.6224  -3.6224  -3.6041  -3.6041  -3.5803  -3.4897  -3.4521  -3.4521
    -3.3605  -3.3605  -3.2766  -3.2503  -3.2503  -3.1816  -3.1816  -3.1484
    -3.1222  -3.0997  -3.0654  -3.0654  -2.9735  -2.9735  -2.9575  -2.9575
     2.9177   3.0074   3.0074   3.0329   3.1878   3.1878   3.2293   3.2293
     3.4652   3.4652   3.4971   3.5519   3.5519   3.5559   3.5559   3.6151
     3.7076   3.7076   3.7308   3.7308   3.7721   3.8897   3.9034   3.9034
     3.9320   4.2403   4.2403   4.6839   4.7793   4.7793   4.8930   4.8930
     4.9959   4.9959   5.0393   5.0512   5.0512   5.1500   5.1500   5.1776
     5.1776   5.1922   5.2697   5.3513   5.3513   5.3658   5.3658   5.3916
     5.5086   5.6342   5.6342   5.6815   5.6815   5.7591   5.7591   5.7698
     5.7698   5.8103   5.9048   5.9048   5.9475   5.9475   6.1477   6.1642
     6.1788   6.1788   6.2352   6.3377   6.3377   6.4216   6.4216   6.4798
     6.5163   6.5174   6.5174   6.5206   6.5206   6.5540   6.7082   6.7082
     6.7141   6.8688   6.8688   6.8835   6.8835   6.8879   6.8879   6.9181
     6.9181   7.0406   7.0436   7.0513   7.0514   7.1054   7.1054   7.1511
     7.1906   7.2053   7.2054   7.2170   7.2171   7.3507   7.3507   7.3559
     7.3559   7.3614   7.3614   7.3732   7.4127   7.4609   7.4609   7.5701
     7.5780   7.5780   7.6044   7.6044   7.6118   7.6543   7.7043   7.7043
     7.7179   7.7179   7.8215   7.8215   7.8273   7.8273   7.8295   7.8718
     7.8718   7.8813   7.8813   7.8991   7.8991   7.9234   7.9430   7.9449
     7.9449   7.9559   7.9584   7.9584   8.0020   8.0367   8.0367   8.0923
    10.8423  11.1962  11.1962  11.9974  11.9974  12.8900  12.8900  12.9163
    13.0075  13.0075  13.2721  13.2753  13.5472  13.5638  13.5638  13.6415
    13.6415  13.6771  13.6771  13.8509

          k = 0.0283 0.0153-0.0257 ( 63470 PWs)   bands (ev):

    -9.1466  -8.9554  -8.8745  -8.8731  -8.8624  -8.8623  -8.7788  -8.7788
    -8.6512  -8.6512  -8.5897  -8.5897  -8.5719  -8.5705  -8.5500  -8.4618
    -8.4551  -8.4551  -8.4373  -8.4373  -8.4250  -8.4229  -8.4221  -8.4061
    -8.3904  -8.3904  -8.3583  -8.3530  -8.3451  -8.3364  -8.3364  -8.3262
    -8.3223  -8.3136  -8.3049  -8.2992  -8.2992  -8.2843  -8.2843  -8.2829
    -8.2715  -8.2715  -8.2622  -8.2358  -8.2136  -8.1986  -8.1986  -8.1920
    -4.3091  -4.2933  -4.2832  -4.2783  -4.2745  -4.2745  -4.2736  -4.2736
    -4.2711  -4.2510  -4.2510  -4.2485  -4.2485  -4.2374  -4.2350  -4.2305
    -4.2254  -4.2158  -4.2128  -4.2109  -4.2109  -4.2062  -4.2019  -4.2019
    -4.1992  -4.1864  -4.1820  -4.1817  -4.1817  -4.1778  -4.1757  -4.1708
    -4.1687  -4.1687  -4.1662  -4.1576  -4.1576  -4.1477  -4.1474  -4.1473
    -4.1464  -4.1464  -4.1430  -4.1430  -4.1314  -4.1273  -4.1187  -4.1187
    -4.1146  -4.1059  -4.1059  -4.1009  -4.0991  -4.0991  -4.0970  -4.0966
    -4.0817  -4.0808  -4.0808  -4.0808  -4.0804  -4.0763  -4.0623  -4.0514
    -4.0480  -4.0346  -4.0341  -4.0325  -4.0325  -4.0304  -4.0190  -4.0143
    -4.0050  -4.0044  -4.0044  -4.0010  -4.0010  -3.9917  -3.9917  -3.9790
    -3.9788  -3.9783  -3.9777  -3.9740  -3.9740  -3.9720  -3.9594  -3.9594
    -3.9592  -3.9584  -3.9584  -3.9414  -3.9414  -3.9363  -3.9304  -3.9277
    -3.9195  -3.9080  -3.9029  -3.9024  -3.9024  -3.9008  -3.9008  -3.8904
    -3.8873  -3.8768  -3.8688  -3.8679  -3.8598  -3.8593  -3.8553  -3.8553
    -3.8523  -3.8523  -3.8485  -3.8471  -3.8471  -3.8456  -3.8456  -3.8129
    -3.8048  -3.8048  -3.7886  -3.7856  -3.7849  -3.7657  -3.7657  -3.7556
    -3.7459  -3.7459  -3.7175  -3.7175  -3.6905  -3.6738  -3.6705  -3.6511
    -3.6400  -3.6400  -3.5536  -3.5204  -3.5199  -3.5051  -3.4055  -3.4055
    -3.3809  -3.3095  -3.3069  -3.3069  -3.2569  -3.2260  -3.2260  -3.2008
    -3.2008  -3.1444  -3.0435  -3.0243  -2.9664  -2.9664  -2.9458  -2.8879
     2.7535   3.0206   3.0733   3.1363   3.1363   3.1635   3.3372   3.3794
     3.3812   3.3812   3.3965   3.3965   3.4053   3.4214   3.5323   3.6186
     3.6186   3.7427   3.7427   3.8943   4.0175   4.0448   4.0592   4.0592
     4.2132   4.2132   4.3995   4.3995   4.5604   4.6216   4.7940   4.8364
     4.9089   4.9398   5.0455   5.0741   5.0741   5.1785   5.1785   5.2224
     5.2245   5.2251   5.2801   5.2801   5.2918   5.3812   5.3812   5.3990
     5.4620   5.5395   5.6539   5.6539   5.7259   5.7407   5.7407   5.7856
     5.7924   5.7924   5.8817   5.9642   6.0603   6.0962   6.0962   6.1511
     6.1649   6.1800   6.2481   6.2529   6.2529   6.4281   6.4281   6.4336
     6.4539   6.4937   6.4937   6.4964   6.5161   6.7033   6.7199   6.7413
     6.7413   6.7921   6.7921   6.8533   6.9545   6.9545   6.9727   6.9778
     6.9810   7.0199   7.0199   7.0480   7.0480   7.0545   7.0802   7.0899
     7.1098   7.2370   7.2370   7.2378   7.2378   7.3054   7.3061   7.3061
     7.3880   7.4025   7.4350   7.4586   7.4586   7.4959   7.5208   7.5208
     7.5566   7.5984   7.6031   7.6262   7.6646   7.6646   7.6820   7.7097
     7.7119   7.7637   7.7664   7.7664   7.8040   7.8064   7.8103   7.8284
     7.8284   7.8992   7.8992   7.9071   7.9136   7.9342   7.9614   7.9614
     7.9743   7.9786   7.9786   7.9969   8.0089   8.0145   8.0575   8.0575
    10.1461  11.7342  11.7907  11.9674  12.0660  12.0660  13.0138  13.0596
    13.0596  13.3167  13.3168  13.3601  13.3601  13.5166  13.5167  13.5827
    13.6418  13.6837  13.6838  13.8723

          k = 0.0283 0.0153 0.0106 ( 63420 PWs)   bands (ev):

    -9.1687  -8.9872  -8.8353  -8.8353  -8.8353  -8.7944  -8.7944  -8.7944
    -8.6534  -8.6534  -8.6534  -8.6143  -8.6143  -8.6143  -8.4664  -8.4664
    -8.4664  -8.4527  -8.4372  -8.4372  -8.4372  -8.4321  -8.4321  -8.3976
    -8.3976  -8.3303  -8.3303  -8.3303  -8.3254  -8.3254  -8.3254  -8.3240
    -8.3240  -8.3240  -8.3203  -8.3203  -8.3203  -8.2999  -8.2999  -8.2653
    -8.2653  -8.2653  -8.2629  -8.2629  -8.2407  -8.1889  -8.1889  -8.1889
    -4.3043  -4.3043  -4.2802  -4.2802  -4.2802  -4.2764  -4.2764  -4.2764
    -4.2691  -4.2691  -4.2497  -4.2497  -4.2497  -4.2320  -4.2320  -4.2320
    -4.2282  -4.2282  -4.2282  -4.2163  -4.2098  -4.2098  -4.2098  -4.2049
    -4.1984  -4.1775  -4.1775  -4.1775  -4.1753  -4.1753  -4.1753  -4.1687
    -4.1687  -4.1659  -4.1659  -4.1513  -4.1513  -4.1513  -4.1300  -4.1300
    -4.1300  -4.1290  -4.1215  -4.1215  -4.1215  -4.1147  -4.1147  -4.1147
    -4.1131  -4.1131  -4.1131  -4.1000  -4.1000  -4.1000  -4.0881  -4.0881
    -4.0880  -4.0880  -4.0880  -4.0875  -4.0875  -4.0875  -4.0696  -4.0696
    -4.0480  -4.0480  -4.0480  -4.0456  -4.0456  -4.0233  -4.0233  -4.0161
    -4.0161  -4.0161  -3.9851  -3.9851  -3.9851  -3.9783  -3.9783  -3.9783
    -3.9713  -3.9713  -3.9713  -3.9673  -3.9673  -3.9673  -3.9619  -3.9619
    -3.9515  -3.9515  -3.9515  -3.9381  -3.9381  -3.9381  -3.9348  -3.9348
    -3.9348  -3.9261  -3.9261  -3.9003  -3.9003  -3.9003  -3.8726  -3.8726
    -3.8709  -3.8709  -3.8640  -3.8640  -3.8640  -3.8605  -3.8605  -3.8605
    -3.8548  -3.8548  -3.8548  -3.8524  -3.8412  -3.8412  -3.8412  -3.8221
    -3.8211  -3.8098  -3.8098  -3.8098  -3.8004  -3.8004  -3.8004  -3.7747
    -3.7356  -3.7356  -3.7356  -3.7019  -3.7019  -3.7019  -3.6381  -3.6381
    -3.6381  -3.5755  -3.5755  -3.4951  -3.4951  -3.4776  -3.4776  -3.4776
    -3.3157  -3.3157  -3.3157  -3.2974  -3.2974  -3.2974  -3.1736  -3.1736
    -3.1054  -3.1054  -3.1054  -3.0225  -3.0225  -2.9194  -2.9194  -2.9194
     2.7076   2.9288   3.0638   3.0638   3.0638   3.1336   3.1336   3.1336
     3.1994   3.5461   3.5461   3.5461   3.7235   3.7235   3.7235   3.7494
     3.7808   3.7848   3.7848   3.7848   4.0309   4.0309   4.0309   4.1882
     4.1882   4.1882   4.3939   4.3939   4.3947   4.4693   4.4693   4.4693
     4.7606   4.7606   4.9929   4.9929   4.9929   5.2066   5.2066   5.2066
     5.3960   5.3960   5.3960   5.4851   5.4851   5.4851   5.5209   5.5540
     5.5540   5.5540   5.6274   5.6274   5.6274   5.6743   5.7303   5.7303
     5.8363   5.8363   5.8729   6.0525   6.1044   6.1044   6.1044   6.1995
     6.1995   6.1995   6.2593   6.2593   6.2593   6.2922   6.3488   6.3488
     6.3488   6.3772   6.3772   6.3772   6.6614   6.6614   6.7692   6.7692
     6.7692   6.8735   6.8735   6.8735   6.9003   6.9003   6.9003   6.9156
     6.9156   6.9156   6.9158   6.9449   6.9449   6.9449   7.0233   7.0233
     7.1770   7.1770   7.1770   7.2154   7.2154   7.2154   7.4044   7.4044
     7.4044   7.4833   7.4833   7.4833   7.5357   7.5357   7.5357   7.5716
     7.5716   7.6982   7.6982   7.6982   7.7094   7.7094   7.7638   7.7638
     7.7638   7.7661   7.7661   7.7661   7.8231   7.8231   7.8604   7.8604
     7.8604   7.9160   7.9161   7.9356   7.9356   7.9356   7.9638   7.9638
     7.9638   7.9800   7.9800   7.9915   7.9915   7.9915   7.9972   7.9972
     9.8431  11.0583  12.5575  12.5575  12.5575  12.6961  12.6961  12.6961
    12.9594  13.1315  13.1315  13.1315  13.3440  13.3440  13.3440  13.3879
    13.3879  13.7306  13.7313  13.7315

          k = 0.0283 0.0153-0.0620 ( 63467 PWs)   bands (ev):

    -9.0663  -9.0169  -9.0070  -8.8742  -8.8742  -8.7288  -8.7241  -8.7241
    -8.7048  -8.7048  -8.7007  -8.5822  -8.5822  -8.4928  -8.4896  -8.4552
    -8.4486  -8.4486  -8.4464  -8.4464  -8.4368  -8.4288  -8.4192  -8.3847
    -8.3847  -8.3693  -8.3680  -8.3660  -8.3618  -8.3573  -8.3573  -8.3344
    -8.3344  -8.3100  -8.2986  -8.2896  -8.2896  -8.2720  -8.2720  -8.2565
    -8.2428  -8.2428  -8.2407  -8.2377  -8.2365  -8.2341  -8.2282  -8.2282
    -4.3000  -4.2987  -4.2784  -4.2784  -4.2779  -4.2779  -4.2749  -4.2728
    -4.2575  -4.2519  -4.2441  -4.2402  -4.2402  -4.2393  -4.2393  -4.2314
    -4.2298  -4.2241  -4.2241  -4.2199  -4.2199  -4.2196  -4.2162  -4.2099
    -4.1904  -4.1904  -4.1896  -4.1759  -4.1758  -4.1746  -4.1647  -4.1628
    -4.1607  -4.1607  -4.1572  -4.1572  -4.1570  -4.1504  -4.1504  -4.1496
    -4.1451  -4.1402  -4.1320  -4.1320  -4.1289  -4.1190  -4.1190  -4.1164
    -4.1164  -4.1066  -4.1066  -4.1051  -4.1051  -4.0969  -4.0921  -4.0919
    -4.0820  -4.0814  -4.0814  -4.0814  -4.0772  -4.0708  -4.0652  -4.0588
    -4.0562  -4.0560  -4.0440  -4.0274  -4.0274  -4.0204  -4.0162  -4.0116
    -4.0052  -3.9973  -3.9973  -3.9949  -3.9949  -3.9885  -3.9885  -3.9830
    -3.9830  -3.9724  -3.9716  -3.9716  -3.9695  -3.9645  -3.9575  -3.9564
    -3.9534  -3.9502  -3.9493  -3.9493  -3.9455  -3.9395  -3.9395  -3.9358
    -3.9300  -3.9192  -3.9073  -3.9073  -3.8952  -3.8827  -3.8824  -3.8808
    -3.8791  -3.8791  -3.8738  -3.8672  -3.8672  -3.8652  -3.8622  -3.8622
    -3.8596  -3.8505  -3.8466  -3.8466  -3.8407  -3.8390  -3.8390  -3.8149
    -3.8149  -3.8120  -3.8076  -3.7767  -3.7767  -3.7740  -3.7716  -3.7716
    -3.7609  -3.7591  -3.7130  -3.7119  -3.7047  -3.6797  -3.6761  -3.6638
    -3.6638  -3.6268  -3.6268  -3.5201  -3.4945  -3.4945  -3.4397  -3.3725
    -3.3725  -3.3710  -3.3585  -3.3012  -3.2739  -3.1719  -3.1719  -3.1321
    -3.0727  -3.0727  -3.0376  -3.0376  -3.0169  -3.0112  -2.9628  -2.9560
     2.8930   2.8976   2.9269   3.1505   3.1505   3.2125   3.2885   3.2921
     3.3243   3.3243   3.4408   3.4408   3.4782   3.6964   3.7607   3.7607
     3.7830   3.7838   3.8060   3.8060   3.8120   3.8120   3.9039   3.9674
     4.1210   4.1210   4.2787   4.5379   4.5379   4.6903   4.7082   4.7543
     4.8377   4.8955   5.0256   5.0256   5.1400   5.1400   5.1573   5.1795
     5.2344   5.3413   5.3564   5.3564   5.3573   5.3573   5.4517   5.5436
     5.5720   5.5967   5.6046   5.6046   5.6429   5.6429   5.6736   5.6893
     5.8750   6.0059   6.1155   6.1174   6.1262   6.1262   6.1399   6.1399
     6.2706   6.3107   6.3107   6.3108   6.3108   6.3337   6.3509   6.3604
     6.4012   6.4886   6.5118   6.5118   6.5425   6.6180   6.6628   6.6652
     6.6652   6.6929   6.7219   6.7219   6.8106   6.8393   6.8888   6.8888
     6.9157   6.9157   6.9184   6.9883   6.9883   7.0092   7.0711   7.1410
     7.1759   7.1759   7.2622   7.2622   7.2656   7.3313   7.3483   7.3563
     7.4126   7.4159   7.4159   7.5418   7.5456   7.5456   7.5786   7.5826
     7.6135   7.6200   7.6721   7.6721   7.6788   7.6991   7.7018   7.7269
     7.7269   7.7914   7.7914   7.7943   7.8203   7.8262   7.8428   7.8504
     7.8504   7.8517   7.8517   7.9155   7.9346   7.9382   7.9382   7.9408
     7.9437   7.9437   7.9494   7.9533   7.9549   7.9549   7.9968   8.0490
    10.7288  11.0812  11.2605  12.1414  12.1414  12.8162  12.9616  12.9616
    13.2339  13.2711  13.2711  13.3689  13.3689  13.4090  13.4477  13.4477
    13.5107  13.7215  13.7222  13.7927

          k = 0.0283-0.0525-0.0000 ( 63467 PWs)   bands (ev):

    -9.0584  -9.0115  -9.0115  -8.8840  -8.8840  -8.7258  -8.7157  -8.7157
    -8.7146  -8.7146  -8.7016  -8.5713  -8.5713  -8.4933  -8.4933  -8.4566
    -8.4477  -8.4259  -8.4203  -8.4203  -8.4185  -8.4185  -8.4129  -8.4129
    -8.3956  -8.3956  -8.3858  -8.3858  -8.3744  -8.3687  -8.3687  -8.3622
    -8.3102  -8.3102  -8.3043  -8.3043  -8.2990  -8.2598  -8.2598  -8.2597
    -8.2529  -8.2529  -8.2277  -8.2277  -8.2277  -8.2269  -8.2198  -8.2198
    -4.2916  -4.2916  -4.2816  -4.2816  -4.2767  -4.2747  -4.2687  -4.2687
    -4.2675  -4.2558  -4.2527  -4.2527  -4.2412  -4.2412  -4.2309  -4.2309
    -4.2248  -4.2248  -4.2211  -4.2203  -4.2203  -4.2135  -4.2064  -4.2064
    -4.1920  -4.1916  -4.1916  -4.1825  -4.1825  -4.1733  -4.1726  -4.1726
    -4.1628  -4.1628  -4.1605  -4.1569  -4.1569  -4.1567  -4.1532  -4.1532
    -4.1513  -4.1513  -4.1323  -4.1323  -4.1306  -4.1300  -4.1162  -4.1162
    -4.1112  -4.1112  -4.0957  -4.0957  -4.0941  -4.0930  -4.0930  -4.0909
    -4.0909  -4.0838  -4.0665  -4.0665  -4.0609  -4.0609  -4.0586  -4.0515
    -4.0443  -4.0276  -4.0276  -4.0273  -4.0273  -4.0195  -4.0195  -4.0115
    -4.0090  -4.0054  -4.0054  -4.0035  -4.0035  -4.0026  -3.9997  -3.9997
    -3.9851  -3.9842  -3.9842  -3.9810  -3.9743  -3.9743  -3.9646  -3.9646
    -3.9630  -3.9534  -3.9534  -3.9520  -3.9400  -3.9400  -3.9388  -3.9388
    -3.9251  -3.9251  -3.9211  -3.9211  -3.9190  -3.8876  -3.8876  -3.8828
    -3.8809  -3.8809  -3.8708  -3.8708  -3.8564  -3.8559  -3.8526  -3.8526
    -3.8473  -3.8473  -3.8383  -3.8349  -3.8341  -3.8341  -3.8304  -3.8304
    -3.7855  -3.7817  -3.7817  -3.7773  -3.7773  -3.7758  -3.7586  -3.7586
    -3.7425  -3.7425  -3.7164  -3.7164  -3.6882  -3.6796  -3.6796  -3.6601
    -3.6224  -3.6224  -3.6041  -3.6041  -3.5803  -3.4897  -3.4521  -3.4521
    -3.3605  -3.3605  -3.2766  -3.2503  -3.2503  -3.1816  -3.1816  -3.1484
    -3.1222  -3.0997  -3.0654  -3.0654  -2.9735  -2.9735  -2.9575  -2.9575
     2.9177   3.0074   3.0074   3.0329   3.1878   3.1878   3.2293   3.2293
     3.4652   3.4652   3.4971   3.5519   3.5519   3.5559   3.5559   3.6151
     3.7076   3.7076   3.7308   3.7308   3.7721   3.8897   3.9034   3.9034
     3.9320   4.2403   4.2403   4.6839   4.7793   4.7793   4.8930   4.8930
     4.9959   4.9959   5.0393   5.0512   5.0512   5.1500   5.1500   5.1776
     5.1776   5.1922   5.2697   5.3513   5.3513   5.3658   5.3658   5.3916
     5.5086   5.6342   5.6342   5.6815   5.6815   5.7591   5.7591   5.7698
     5.7698   5.8103   5.9048   5.9048   5.9475   5.9475   6.1477   6.1642
     6.1788   6.1788   6.2352   6.3377   6.3377   6.4216   6.4216   6.4798
     6.5163   6.5174   6.5174   6.5206   6.5206   6.5540   6.7082   6.7082
     6.7141   6.8688   6.8688   6.8835   6.8835   6.8879   6.8879   6.9181
     6.9181   7.0406   7.0436   7.0514   7.0514   7.1054   7.1054   7.1511
     7.1906   7.2053   7.2053   7.2171   7.2171   7.3507   7.3507   7.3559
     7.3559   7.3614   7.3614   7.3732   7.4127   7.4609   7.4609   7.5701
     7.5780   7.5780   7.6044   7.6044   7.6118   7.6543   7.7043   7.7043
     7.7179   7.7179   7.8215   7.8215   7.8273   7.8273   7.8295   7.8718
     7.8718   7.8813   7.8813   7.8991   7.8991   7.9234   7.9430   7.9449
     7.9449   7.9559   7.9584   7.9584   8.0020   8.0367   8.0367   8.0923
    10.8423  11.1962  11.1962  11.9974  11.9974  12.8900  12.8900  12.9163
    13.0075  13.0075  13.2721  13.2753  13.5472  13.5638  13.5638  13.6415
    13.6415  13.6770  13.6770  13.8509

          k = 0.0283-0.0525 0.0363 ( 63467 PWs)   bands (ev):

    -9.0663  -9.0169  -9.0070  -8.8742  -8.8742  -8.7288  -8.7241  -8.7241
    -8.7048  -8.7048  -8.7007  -8.5823  -8.5823  -8.4928  -8.4896  -8.4552
    -8.4486  -8.4486  -8.4464  -8.4464  -8.4368  -8.4288  -8.4192  -8.3847
    -8.3847  -8.3693  -8.3680  -8.3660  -8.3618  -8.3573  -8.3573  -8.3344
    -8.3344  -8.3100  -8.2986  -8.2896  -8.2896  -8.2720  -8.2720  -8.2565
    -8.2428  -8.2428  -8.2406  -8.2377  -8.2365  -8.2341  -8.2282  -8.2282
    -4.3000  -4.2987  -4.2784  -4.2784  -4.2779  -4.2779  -4.2749  -4.2728
    -4.2575  -4.2519  -4.2441  -4.2402  -4.2402  -4.2393  -4.2393  -4.2314
    -4.2298  -4.2241  -4.2241  -4.2199  -4.2199  -4.2196  -4.2162  -4.2099
    -4.1904  -4.1904  -4.1896  -4.1759  -4.1758  -4.1746  -4.1647  -4.1628
    -4.1607  -4.1607  -4.1572  -4.1572  -4.1570  -4.1504  -4.1504  -4.1496
    -4.1451  -4.1402  -4.1320  -4.1320  -4.1289  -4.1190  -4.1190  -4.1164
    -4.1164  -4.1066  -4.1066  -4.1051  -4.1051  -4.0969  -4.0921  -4.0919
    -4.0820  -4.0814  -4.0814  -4.0814  -4.0772  -4.0708  -4.0652  -4.0588
    -4.0562  -4.0560  -4.0440  -4.0274  -4.0274  -4.0204  -4.0162  -4.0116
    -4.0052  -3.9973  -3.9973  -3.9949  -3.9949  -3.9885  -3.9885  -3.9830
    -3.9830  -3.9724  -3.9716  -3.9716  -3.9695  -3.9645  -3.9575  -3.9564
    -3.9534  -3.9502  -3.9493  -3.9493  -3.9455  -3.9395  -3.9395  -3.9358
    -3.9300  -3.9192  -3.9073  -3.9073  -3.8952  -3.8827  -3.8824  -3.8808
    -3.8791  -3.8791  -3.8738  -3.8672  -3.8672  -3.8652  -3.8622  -3.8622
    -3.8596  -3.8505  -3.8466  -3.8466  -3.8407  -3.8390  -3.8390  -3.8149
    -3.8149  -3.8120  -3.8076  -3.7767  -3.7767  -3.7740  -3.7716  -3.7716
    -3.7609  -3.7591  -3.7130  -3.7119  -3.7047  -3.6797  -3.6761  -3.6638
    -3.6638  -3.6268  -3.6268  -3.5201  -3.4945  -3.4945  -3.4397  -3.3725
    -3.3725  -3.3710  -3.3585  -3.3012  -3.2739  -3.1719  -3.1719  -3.1321
    -3.0727  -3.0727  -3.0376  -3.0376  -3.0169  -3.0112  -2.9628  -2.9560
     2.8930   2.8976   2.9269   3.1505   3.1505   3.2125   3.2885   3.2921
     3.3243   3.3243   3.4408   3.4408   3.4782   3.6964   3.7607   3.7607
     3.7830   3.7838   3.8060   3.8060   3.8120   3.8120   3.9039   3.9674
     4.1210   4.1210   4.2787   4.5379   4.5379   4.6903   4.7082   4.7543
     4.8377   4.8955   5.0256   5.0256   5.1400   5.1400   5.1573   5.1795
     5.2344   5.3413   5.3564   5.3564   5.3573   5.3573   5.4518   5.5436
     5.5720   5.5967   5.6046   5.6046   5.6429   5.6429   5.6736   5.6893
     5.8749   6.0058   6.1155   6.1174   6.1262   6.1262   6.1399   6.1399
     6.2706   6.3107   6.3107   6.3108   6.3108   6.3337   6.3509   6.3604
     6.4012   6.4886   6.5118   6.5118   6.5425   6.6180   6.6628   6.6652
     6.6652   6.6929   6.7219   6.7219   6.8105   6.8393   6.8888   6.8888
     6.9157   6.9157   6.9184   6.9883   6.9883   7.0092   7.0711   7.1410
     7.1759   7.1759   7.2622   7.2622   7.2656   7.3313   7.3483   7.3563
     7.4126   7.4159   7.4159   7.5418   7.5456   7.5456   7.5786   7.5827
     7.6135   7.6200   7.6721   7.6721   7.6788   7.6991   7.7018   7.7269
     7.7269   7.7914   7.7914   7.7943   7.8203   7.8262   7.8428   7.8504
     7.8504   7.8517   7.8517   7.9155   7.9346   7.9382   7.9382   7.9408
     7.9437   7.9437   7.9494   7.9533   7.9549   7.9549   7.9968   8.0490
    10.7288  11.0812  11.2605  12.1414  12.1414  12.8162  12.9616  12.9616
    13.2338  13.2711  13.2711  13.3689  13.3689  13.4090  13.4477  13.4478
    13.5106  13.7208  13.7222  13.7926

          k = 0.0284-0.0525-0.0363 ( 63467 PWs)   bands (ev):

    -9.0663  -9.0169  -9.0070  -8.8742  -8.8742  -8.7288  -8.7241  -8.7241
    -8.7048  -8.7048  -8.7007  -8.5823  -8.5822  -8.4928  -8.4896  -8.4552
    -8.4486  -8.4486  -8.4464  -8.4464  -8.4368  -8.4288  -8.4192  -8.3847
    -8.3847  -8.3693  -8.3680  -8.3660  -8.3618  -8.3573  -8.3573  -8.3344
    -8.3344  -8.3100  -8.2986  -8.2896  -8.2896  -8.2720  -8.2720  -8.2565
    -8.2428  -8.2428  -8.2406  -8.2377  -8.2365  -8.2341  -8.2282  -8.2282
    -4.3000  -4.2987  -4.2784  -4.2784  -4.2779  -4.2779  -4.2749  -4.2728
    -4.2575  -4.2519  -4.2441  -4.2402  -4.2402  -4.2393  -4.2393  -4.2314
    -4.2298  -4.2241  -4.2241  -4.2199  -4.2199  -4.2196  -4.2162  -4.2099
    -4.1904  -4.1904  -4.1896  -4.1759  -4.1758  -4.1746  -4.1647  -4.1628
    -4.1607  -4.1607  -4.1572  -4.1572  -4.1570  -4.1504  -4.1504  -4.1496
    -4.1451  -4.1402  -4.1320  -4.1320  -4.1289  -4.1190  -4.1190  -4.1164
    -4.1164  -4.1066  -4.1066  -4.1051  -4.1051  -4.0969  -4.0921  -4.0919
    -4.0820  -4.0814  -4.0814  -4.0814  -4.0772  -4.0708  -4.0652  -4.0588
    -4.0562  -4.0560  -4.0440  -4.0274  -4.0274  -4.0204  -4.0162  -4.0116
    -4.0052  -3.9973  -3.9973  -3.9949  -3.9949  -3.9885  -3.9885  -3.9830
    -3.9830  -3.9724  -3.9716  -3.9716  -3.9695  -3.9645  -3.9575  -3.9564
    -3.9534  -3.9502  -3.9493  -3.9493  -3.9455  -3.9395  -3.9395  -3.9358
    -3.9300  -3.9192  -3.9073  -3.9073  -3.8952  -3.8827  -3.8824  -3.8808
    -3.8791  -3.8791  -3.8738  -3.8672  -3.8672  -3.8652  -3.8622  -3.8622
    -3.8596  -3.8505  -3.8466  -3.8466  -3.8407  -3.8390  -3.8390  -3.8149
    -3.8149  -3.8120  -3.8076  -3.7767  -3.7767  -3.7740  -3.7716  -3.7716
    -3.7609  -3.7591  -3.7130  -3.7119  -3.7047  -3.6797  -3.6761  -3.6638
    -3.6638  -3.6268  -3.6268  -3.5201  -3.4945  -3.4945  -3.4397  -3.3725
    -3.3725  -3.3710  -3.3585  -3.3012  -3.2739  -3.1719  -3.1719  -3.1321
    -3.0727  -3.0727  -3.0376  -3.0376  -3.0169  -3.0112  -2.9628  -2.9560
     2.8930   2.8976   2.9269   3.1505   3.1505   3.2125   3.2885   3.2921
     3.3243   3.3243   3.4408   3.4408   3.4782   3.6964   3.7607   3.7607
     3.7830   3.7838   3.8060   3.8060   3.8120   3.8120   3.9039   3.9674
     4.1210   4.1210   4.2787   4.5379   4.5379   4.6903   4.7082   4.7543
     4.8377   4.8955   5.0256   5.0256   5.1400   5.1400   5.1573   5.1795
     5.2344   5.3413   5.3564   5.3564   5.3573   5.3573   5.4518   5.5436
     5.5720   5.5967   5.6046   5.6046   5.6429   5.6429   5.6736   5.6893
     5.8749   6.0058   6.1155   6.1174   6.1262   6.1262   6.1399   6.1399
     6.2706   6.3107   6.3107   6.3108   6.3108   6.3337   6.3509   6.3604
     6.4012   6.4886   6.5118   6.5118   6.5425   6.6180   6.6628   6.6652
     6.6652   6.6929   6.7219   6.7219   6.8105   6.8393   6.8888   6.8888
     6.9157   6.9157   6.9184   6.9883   6.9883   7.0092   7.0711   7.1410
     7.1759   7.1759   7.2622   7.2622   7.2656   7.3313   7.3483   7.3563
     7.4126   7.4159   7.4159   7.5418   7.5456   7.5456   7.5786   7.5826
     7.6135   7.6200   7.6721   7.6721   7.6788   7.6991   7.7018   7.7269
     7.7269   7.7914   7.7914   7.7943   7.8203   7.8262   7.8428   7.8504
     7.8504   7.8517   7.8517   7.9155   7.9346   7.9382   7.9382   7.9408
     7.9437   7.9437   7.9494   7.9533   7.9549   7.9549   7.9968   8.0490
    10.7288  11.0812  11.2605  12.1414  12.1414  12.8162  12.9616  12.9616
    13.2338  13.2711  13.2711  13.3689  13.3689  13.4090  13.4477  13.4477
    13.5106  13.7219  13.7222  13.7927

 ------ SPIN DOWN ----------


          k = 0.0000 0.0000 0.0000 ( 63395 PWs)   bands (ev):

    -9.2334  -8.8483  -8.8483  -8.8483  -8.7276  -8.7276  -8.7271  -8.7271
    -8.7271  -8.7271  -8.7271  -8.7271  -8.6112  -8.6112  -8.6112  -8.4637
    -8.4637  -8.4637  -8.4446  -8.4446  -8.3600  -8.3600  -8.3600  -8.3600
    -8.3600  -8.3600  -8.3493  -8.3493  -8.3493  -8.3493  -8.3317  -8.3317
    -8.3317  -8.3264  -8.3264  -8.3264  -8.3200  -8.3200  -8.3200  -8.3200
    -8.3200  -8.3200  -8.2492  -8.2492  -8.1606  -8.1591  -8.1591  -8.1591
    -4.3160  -4.3160  -4.2842  -4.2842  -4.2842  -4.2668  -4.2668  -4.2668
    -4.2668  -4.2668  -4.2668  -4.2446  -4.2446  -4.2446  -4.2299  -4.2299
    -4.2174  -4.2174  -4.2174  -4.2152  -4.2152  -4.2152  -4.2152  -4.1929
    -4.1864  -4.1864  -4.1864  -4.1820  -4.1820  -4.1775  -4.1775  -4.1775
    -4.1568  -4.1568  -4.1568  -4.1568  -4.1568  -4.1568  -4.1391  -4.1391
    -4.1391  -4.1258  -4.1258  -4.1258  -4.1231  -4.1231  -4.1231  -4.1152
    -4.1152  -4.1152  -4.1152  -4.1152  -4.1152  -4.0948  -4.0948  -4.0948
    -4.0948  -4.0948  -4.0948  -4.0770  -4.0770  -4.0770  -4.0703  -4.0703
    -4.0703  -4.0703  -4.0643  -4.0511  -4.0511  -4.0161  -4.0161  -4.0148
    -4.0148  -4.0148  -4.0148  -4.0148  -4.0148  -3.9757  -3.9757  -3.9660
    -3.9660  -3.9660  -3.9646  -3.9646  -3.9646  -3.9646  -3.9646  -3.9646
    -3.9502  -3.9502  -3.9502  -3.9332  -3.9332  -3.9332  -3.9286  -3.9286
    -3.9286  -3.8884  -3.8884  -3.8884  -3.8884  -3.8760  -3.8760  -3.8741
    -3.8657  -3.8657  -3.8657  -3.8657  -3.8657  -3.8657  -3.8612  -3.8591
    -3.8591  -3.8591  -3.8591  -3.8591  -3.8591  -3.8471  -3.8471  -3.8471
    -3.8316  -3.8316  -3.8316  -3.7933  -3.7933  -3.7933  -3.7835  -3.7835
    -3.7320  -3.7320  -3.7320  -3.6893  -3.6893  -3.6893  -3.6002  -3.6002
    -3.4763  -3.4763  -3.4763  -3.4763  -3.4763  -3.4763  -3.3522  -3.3522
    -3.3522  -3.3522  -3.3173  -3.3173  -3.3173  -3.3044  -3.3044  -3.3044
    -3.3044  -3.3044  -3.3044  -2.9631  -2.9631  -2.8478  -2.8478  -2.8478
     2.6339   3.0034   3.1910   3.1910   3.1910   3.1910   3.1910   3.1910
     3.2106   3.2106   3.2106   3.2880   3.2880   3.7059   3.7059   3.7059
     3.9336   3.9336   3.9336   3.9336   3.9336   3.9336   4.2684   4.2684
     4.4444   4.4444   4.4444   4.4510   4.4510   4.4510   4.5744   4.5744
     4.8975   4.8975   4.8975   4.9686   5.2060   5.3173   5.3173   5.3173
     5.3173   5.3630   5.3630   5.3631   5.3829   5.3829   5.3829   5.4468
     5.4468   5.4468   5.4468   5.4468   5.4468   5.5941   5.5941   5.8030
     5.9254   5.9254   5.9254   5.9254   5.9254   5.9254   5.9336   5.9336
     5.9336   6.0372   6.0372   6.0373   6.2316   6.2316   6.2316   6.2327
     6.2327   6.6556   6.6556   6.6556   6.6556   6.6556   6.6556   7.0646
     7.0646   7.0646   7.0646   7.0672   7.0672   7.0672   7.1523   7.1523
     7.1523   7.1729   7.1729   7.1729   7.1729   7.1729   7.1729   7.1749
     7.1749   7.1749   7.2637   7.2637   7.2637   7.2637   7.2637   7.2637
     7.3070   7.3070   7.3070   7.3697   7.3697   7.3751   7.3751   7.3751
     7.3751   7.3751   7.3751   7.5653   7.5653   7.5653   7.6626   7.7420
     7.7420   7.7420   7.7492   7.7492   7.8555   7.8555   7.8995   7.8995
     7.8995   7.8995   7.9907   7.9907   7.9907   7.9998   7.9998   8.0292
     8.0292   8.0292   8.0292   8.0292   8.0292   8.0429   8.0429   8.0429
     9.0291  12.1671  12.1671  12.6919  12.6919  12.6920  12.6920  12.6920
    12.6920  12.8716  12.8716  12.8716  13.2479  13.2479  13.2479  13.4080
    13.6101  13.6101  13.6101  13.6101

          k =-0.0000-0.0000 0.0363 ( 63469 PWs)   bands (ev):

    -9.1645  -8.9776  -8.8415  -8.8407  -8.8407  -8.8058  -8.8042  -8.8042
    -8.6417  -8.6415  -8.6415  -8.6113  -8.6095  -8.6095  -8.4844  -8.4497
    -8.4497  -8.4449  -8.4357  -8.4305  -8.4109  -8.4109  -8.4045  -8.4015
    -8.3888  -8.3851  -8.3662  -8.3662  -8.3584  -8.3509  -8.3509  -8.3241
[...]
    -4.1920  -4.1916  -4.1916  -4.1825  -4.1825  -4.1733  -4.1726  -4.1726
    -4.1628  -4.1628  -4.1605  -4.1569  -4.1569  -4.1567  -4.1532  -4.1532
    -4.1513  -4.1513  -4.1323  -4.1323  -4.1306  -4.1300  -4.1162  -4.1162
    -4.1112  -4.1112  -4.0957  -4.0957  -4.0941  -4.0930  -4.0930  -4.0909
    -4.0909  -4.0838  -4.0665  -4.0665  -4.0609  -4.0609  -4.0586  -4.0515
    -4.0443  -4.0276  -4.0276  -4.0273  -4.0273  -4.0195  -4.0195  -4.0115
    -4.0090  -4.0054  -4.0054  -4.0035  -4.0035  -4.0026  -3.9997  -3.9997
    -3.9851  -3.9843  -3.9843  -3.9810  -3.9743  -3.9743  -3.9646  -3.9646
    -3.9630  -3.9534  -3.9534  -3.9520  -3.9400  -3.9400  -3.9388  -3.9388
    -3.9251  -3.9251  -3.9211  -3.9211  -3.9190  -3.8876  -3.8876  -3.8828
    -3.8810  -3.8810  -3.8708  -3.8708  -3.8564  -3.8559  -3.8526  -3.8526
    -3.8473  -3.8473  -3.8383  -3.8349  -3.8341  -3.8341  -3.8304  -3.8304
    -3.7855  -3.7817  -3.7817  -3.7773  -3.7773  -3.7758  -3.7586  -3.7586
    -3.7425  -3.7425  -3.7164  -3.7164  -3.6882  -3.6796  -3.6796  -3.6601
    -3.6224  -3.6224  -3.6041  -3.6041  -3.5803  -3.4897  -3.4521  -3.4521
    -3.3605  -3.3605  -3.2766  -3.2503  -3.2503  -3.1816  -3.1816  -3.1484
    -3.1222  -3.0997  -3.0654  -3.0654  -2.9735  -2.9735  -2.9575  -2.9575
     2.9177   3.0074   3.0074   3.0329   3.1878   3.1878   3.2293   3.2293
     3.4652   3.4652   3.4971   3.5519   3.5519   3.5559   3.5559   3.6151
     3.7076   3.7076   3.7308   3.7308   3.7721   3.8897   3.9034   3.9034
     3.9320   4.2403   4.2403   4.6839   4.7793   4.7793   4.8930   4.8930
     4.9959   4.9959   5.0393   5.0512   5.0512   5.1500   5.1500   5.1776
     5.1776   5.1922   5.2697   5.3513   5.3513   5.3658   5.3658   5.3916
     5.5086   5.6342   5.6342   5.6815   5.6815   5.7591   5.7591   5.7698
     5.7698   5.8103   5.9048   5.9048   5.9475   5.9475   6.1478   6.1642
     6.1788   6.1788   6.2352   6.3377   6.3377   6.4216   6.4216   6.4798
     6.5163   6.5174   6.5174   6.5206   6.5206   6.5540   6.7082   6.7082
     6.7141   6.8688   6.8688   6.8835   6.8835   6.8879   6.8879   6.9181
     6.9181   7.0406   7.0436   7.0514   7.0514   7.1054   7.1054   7.1511
     7.1907   7.2053   7.2054   7.2171   7.2171   7.3507   7.3507   7.3559
     7.3559   7.3614   7.3614   7.3732   7.4127   7.4609   7.4609   7.5701
     7.5780   7.5780   7.6044   7.6044   7.6118   7.6543   7.7043   7.7043
     7.7179   7.7179   7.8215   7.8215   7.8273   7.8273   7.8295   7.8718
     7.8718   7.8813   7.8813   7.8991   7.8991   7.9234   7.9430   7.9449
     7.9449   7.9559   7.9584   7.9584   8.0020   8.0367   8.0367   8.0923
    10.8423  11.1962  11.1962  11.9974  11.9974  12.8900  12.8900  12.9163
    13.0075  13.0075  13.2722  13.2753  13.5472  13.5638  13.5639  13.6415
    13.6415  13.6770  13.6770  13.8509

          k = 0.0283-0.0525 0.0363 ( 63467 PWs)   bands (ev):

    -9.0663  -9.0169  -9.0070  -8.8742  -8.8742  -8.7288  -8.7241  -8.7241
    -8.7048  -8.7048  -8.7007  -8.5822  -8.5822  -8.4928  -8.4896  -8.4552
    -8.4486  -8.4486  -8.4464  -8.4464  -8.4368  -8.4288  -8.4192  -8.3847
    -8.3847  -8.3693  -8.3680  -8.3660  -8.3618  -8.3573  -8.3573  -8.3344
    -8.3344  -8.3100  -8.2986  -8.2896  -8.2896  -8.2720  -8.2720  -8.2565
    -8.2428  -8.2428  -8.2406  -8.2377  -8.2365  -8.2341  -8.2282  -8.2282
    -4.3000  -4.2987  -4.2784  -4.2784  -4.2779  -4.2779  -4.2749  -4.2728
    -4.2575  -4.2519  -4.2441  -4.2402  -4.2402  -4.2393  -4.2393  -4.2314
    -4.2298  -4.2241  -4.2241  -4.2199  -4.2199  -4.2196  -4.2162  -4.2099
    -4.1904  -4.1904  -4.1896  -4.1759  -4.1758  -4.1746  -4.1647  -4.1628
    -4.1607  -4.1607  -4.1572  -4.1572  -4.1570  -4.1504  -4.1504  -4.1496
    -4.1451  -4.1402  -4.1320  -4.1320  -4.1289  -4.1190  -4.1190  -4.1164
    -4.1164  -4.1066  -4.1066  -4.1051  -4.1051  -4.0969  -4.0921  -4.0919
    -4.0820  -4.0814  -4.0814  -4.0814  -4.0772  -4.0708  -4.0652  -4.0588
    -4.0562  -4.0560  -4.0440  -4.0274  -4.0274  -4.0204  -4.0162  -4.0116
    -4.0052  -3.9973  -3.9973  -3.9949  -3.9949  -3.9885  -3.9885  -3.9830
    -3.9830  -3.9724  -3.9716  -3.9716  -3.9695  -3.9645  -3.9575  -3.9564
    -3.9534  -3.9502  -3.9493  -3.9493  -3.9455  -3.9395  -3.9395  -3.9358
    -3.9300  -3.9192  -3.9073  -3.9073  -3.8952  -3.8827  -3.8824  -3.8808
    -3.8791  -3.8791  -3.8738  -3.8672  -3.8672  -3.8652  -3.8622  -3.8622
    -3.8596  -3.8505  -3.8466  -3.8466  -3.8407  -3.8390  -3.8390  -3.8149
    -3.8149  -3.8120  -3.8076  -3.7767  -3.7767  -3.7740  -3.7716  -3.7716
    -3.7609  -3.7591  -3.7130  -3.7119  -3.7047  -3.6797  -3.6761  -3.6638
    -3.6638  -3.6268  -3.6268  -3.5201  -3.4945  -3.4945  -3.4397  -3.3725
    -3.3725  -3.3710  -3.3585  -3.3012  -3.2739  -3.1719  -3.1719  -3.1321
    -3.0727  -3.0727  -3.0376  -3.0376  -3.0169  -3.0112  -2.9628  -2.9560
     2.8930   2.8976   2.9269   3.1505   3.1505   3.2125   3.2885   3.2921
     3.3243   3.3243   3.4408   3.4408   3.4782   3.6964   3.7607   3.7607
     3.7830   3.7838   3.8060   3.8060   3.8120   3.8120   3.9039   3.9674
     4.1210   4.1210   4.2787   4.5379   4.5379   4.6903   4.7082   4.7543
     4.8377   4.8955   5.0256   5.0256   5.1400   5.1400   5.1573   5.1795
     5.2344   5.3413   5.3564   5.3564   5.3573   5.3573   5.4518   5.5436
     5.5720   5.5967   5.6046   5.6046   5.6429   5.6429   5.6736   5.6893
     5.8750   6.0059   6.1155   6.1174   6.1262   6.1262   6.1399   6.1399
     6.2706   6.3107   6.3107   6.3108   6.3108   6.3337   6.3509   6.3604
     6.4012   6.4887   6.5118   6.5118   6.5425   6.6180   6.6628   6.6652
     6.6652   6.6929   6.7219   6.7219   6.8106   6.8393   6.8888   6.8888
     6.9157   6.9157   6.9184   6.9883   6.9883   7.0092   7.0711   7.1410
     7.1759   7.1759   7.2622   7.2622   7.2656   7.3313   7.3483   7.3563
     7.4126   7.4159   7.4159   7.5418   7.5456   7.5456   7.5787   7.5827
     7.6135   7.6201   7.6721   7.6721   7.6788   7.6991   7.7018   7.7269
     7.7269   7.7914   7.7914   7.7943   7.8203   7.8262   7.8428   7.8504
     7.8504   7.8517   7.8517   7.9155   7.9346   7.9382   7.9382   7.9408
     7.9437   7.9437   7.9494   7.9533   7.9549   7.9549   7.9968   8.0490
    10.7288  11.0812  11.2605  12.1414  12.1414  12.8162  12.9616  12.9616
    13.2338  13.2711  13.2711  13.3689  13.3689  13.4090  13.4477  13.4477
    13.5107  13.7213  13.7222  13.7928

          k = 0.0284-0.0525-0.0363 ( 63467 PWs)   bands (ev):

    -9.0663  -9.0169  -9.0070  -8.8742  -8.8742  -8.7288  -8.7241  -8.7241
    -8.7048  -8.7048  -8.7007  -8.5822  -8.5822  -8.4928  -8.4896  -8.4552
    -8.4486  -8.4486  -8.4464  -8.4464  -8.4368  -8.4288  -8.4192  -8.3847
    -8.3847  -8.3693  -8.3680  -8.3660  -8.3618  -8.3573  -8.3573  -8.3344
    -8.3344  -8.3100  -8.2986  -8.2896  -8.2896  -8.2720  -8.2720  -8.2565
    -8.2428  -8.2428  -8.2406  -8.2377  -8.2365  -8.2341  -8.2282  -8.2282
    -4.3000  -4.2987  -4.2784  -4.2784  -4.2779  -4.2779  -4.2749  -4.2728
    -4.2575  -4.2519  -4.2441  -4.2402  -4.2402  -4.2393  -4.2393  -4.2314
    -4.2298  -4.2241  -4.2241  -4.2199  -4.2199  -4.2196  -4.2162  -4.2099
    -4.1904  -4.1904  -4.1896  -4.1759  -4.1758  -4.1746  -4.1647  -4.1628
    -4.1607  -4.1607  -4.1572  -4.1572  -4.1570  -4.1504  -4.1504  -4.1496
    -4.1451  -4.1402  -4.1320  -4.1320  -4.1289  -4.1190  -4.1190  -4.1164
    -4.1164  -4.1066  -4.1066  -4.1051  -4.1051  -4.0969  -4.0921  -4.0919
    -4.0820  -4.0814  -4.0814  -4.0814  -4.0772  -4.0708  -4.0652  -4.0588
    -4.0562  -4.0560  -4.0440  -4.0274  -4.0274  -4.0204  -4.0162  -4.0116
    -4.0052  -3.9973  -3.9973  -3.9949  -3.9949  -3.9885  -3.9885  -3.9830
    -3.9830  -3.9724  -3.9716  -3.9716  -3.9695  -3.9645  -3.9575  -3.9564
    -3.9534  -3.9502  -3.9493  -3.9493  -3.9455  -3.9395  -3.9395  -3.9358
    -3.9300  -3.9192  -3.9073  -3.9073  -3.8952  -3.8827  -3.8824  -3.8808
    -3.8791  -3.8791  -3.8738  -3.8672  -3.8672  -3.8652  -3.8622  -3.8622
    -3.8596  -3.8505  -3.8466  -3.8466  -3.8407  -3.8390  -3.8390  -3.8149
    -3.8149  -3.8120  -3.8076  -3.7767  -3.7767  -3.7740  -3.7716  -3.7716
    -3.7609  -3.7591  -3.7130  -3.7119  -3.7047  -3.6797  -3.6761  -3.6638
    -3.6638  -3.6268  -3.6268  -3.5201  -3.4945  -3.4945  -3.4397  -3.3725
    -3.3725  -3.3710  -3.3585  -3.3012  -3.2739  -3.1719  -3.1719  -3.1321
    -3.0727  -3.0727  -3.0376  -3.0376  -3.0169  -3.0112  -2.9628  -2.9560
     2.8930   2.8976   2.9269   3.1505   3.1505   3.2125   3.2885   3.2921
     3.3243   3.3243   3.4408   3.4408   3.4782   3.6964   3.7607   3.7607
     3.7830   3.7838   3.8060   3.8060   3.8120   3.8120   3.9039   3.9674
     4.1210   4.1210   4.2787   4.5379   4.5379   4.6903   4.7082   4.7543
     4.8377   4.8955   5.0256   5.0256   5.1400   5.1400   5.1573   5.1795
     5.2344   5.3413   5.3564   5.3564   5.3573   5.3573   5.4518   5.5436
     5.5720   5.5967   5.6046   5.6046   5.6429   5.6429   5.6736   5.6893
     5.8750   6.0059   6.1155   6.1174   6.1262   6.1262   6.1399   6.1399
     6.2706   6.3107   6.3107   6.3108   6.3108   6.3337   6.3509   6.3604
     6.4012   6.4887   6.5118   6.5118   6.5425   6.6180   6.6628   6.6652
     6.6652   6.6929   6.7219   6.7219   6.8106   6.8393   6.8888   6.8888
     6.9157   6.9157   6.9184   6.9883   6.9883   7.0092   7.0711   7.1410
     7.1759   7.1759   7.2622   7.2622   7.2656   7.3313   7.3483   7.3563
     7.4126   7.4159   7.4159   7.5418   7.5456   7.5456   7.5787   7.5827
     7.6135   7.6201   7.6721   7.6721   7.6788   7.6991   7.7018   7.7269
     7.7269   7.7914   7.7914   7.7943   7.8203   7.8262   7.8428   7.8504
     7.8504   7.8517   7.8517   7.9155   7.9346   7.9382   7.9382   7.9408
     7.9437   7.9437   7.9494   7.9533   7.9549   7.9549   7.9968   8.0490
    10.7288  11.0812  11.2605  12.1414  12.1414  12.8162  12.9616  12.9616
    13.2338  13.2711  13.2711  13.3689  13.3689  13.4090  13.4477  13.4478
    13.5107  13.7192  13.7222  13.7930

     the Fermi energy is     8.5632 ev

!    total energy              =   -6637.03751439 Ry
     estimated scf accuracy    <          3.6E-10 Ry
     smearing contrib. (-TS)   =      -0.00000000 Ry
     internal energy E=F+TS    =   -6637.03751439 Ry

     The total energy is F=E-TS. E is the sum of the following terms:
     one-electron contribution =   -1621.77060357 Ry
     hartree contribution      =    1435.98890813 Ry
     xc contribution           =   -1885.87802709 Ry
     ewald contribution        =   -4108.41716997 Ry
     one-center paw contrib.   =    -456.96062189 Ry

     total magnetization       =    -0.00 Bohr mag/cell
     absolute magnetization    =     0.00 Bohr mag/cell

     convergence has been achieved in  14 iterations

     Forces acting on atoms (cartesian axes, Ry/au):

     atom    1 type  1   force =     0.00013106    0.00007021    0.00004822
     atom    2 type  1   force =     0.00012989    0.00007044    0.00004871
     atom    3 type  1   force =     0.00013112    0.00007017    0.00004887
     atom    4 type  1   force =     0.00013058    0.00007122    0.00004886
     atom    5 type  1   force =     0.00013000    0.00007068    0.00004861
     atom    6 type  1   force =     0.00013077    0.00007129    0.00004977
     atom    7 type  1   force =     0.00013087    0.00007067    0.00004872
     atom    8 type  1   force =     0.00013009    0.00007019    0.00004847
     atom    9 type  1   force =    -0.00012996   -0.00007116   -0.00004907
     atom   10 type  1   force =    -0.00013127   -0.00007037   -0.00004920
     atom   11 type  1   force =    -0.00013007   -0.00007043   -0.00004925
     atom   12 type  1   force =    -0.00013159   -0.00006961   -0.00004810
     atom   13 type  1   force =    -0.00013009   -0.00006988   -0.00004862
     atom   14 type  1   force =    -0.00013127   -0.00006989   -0.00004838
     atom   15 type  1   force =    -0.00013055   -0.00007097   -0.00004943
     atom   16 type  1   force =    -0.00013050   -0.00007026   -0.00004818
     atom   17 type  1   force =     0.00013050    0.00007026    0.00004818
     atom   18 type  1   force =     0.00013055    0.00007097    0.00004943
     atom   19 type  1   force =     0.00013127    0.00006989    0.00004838
     atom   20 type  1   force =     0.00013009    0.00006988    0.00004862
     atom   21 type  1   force =     0.00013159    0.00006961    0.00004810
     atom   22 type  1   force =     0.00013007    0.00007043    0.00004925
     atom   23 type  1   force =     0.00013127    0.00007037    0.00004920
     atom   24 type  1   force =     0.00012996    0.00007116    0.00004907
     atom   25 type  1   force =    -0.00013009   -0.00007019   -0.00004847
     atom   26 type  1   force =    -0.00013087   -0.00007067   -0.00004872
     atom   27 type  1   force =    -0.00013077   -0.00007129   -0.00004977
     atom   28 type  1   force =    -0.00013000   -0.00007068   -0.00004861
     atom   29 type  1   force =    -0.00013058   -0.00007122   -0.00004886
     atom   30 type  1   force =    -0.00013112   -0.00007017   -0.00004887
     atom   31 type  1   force =    -0.00012989   -0.00007044   -0.00004871
     atom   32 type  1   force =    -0.00013106   -0.00007021   -0.00004822
     atom   33 type  2   force =     0.00000005    0.00029876   -0.00043256
     atom   34 type  2   force =     0.00000004    0.00029878   -0.00043253
     atom   35 type  2   force =     0.00000012    0.00029873   -0.00043261
     atom   36 type  2   force =     0.00000009    0.00029871   -0.00043263
     atom   37 type  2   force =     0.00000002    0.00029872   -0.00043258
     atom   38 type  2   force =     0.00000007    0.00029876   -0.00043264
     atom   39 type  2   force =     0.00000007    0.00029877   -0.00043259
     atom   40 type  2   force =     0.00000009    0.00029878   -0.00043261
     atom   41 type  2   force =    -0.00024972    0.00046253   -0.00000006
     atom   42 type  2   force =    -0.00024964    0.00046253    0.00000001
     atom   43 type  2   force =    -0.00024964    0.00046252   -0.00000001
     atom   44 type  2   force =    -0.00024969    0.00046253    0.00000006
     atom   45 type  2   force =    -0.00024964    0.00046253   -0.00000002
     atom   46 type  2   force =    -0.00024969    0.00046251    0.00000005
     atom   47 type  2   force =    -0.00024968    0.00046250   -0.00000004
     atom   48 type  2   force =    -0.00024965    0.00046247   -0.00000005
     atom   49 type  2   force =     0.00024980   -0.00016383   -0.00043260
     atom   50 type  2   force =     0.00024979   -0.00016384   -0.00043254
     atom   51 type  2   force =     0.00024979   -0.00016390   -0.00043261
     atom   52 type  2   force =     0.00024976   -0.00016391   -0.00043262
     atom   53 type  2   force =     0.00024976   -0.00016388   -0.00043263
     atom   54 type  2   force =     0.00024974   -0.00016386   -0.00043260
     atom   55 type  2   force =     0.00024975   -0.00016383   -0.00043260
     atom   56 type  2   force =     0.00024981   -0.00016380   -0.00043263
     atom   57 type  2   force =    -0.00024981    0.00016380    0.00043263
     atom   58 type  2   force =    -0.00024975    0.00016383    0.00043260
     atom   59 type  2   force =    -0.00024974    0.00016386    0.00043260
     atom   60 type  2   force =    -0.00024976    0.00016388    0.00043263
     atom   61 type  2   force =    -0.00024976    0.00016391    0.00043262
     atom   62 type  2   force =    -0.00024979    0.00016390    0.00043261
     atom   63 type  2   force =    -0.00024979    0.00016384    0.00043254
     atom   64 type  2   force =    -0.00024980    0.00016383    0.00043260
     atom   65 type  2   force =    -0.00000009   -0.00029878    0.00043261
     atom   66 type  2   force =    -0.00000007   -0.00029877    0.00043259
     atom   67 type  2   force =    -0.00000007   -0.00029876    0.00043264
     atom   68 type  2   force =    -0.00000002   -0.00029872    0.00043258
     atom   69 type  2   force =    -0.00000009   -0.00029871    0.00043263
     atom   70 type  2   force =    -0.00000012   -0.00029873    0.00043261
     atom   71 type  2   force =    -0.00000004   -0.00029878    0.00043253
     atom   72 type  2   force =    -0.00000005   -0.00029876    0.00043256
     atom   73 type  2   force =     0.00024965   -0.00046247    0.00000005
     atom   74 type  2   force =     0.00024968   -0.00046250    0.00000004
     atom   75 type  2   force =     0.00024969   -0.00046251   -0.00000005
     atom   76 type  2   force =     0.00024964   -0.00046253    0.00000002
     atom   77 type  2   force =     0.00024969   -0.00046253   -0.00000006
     atom   78 type  2   force =     0.00024964   -0.00046252    0.00000001
     atom   79 type  2   force =     0.00024964   -0.00046253   -0.00000001
     atom   80 type  2   force =     0.00024972   -0.00046253    0.00000006

     Total force =     0.003748     Total SCF correction =     0.000010


     Computing stress (Cartesian axis) and pressure

          total   stress  (Ry/bohr**3)                   (kbar)     P=       -4.55
  -0.00002238   0.00000886   0.00000612           -3.29        1.30        0.90
   0.00000886  -0.00003400   0.00000330            1.30       -5.00        0.49
   0.00000612   0.00000330  -0.00003650            0.90        0.49       -5.37


     Writing output data file ./calc.save/

     init_run     :    278.69s CPU    283.89s WALL (       1 calls)
     electrons    :  13157.87s CPU  13336.64s WALL (       1 calls)
     forces       :    134.48s CPU    135.52s WALL (       1 calls)
     stress       :    650.05s CPU    651.88s WALL (       1 calls)

     Called by init_run:
     wfcinit      :    265.72s CPU    270.60s WALL (       1 calls)
     potinit      :      4.50s CPU      4.61s WALL (       1 calls)
     hinit0       :      6.71s CPU      6.74s WALL (       1 calls)

     Called by electrons:
     c_bands      :  12126.40s CPU  12278.27s WALL (      14 calls)
     sum_band     :    982.96s CPU   1006.80s WALL (      14 calls)
     v_of_rho     :     17.01s CPU     17.59s WALL (      15 calls)
     newd         :     17.28s CPU     19.75s WALL (      15 calls)
     PAW_pot      :     13.12s CPU     13.13s WALL (      15 calls)
     mix_rho      :      2.61s CPU      2.73s WALL (      14 calls)

     Called by c_bands:
     init_us_2    :     32.46s CPU     32.84s WALL (     868 calls)
     cegterg      :  12040.40s CPU  12189.51s WALL (     392 calls)

     Called by *egterg:
     cdiaghg      :   1355.29s CPU   1355.74s WALL (    2333 calls)
     h_psi        :   5558.22s CPU   5680.96s WALL (    2361 calls)
     s_psi        :   1263.71s CPU   1264.16s WALL (    2361 calls)
     g_psi        :     15.32s CPU     15.35s WALL (    1941 calls)

     Called by h_psi:
     h_psi:calbec :   1302.76s CPU   1309.77s WALL (    2361 calls)
     vloc_psi     :   2971.58s CPU   3079.21s WALL (    2361 calls)
     add_vuspsi   :   1270.78s CPU   1271.68s WALL (    2361 calls)

     General routines
     calbec       :   1853.63s CPU   1863.02s WALL (    2893 calls)
     fft          :     11.73s CPU     12.16s WALL (     413 calls)
     ffts         :      0.35s CPU      0.36s WALL (      58 calls)
     fftw         :   2741.88s CPU   2841.77s WALL ( 1065592 calls)
     interpolate  :      1.12s CPU      1.15s WALL (      30 calls)

     Parallel routines
     fft_scatt_xy :    395.36s CPU    411.74s WALL ( 1066063 calls)
     fft_scatt_yz :    594.68s CPU    622.08s WALL ( 1066063 calls)

     PWSCF        :      3h57m CPU      4h 0m WALL


   This run was terminated on:   4:13:51  16Jul2021            

=------------------------------------------------------------------------------=
   JOB DONE.
=------------------------------------------------------------------------------=
# python dir           : /home/lls34/GitHub/10_QE_Interface/ase-espresso/espresso
# espresso dir         : /opt/womble/qe-6.7/bin
# pseudo dir           : /home/lls34/programs/QuantumExpresso/pseudopotentials/use_pot
# ase-espresso version : 0.3.3


