40
Lattice="5.925641344390835 9.425440262792786e-43 0.0 3.5649319999622456e-43 6.286040009023066 0.0 0.0 0.0 17.099659254850287" Properties=species:S:1:pos:R:3:spacegroup_kinds:I:1:forces:R:3 spacegroup="P 1" unit_cell=conventional occupancy="_JSON {\"0\": {\"In\": 1}, \"1\": {\"In\": 1}, \"2\": {\"In\": 1}, \"3\": {\"In\": 1}, \"4\": {\"In\": 1}, \"5\": {\"In\": 1}, \"6\": {\"In\": 1}, \"7\": {\"In\": 1}, \"8\": {\"In\": 1}, \"9\": {\"In\": 1}, \"10\": {\"In\": 1}, \"11\": {\"In\": 1}, \"12\": {\"In\": 1}, \"13\": {\"In\": 1}, \"14\": {\"In\": 1}, \"15\": {\"In\": 1}, \"16\": {\"O\": 1}, \"17\": {\"O\": 1}, \"18\": {\"O\": 1}, \"19\": {\"O\": 1}, \"20\": {\"O\": 1}, \"21\": {\"O\": 1}, \"22\": {\"O\": 1}, \"23\": {\"O\": 1}, \"24\": {\"O\": 1}, \"25\": {\"O\": 1}, \"26\": {\"O\": 1}, \"27\": {\"O\": 1}, \"28\": {\"O\": 1}, \"29\": {\"O\": 1}, \"30\": {\"O\": 1}, \"31\": {\"O\": 1}, \"32\": {\"O\": 1}, \"33\": {\"O\": 1}, \"34\": {\"O\": 1}, \"35\": {\"O\": 1}, \"36\": {\"O\": 1}, \"37\": {\"O\": 1}, \"38\": {\"O\": 1}, \"39\": {\"O\": 1}}" n_minim_iter=10 energy=-45147.21369692688 stress="0.03939019855061157 -5.106415379404894e-13 2.419572018651458e-13 -5.106415379404894e-13 0.03941455306935686 -6.868083097960964e-14 2.419572018651458e-13 -6.868083097960964e-14 0.039336569728022776" free_energy=-45147.21369692688 pbc="T T T"
In       2.69225471       5.24082443       9.85897569        0       0.00196227       0.00173474      -0.00051493
In      -0.27056596       4.18823558       7.24068357        1       0.00196227      -0.00173474       0.00051493
In       3.23338663       2.09780443      15.79051319        2      -0.00196227       0.00173474       0.00051493
In       6.19620731       1.04521557       1.30914606        3      -0.00196227      -0.00173474      -0.00051493
In       3.23338663       1.04521557       7.24068357        4      -0.00196227      -0.00173474       0.00051493
In       6.19620731       2.09780443       9.85897569        5      -0.00196227       0.00173474      -0.00051493
In       2.69225471       4.18823558       1.30914606        6       0.00196227      -0.00173474      -0.00051493
In      -0.27056596       5.24082443      15.79051319        7       0.00196227       0.00173474       0.00051493
In       2.71024776       5.05517857      13.91967245        8       0.00722725      -0.00180680      -0.00175733
In       5.67306843       4.37388144       3.17998681        9       0.00722725       0.00180680       0.00175733
In       3.21539359       1.91215857      11.72981643       10      -0.00722725      -0.00180680       0.00175733
In       0.25257292       1.23086144       5.36984282       11      -0.00722725       0.00180680      -0.00175733
In       3.21539359       1.23086144       3.17998681       12      -0.00722725       0.00180680       0.00175733
In       0.25257292       1.91215857      13.91967245       13      -0.00722725      -0.00180680      -0.00175733
In       2.71024776       4.37388144       5.36984282       14       0.00722725       0.00180680      -0.00175733
In       5.67306843       5.05517857      11.72981643       15       0.00722725      -0.00180680       0.00175733
O        4.83147261       5.69640006      13.70053605       16       0.00007901      -0.00393400      -0.00296039
O        1.86865194       3.73265996       3.39912321       17       0.00007901       0.00393400       0.00296039
O        1.09416873       2.55338005      11.94895283       18      -0.00007901      -0.00393400       0.00296039
O        4.05698940       0.58963995       5.15070642       19      -0.00007901       0.00393400      -0.00296039
O        1.09416873       0.58963995       3.39912321       20      -0.00007901       0.00393400       0.00296039
O        4.05698940       2.55338005      13.70053605       21      -0.00007901      -0.00393400      -0.00296039
O        4.83147261       3.73265996       5.15070642       22       0.00007901       0.00393400      -0.00296039
O        1.86865194       5.69640006      11.94895283       23       0.00007901      -0.00393400       0.00296039
O        4.10035548       3.77461453      10.82663330       24      -0.00468254      -0.00111158      -0.00092917
O        1.13753481       5.65444548       6.27302596       25      -0.00468254       0.00111158       0.00092917
O        1.82528587       0.63159453      14.82285559       26       0.00468254      -0.00111158       0.00092917
O        4.78810654       2.51142548       2.27680367       27       0.00468254       0.00111158      -0.00092917
O        1.82528587       2.51142548       6.27302596       28       0.00468254       0.00111158       0.00092917
O        4.78810654       0.63159453      10.82663330       29       0.00468254      -0.00111158      -0.00092917
O        4.10035548       5.65444548       2.27680367       30      -0.00468254       0.00111158      -0.00092917
O        1.13753481       3.77461453      14.82285559       31      -0.00468254      -0.00111158       0.00092917
O        3.73496428       4.19997992      16.38502676       32       0.00092080       0.00004283      -0.00447110
O        0.77214361       5.22908009       0.71463249       33       0.00092080      -0.00004283       0.00447110
O        2.19067706       1.05695992       9.26446212       34      -0.00092080       0.00004283       0.00447110
O        5.15349773       2.08606009       7.83519713       35      -0.00092080      -0.00004283      -0.00447110
O        2.19067706       2.08606009       0.71463249       36      -0.00092080      -0.00004283       0.00447110
O        5.15349773       1.05695992      16.38502676       37      -0.00092080       0.00004283      -0.00447110
O        3.73496428       5.22908009       7.83519713       38       0.00092080      -0.00004283      -0.00447110
O        0.77214361       4.19997992       9.26446212       39       0.00092080       0.00004283       0.00447110
