40
Lattice="5.919940034034785 9.264699955929747e-43 0.0 -4.642619093375635e-44 6.203062743604312 0.0 0.0 0.0 16.283142703685634" Properties=species:S:1:pos:R:3:spacegroup_kinds:I:1:forces:R:3 spacegroup="P 1" unit_cell=conventional occupancy="_JSON {\"0\": {\"In\": 1}, \"1\": {\"In\": 1}, \"2\": {\"In\": 1}, \"3\": {\"In\": 1}, \"4\": {\"In\": 1}, \"5\": {\"In\": 1}, \"6\": {\"In\": 1}, \"7\": {\"In\": 1}, \"8\": {\"In\": 1}, \"9\": {\"In\": 1}, \"10\": {\"In\": 1}, \"11\": {\"In\": 1}, \"12\": {\"In\": 1}, \"13\": {\"In\": 1}, \"14\": {\"In\": 1}, \"15\": {\"In\": 1}, \"16\": {\"O\": 1}, \"17\": {\"O\": 1}, \"18\": {\"O\": 1}, \"19\": {\"O\": 1}, \"20\": {\"O\": 1}, \"21\": {\"O\": 1}, \"22\": {\"O\": 1}, \"23\": {\"O\": 1}, \"24\": {\"O\": 1}, \"25\": {\"O\": 1}, \"26\": {\"O\": 1}, \"27\": {\"O\": 1}, \"28\": {\"O\": 1}, \"29\": {\"O\": 1}, \"30\": {\"O\": 1}, \"31\": {\"O\": 1}, \"32\": {\"O\": 1}, \"33\": {\"O\": 1}, \"34\": {\"O\": 1}, \"35\": {\"O\": 1}, \"36\": {\"O\": 1}, \"37\": {\"O\": 1}, \"38\": {\"O\": 1}, \"39\": {\"O\": 1}}" n_minim_iter=29 energy=-45148.14336844907 stress="0.036122679343220575 1.5754048435421762e-13 -2.5692561720325434e-13 1.5754048435421762e-13 0.03614933226039153 -2.8805623178602135e-13 -2.5692561720325434e-13 -2.8805623178602135e-13 0.036313388522169456" free_energy=-45148.14336844907 pbc="T T T"
In       2.64124181       5.18140847       9.37665566        0       0.00487564       0.00025464      -0.00284939
In      -0.31872820       4.12318565       6.90648704        1       0.00487564      -0.00025464       0.00284939
In       3.27869822       2.07987709      15.04805840        2      -0.00487564       0.00025464       0.00284939
In       6.23866824       1.02165428       1.23508431        3      -0.00487564      -0.00025464      -0.00284939
In       3.27869822       1.02165428       6.90648704        4      -0.00487564      -0.00025464       0.00284939
In       6.23866824       2.07987709       9.37665566        5      -0.00487564       0.00025464      -0.00284939
In       2.64124181       4.12318565       1.23508431        6       0.00487564      -0.00025464      -0.00284939
In      -0.31872820       5.18140847      15.04805840        7       0.00487564       0.00025464       0.00284939
In       2.67722879       5.00428432      13.30833923        8      -0.00375072       0.00430839      -0.00273002
In       5.63719881       4.30030979       2.97480348        9      -0.00375072      -0.00430839       0.00273002
In       3.24271124       1.90275295      11.11637483       10       0.00375072       0.00430839       0.00273002
In       0.28274122       1.19877842       5.16676788       11       0.00375072      -0.00430839      -0.00273002
In       3.24271124       1.19877842       2.97480348       12       0.00375072      -0.00430839       0.00273002
In       0.28274122       1.90275295      13.30833923       13       0.00375072       0.00430839      -0.00273002
In       2.67722879       4.30030979       5.16676788       14      -0.00375072      -0.00430839      -0.00273002
In       5.63719881       5.00428432      11.11637483       15      -0.00375072       0.00430839       0.00273002
O        4.77827858       5.68719569      13.03637608       16       0.00377804       0.00276601      -0.00723296
O        1.81830856       3.61739842       3.24676662       17       0.00377804      -0.00276601       0.00723296
O        1.14166145       2.58566432      11.38833797       18      -0.00377804       0.00276601       0.00723296
O        4.10163147       0.51586705       4.89480473       19      -0.00377804      -0.00276601      -0.00723296
O        1.14166145       0.51586705       3.24676662       20      -0.00377804      -0.00276601       0.00723296
O        4.10163147       2.58566432      13.03637608       21      -0.00377804       0.00276601      -0.00723296
O        4.77827858       3.61739842       4.89480473       22       0.00377804      -0.00276601      -0.00723296
O        1.81830856       5.68719569      11.38833797       23       0.00377804       0.00276601       0.00723296
O        4.08439708       3.72142748      10.19860760       24      -0.00135173       0.00125430       0.00017331
O        1.12442706       5.58316664       6.08453510       25      -0.00135173      -0.00125430      -0.00017331
O        1.83554296       0.61989610      14.22610645       26       0.00135173       0.00125430      -0.00017331
O        4.79551298       2.48163527       2.05703625       27       0.00135173      -0.00125430       0.00017331
O        1.83554296       2.48163527       6.08453510       28       0.00135173      -0.00125430      -0.00017331
O        4.79551298       0.61989610      10.19860760       29       0.00135173       0.00125430       0.00017331
O        4.08439708       5.58316664       2.05703625       30      -0.00135173      -0.00125430       0.00017331
O        1.12442706       3.72142748      14.22610645       31      -0.00135173       0.00125430      -0.00017331
O        3.72242391       4.17516985      15.58443959       32      -0.00606473      -0.00316086       0.00475287
O        0.76245389       5.12942427       0.69870311       33      -0.00606473       0.00316086      -0.00475287
O        2.19751613       1.07363847       8.84027446       34       0.00606473      -0.00316086      -0.00475287
O        5.15748614       2.02789290       7.44286824       35       0.00606473       0.00316086       0.00475287
O        2.19751613       2.02789290       0.69870311       36       0.00606473       0.00316086      -0.00475287
O        5.15748614       1.07363847      15.58443959       37       0.00606473      -0.00316086       0.00475287
O        3.72242391       5.12942427       7.44286824       38      -0.00606473       0.00316086       0.00475287
O        0.76245389       4.17516985       8.84027446       39      -0.00606473      -0.00316086      -0.00475287
