40
Lattice="5.492373743867728 -4.303995181993979e-42 0.0 4.84330002443853e-42 5.586748514958771 0.0 0.0 0.0 15.674236612453628" Properties=species:S:1:pos:R:3:spacegroup_kinds:I:1:forces:R:3 spacegroup="P 1" unit_cell=conventional occupancy="_JSON {\"0\": {\"In\": 1}, \"1\": {\"In\": 1}, \"2\": {\"In\": 1}, \"3\": {\"In\": 1}, \"4\": {\"In\": 1}, \"5\": {\"In\": 1}, \"6\": {\"In\": 1}, \"7\": {\"In\": 1}, \"8\": {\"In\": 1}, \"9\": {\"In\": 1}, \"10\": {\"In\": 1}, \"11\": {\"In\": 1}, \"12\": {\"In\": 1}, \"13\": {\"In\": 1}, \"14\": {\"In\": 1}, \"15\": {\"In\": 1}, \"16\": {\"O\": 1}, \"17\": {\"O\": 1}, \"18\": {\"O\": 1}, \"19\": {\"O\": 1}, \"20\": {\"O\": 1}, \"21\": {\"O\": 1}, \"22\": {\"O\": 1}, \"23\": {\"O\": 1}, \"24\": {\"O\": 1}, \"25\": {\"O\": 1}, \"26\": {\"O\": 1}, \"27\": {\"O\": 1}, \"28\": {\"O\": 1}, \"29\": {\"O\": 1}, \"30\": {\"O\": 1}, \"31\": {\"O\": 1}, \"32\": {\"O\": 1}, \"33\": {\"O\": 1}, \"34\": {\"O\": 1}, \"35\": {\"O\": 1}, \"36\": {\"O\": 1}, \"37\": {\"O\": 1}, \"38\": {\"O\": 1}, \"39\": {\"O\": 1}}" n_minim_iter=10 energy=-45149.45694673771 stress="-0.04711582067659938 -1.0369779241015076e-13 -4.5439834046225196e-14 -1.0369779241015076e-13 -0.0471150056670899 3.9950424812544176e-13 -4.5439834046225196e-14 3.9950424812544176e-13 -0.047128577646270514" free_energy=-45149.45694673771 pbc="T T T"
In       2.70532064       4.53599763       8.98270377        0      -0.00008621       0.00280993       0.00199521
In      -0.04086623       3.84412514       6.69153285        1      -0.00008621      -0.00280993      -0.00199521
In       2.78705310       1.74262337      14.52865115        2       0.00008621       0.00280993      -0.00199521
In       5.53323998       1.05075088       1.14558546        3       0.00008621      -0.00280993       0.00199521
In       2.78705310       1.05075088       6.69153285        4       0.00008621      -0.00280993      -0.00199521
In       5.53323998       1.74262337       8.98270377        5       0.00008621       0.00280993       0.00199521
In       2.70532064       3.84412514       1.14558546        6      -0.00008621      -0.00280993       0.00199521
In      -0.04086623       4.53599763      14.52865115        7      -0.00008621       0.00280993      -0.00199521
In       2.71774300       4.29148576      12.80920526        8       0.00036021      -0.00007630      -0.00229394
In       5.46392988       4.08863701       2.86503136        9       0.00036021       0.00007630       0.00229394
In       2.77463074       1.49811150      10.70214966       10      -0.00036021      -0.00007630       0.00229394
In       0.02844387       1.29526276       4.97208695       11      -0.00036021       0.00007630      -0.00229394
In       2.77463074       1.29526276       2.86503136       12      -0.00036021       0.00007630       0.00229394
In       0.02844387       1.49811150      12.80920526       13      -0.00036021      -0.00007630      -0.00229394
In       2.71774300       4.08863701       4.97208695       14       0.00036021       0.00007630      -0.00229394
In       5.46392988       4.29148576      10.70214966       15       0.00036021      -0.00007630       0.00229394
O        4.68311256       5.07886681      12.51473469       16      -0.00397979       0.00336422      -0.00121722
O        1.93692568       3.30125597       3.15950193       17      -0.00397979      -0.00336422       0.00121722
O        0.80926119       2.28549255      10.99662023       18       0.00397979       0.00336422       0.00121722
O        3.55544806       0.50788171       4.67761638       19       0.00397979      -0.00336422      -0.00121722
O        0.80926119       0.50788171       3.15950193       20       0.00397979      -0.00336422       0.00121722
O        3.55544806       2.28549255      12.51473469       21       0.00397979       0.00336422      -0.00121722
O        4.68311256       3.30125597       4.67761638       22      -0.00397979      -0.00336422      -0.00121722
O        1.93692568       5.07886681      10.99662023       23      -0.00397979       0.00336422       0.00121722
O        3.91697715       3.04077969       9.81214181       24      -0.00130109       0.00852767      -0.00159731
O        1.17079028       5.33934309       5.86209480       25      -0.00130109      -0.00852767       0.00159731
O        1.57539659       0.24740543      13.69921311       26       0.00130109       0.00852767       0.00159731
O        4.32158346       2.54596883       1.97502350       27       0.00130109      -0.00852767      -0.00159731
O        1.57539659       2.54596883       5.86209480       28       0.00130109      -0.00852767       0.00159731
O        4.32158346       0.24740543       9.81214181       29       0.00130109       0.00852767      -0.00159731
O        3.91697715       5.33934309       1.97502350       30      -0.00130109      -0.00852767      -0.00159731
O        1.17079028       3.04077969      13.69921311       31      -0.00130109       0.00852767       0.00159731
O        3.49363211       3.81058062      14.86857541       32      -0.00517777       0.00212560      -0.00125580
O        0.74744524       4.56954216       0.80566120       33      -0.00517777      -0.00212560       0.00125580
O        1.99874163       1.01720636       8.64277951       34       0.00517777       0.00212560       0.00125580
O        4.74492850       1.77616790       7.03145710       35       0.00517777      -0.00212560      -0.00125580
O        1.99874163       1.77616790       0.80566120       36       0.00517777      -0.00212560       0.00125580
O        4.74492850       1.01720636      14.86857541       37       0.00517777       0.00212560      -0.00125580
O        3.49363211       4.56954216       7.03145710       38      -0.00517777      -0.00212560      -0.00125580
O        0.74744524       3.81058062       8.64277951       39      -0.00517777       0.00212560       0.00125580
