40
Lattice="5.8694614575416155 5.999276285090461e-43 0.0 -6.343115407589028e-44 6.019207234018323 0.0 0.0 0.0 16.924823941251752" Properties=species:S:1:pos:R:3:spacegroup_kinds:I:1:forces:R:3 spacegroup="P 1" unit_cell=conventional occupancy="_JSON {\"0\": {\"In\": 1}, \"1\": {\"In\": 1}, \"2\": {\"In\": 1}, \"3\": {\"In\": 1}, \"4\": {\"In\": 1}, \"5\": {\"In\": 1}, \"6\": {\"In\": 1}, \"7\": {\"In\": 1}, \"8\": {\"In\": 1}, \"9\": {\"In\": 1}, \"10\": {\"In\": 1}, \"11\": {\"In\": 1}, \"12\": {\"In\": 1}, \"13\": {\"In\": 1}, \"14\": {\"In\": 1}, \"15\": {\"In\": 1}, \"16\": {\"O\": 1}, \"17\": {\"O\": 1}, \"18\": {\"O\": 1}, \"19\": {\"O\": 1}, \"20\": {\"O\": 1}, \"21\": {\"O\": 1}, \"22\": {\"O\": 1}, \"23\": {\"O\": 1}, \"24\": {\"O\": 1}, \"25\": {\"O\": 1}, \"26\": {\"O\": 1}, \"27\": {\"O\": 1}, \"28\": {\"O\": 1}, \"29\": {\"O\": 1}, \"30\": {\"O\": 1}, \"31\": {\"O\": 1}, \"32\": {\"O\": 1}, \"33\": {\"O\": 1}, \"34\": {\"O\": 1}, \"35\": {\"O\": 1}, \"36\": {\"O\": 1}, \"37\": {\"O\": 1}, \"38\": {\"O\": 1}, \"39\": {\"O\": 1}}" n_minim_iter=11 energy=-45148.40555748012 stress="0.05788686664994692 -2.2217771803726396e-13 -5.0312194024316686e-14 -2.2217771803726396e-13 0.05789005271734518 -1.635378097774841e-13 -5.0312194024316686e-14 -1.635378097774841e-13 0.0578889046113309" free_energy=-45148.40555748012 pbc="T T T"
In       2.92195812       4.79654651       9.66133502        0      -0.00696848       0.00380509      -0.00029123
In      -0.01277260       4.23226434       7.26348893        1      -0.00696848      -0.00380509       0.00029123
In       2.94750333       1.78694289      15.72590090        2       0.00696848       0.00380509       0.00029123
In       5.88223406       1.22266072       1.19892305        3       0.00696848      -0.00380509      -0.00029123
In       2.94750333       1.22266072       7.26348893        4       0.00696848      -0.00380509       0.00029123
In       5.88223406       1.78694289       9.66133502        5       0.00696848       0.00380509      -0.00029123
In       2.92195812       4.23226434       1.19892305        6      -0.00696848      -0.00380509      -0.00029123
In      -0.01277260       4.79654651      15.72590090        7      -0.00696848       0.00380509       0.00029123
In       2.89911495       4.44338313      13.83896522        8      -0.00036673       0.00285958       0.00161405
In       5.83384568       4.58542772       3.08585872        9      -0.00036673      -0.00285958      -0.00161405
In       2.97034651       1.43377951      11.54827069       10       0.00036673       0.00285958      -0.00161405
In       0.03561578       1.57582411       5.37655325       11       0.00036673      -0.00285958       0.00161405
In       2.97034651       1.57582411       3.08585872       12       0.00036673      -0.00285958      -0.00161405
In       0.03561578       1.43377951      13.83896522       13       0.00036673       0.00285958       0.00161405
In       2.89911495       4.58542772       5.37655325       14      -0.00036673      -0.00285958       0.00161405
In       5.83384568       4.44338313      11.54827069       15      -0.00036673       0.00285958      -0.00161405
O        5.03089052       5.21676001      13.52099884       16      -0.00069603       0.00692088       0.00137760
O        2.09615979       3.81205084       3.40382510       17      -0.00069603      -0.00692088      -0.00137760
O        0.83857094       2.20715639      11.86623707       18       0.00069603       0.00692088      -0.00137760
O        3.77330167       0.80244722       5.05858687       19       0.00069603      -0.00692088       0.00137760
O        0.83857094       0.80244722       3.40382510       20       0.00069603      -0.00692088      -0.00137760
O        3.77330167       2.20715639      13.52099884       21       0.00069603       0.00692088       0.00137760
O        5.03089052       3.81205084       5.05858687       22      -0.00069603      -0.00692088       0.00137760
O        2.09615979       5.21676001      11.86623707       23      -0.00069603       0.00692088      -0.00137760
O        4.11982176       3.15302968      10.57726733       24       0.00133167      -0.00099674      -0.00094295
O        1.18509103       5.87578117       6.34755661       25       0.00133167       0.00099674       0.00094295
O        1.74963970       0.14342606      14.80996858       26      -0.00133167      -0.00099674       0.00094295
O        4.68437043       2.86617756       2.11485536       27      -0.00133167       0.00099674      -0.00094295
O        1.74963970       2.86617756       6.34755661       28      -0.00133167       0.00099674       0.00094295
O        4.68437043       0.14342606      10.57726733       29      -0.00133167      -0.00099674      -0.00094295
O        4.11982176       5.87578117       2.11485536       30       0.00133167       0.00099674      -0.00094295
O        1.18509103       3.15302968      14.80996858       31       0.00133167      -0.00099674       0.00094295
O        3.80636211       3.96789354      16.07327423       32      -0.00027420       0.00352224      -0.00037132
O        0.87163138       5.06091732       0.85154971       33      -0.00027420      -0.00352224       0.00037132
O        2.06309935       0.95828992       9.31396168       34       0.00027420       0.00352224       0.00037132
O        4.99783008       2.05131370       7.61086226       35       0.00027420      -0.00352224      -0.00037132
O        2.06309935       2.05131370       0.85154971       36       0.00027420      -0.00352224       0.00037132
O        4.99783008       0.95828992      16.07327423       37       0.00027420       0.00352224      -0.00037132
O        3.80636211       5.06091732       7.61086226       38      -0.00027420      -0.00352224      -0.00037132
O        0.87163138       3.96789354       9.31396168       39      -0.00027420       0.00352224       0.00037132
