40
Lattice="5.494189828013415 -3.299656979207172e-42 7.748131320112234e-84 2.2734768818339536e-42 5.2718899006751805 -1.1107272782072817e-41 -1.8650807857225985e-84 -6.941653499200041e-41 15.258533787000076" Properties=species:S:1:pos:R:3:spacegroup_kinds:I:1:forces:R:3 spacegroup="P 1" unit_cell=conventional occupancy="_JSON {\"0\": {\"In\": 1}, \"1\": {\"In\": 1}, \"2\": {\"In\": 1}, \"3\": {\"In\": 1}, \"4\": {\"In\": 1}, \"5\": {\"In\": 1}, \"6\": {\"In\": 1}, \"7\": {\"In\": 1}, \"8\": {\"In\": 1}, \"9\": {\"In\": 1}, \"10\": {\"In\": 1}, \"11\": {\"In\": 1}, \"12\": {\"In\": 1}, \"13\": {\"In\": 1}, \"14\": {\"In\": 1}, \"15\": {\"In\": 1}, \"16\": {\"O\": 1}, \"17\": {\"O\": 1}, \"18\": {\"O\": 1}, \"19\": {\"O\": 1}, \"20\": {\"O\": 1}, \"21\": {\"O\": 1}, \"22\": {\"O\": 1}, \"23\": {\"O\": 1}, \"24\": {\"O\": 1}, \"25\": {\"O\": 1}, \"26\": {\"O\": 1}, \"27\": {\"O\": 1}, \"28\": {\"O\": 1}, \"29\": {\"O\": 1}, \"30\": {\"O\": 1}, \"31\": {\"O\": 1}, \"32\": {\"O\": 1}, \"33\": {\"O\": 1}, \"34\": {\"O\": 1}, \"35\": {\"O\": 1}, \"36\": {\"O\": 1}, \"37\": {\"O\": 1}, \"38\": {\"O\": 1}, \"39\": {\"O\": 1}}" n_minim_iter=31 energy=-45146.82045349677 stress="-0.10418416859137061 -1.9476086695282144e-13 -3.8691197024168886e-13 -1.9476086695282144e-13 -0.10406360360508042 -2.769529732899514e-13 -3.8691197024168886e-13 -2.769529732899514e-13 -0.10431599224315007" free_energy=-45146.82045349677 pbc="T T T"
In       2.84632926       3.91060099       8.58563681        0       0.00393389      -0.00132555      -0.00116260
In       0.09923435       3.99723386       6.67289698        1       0.00393389       0.00132555       0.00116260
In       2.64786057       1.27465604      14.30216387        2      -0.00393389      -0.00132555       0.00116260
In       5.39495548       1.36128891       0.95636992        3      -0.00393389       0.00132555      -0.00116260
In       2.64786057       1.36128891       6.67289698        4      -0.00393389       0.00132555       0.00116260
In       5.39495548       1.27465604       8.58563681        5      -0.00393389      -0.00132555      -0.00116260
In       2.84632926       3.99723386       0.95636992        6       0.00393389       0.00132555      -0.00116260
In       0.09923435       3.91060099      14.30216387        7       0.00393389      -0.00132555       0.00116260
In       2.82156839       3.67078187      12.44245227        8      -0.00488066       0.00153302       0.00371932
In       5.56866330       4.23705298       2.81608152        9      -0.00488066      -0.00153302      -0.00371932
In       2.67262144       1.03483692      10.44534841       10       0.00488066       0.00153302      -0.00371932
In      -0.07447347       1.60110803       4.81318538       11       0.00488066      -0.00153302       0.00371932
In       2.67262144       1.60110803       2.81608152       12       0.00488066      -0.00153302      -0.00371932
In      -0.07447347       1.03483692      12.44245227       13       0.00488066       0.00153302       0.00371932
In       2.82156839       4.23705298       4.81318538       14      -0.00488066      -0.00153302       0.00371932
In       5.56866330       3.67078187      10.44534841       15      -0.00488066       0.00153302      -0.00371932
O        4.80931997       4.24817445      12.28058268       16      -0.00044950       0.00361647       0.00128048
O        2.06222505       3.65966040       2.97795111       17      -0.00044950      -0.00361647      -0.00128048
O        0.68486986       1.61222950      10.60721800       18       0.00044950       0.00361647      -0.00128048
O        3.43196478       1.02371545       4.65131578       19       0.00044950      -0.00361647       0.00128048
O        0.68486986       1.02371545       2.97795111       20       0.00044950      -0.00361647      -0.00128048
O        3.43196478       1.61222950      12.28058268       21       0.00044950       0.00361647       0.00128048
O        4.80931997       3.65966040       4.65131578       22      -0.00044950      -0.00361647       0.00128048
O        2.06222505       4.24817445      10.60721800       23      -0.00044950       0.00361647      -0.00128048
O        3.92358016       2.48957959       9.60126717       24      -0.00133448      -0.00053967      -0.00628767
O        1.17648525       5.41825526       5.65726662       25      -0.00133448       0.00053967       0.00628767
O        1.57060966      -0.14636536      13.28653351       26       0.00133448      -0.00053967       0.00628767
O        4.31770458       2.78231031       1.97200028       27       0.00133448       0.00053967      -0.00628767
O        1.57060966       2.78231031       5.65726662       28       0.00133448       0.00053967       0.00628767
O        4.31770458      -0.14636536       9.60126717       29       0.00133448      -0.00053967      -0.00628767
O        3.92358016       5.41825526       1.97200028       30      -0.00133448       0.00053967      -0.00628767
O        1.17648525       2.48957959      13.28653351       31      -0.00133448      -0.00053967       0.00628767
O        3.63864964       3.19850527      14.45511654       32      -0.00099253      -0.00290631       0.00059729
O        0.89155473       4.70932958       0.80341725       33      -0.00099253       0.00290631      -0.00059729
O        1.85554018       0.56256032       8.43268414       34       0.00099253      -0.00290631      -0.00059729
O        4.60263510       2.07338463       6.82584964       35       0.00099253       0.00290631       0.00059729
O        1.85554018       2.07338463       0.80341725       36       0.00099253       0.00290631      -0.00059729
O        4.60263510       0.56256032      14.45511654       37       0.00099253      -0.00290631       0.00059729
O        3.63864964       4.70932958       6.82584964       38      -0.00099253       0.00290631       0.00059729
O        0.89155473       3.19850527       8.43268414       39      -0.00099253      -0.00290631      -0.00059729
