40
Lattice="5.554987869628978 -2.8546998551701104e-42 1.9247301692849122e-84 2.6233208019404038e-42 5.104745147386409 4.62966049873845e-42 -1.2664267984634297e-83 -1.4135158925025786e-41 15.585675007859246" Properties=species:S:1:pos:R:3:spacegroup_kinds:I:1:forces:R:3 spacegroup="P 1" unit_cell=conventional occupancy="_JSON {\"0\": {\"In\": 1}, \"1\": {\"In\": 1}, \"2\": {\"In\": 1}, \"3\": {\"In\": 1}, \"4\": {\"In\": 1}, \"5\": {\"In\": 1}, \"6\": {\"In\": 1}, \"7\": {\"In\": 1}, \"8\": {\"In\": 1}, \"9\": {\"In\": 1}, \"10\": {\"In\": 1}, \"11\": {\"In\": 1}, \"12\": {\"In\": 1}, \"13\": {\"In\": 1}, \"14\": {\"In\": 1}, \"15\": {\"In\": 1}, \"16\": {\"O\": 1}, \"17\": {\"O\": 1}, \"18\": {\"O\": 1}, \"19\": {\"O\": 1}, \"20\": {\"O\": 1}, \"21\": {\"O\": 1}, \"22\": {\"O\": 1}, \"23\": {\"O\": 1}, \"24\": {\"O\": 1}, \"25\": {\"O\": 1}, \"26\": {\"O\": 1}, \"27\": {\"O\": 1}, \"28\": {\"O\": 1}, \"29\": {\"O\": 1}, \"30\": {\"O\": 1}, \"31\": {\"O\": 1}, \"32\": {\"O\": 1}, \"33\": {\"O\": 1}, \"34\": {\"O\": 1}, \"35\": {\"O\": 1}, \"36\": {\"O\": 1}, \"37\": {\"O\": 1}, \"38\": {\"O\": 1}, \"39\": {\"O\": 1}}" n_minim_iter=1 energy=-45146.64054933849 stress="-0.11698955595270048 -4.15949453272526e-14 9.07649626813155e-14 -4.15949453272526e-14 -0.12769323755155887 7.40662809803505e-13 9.07649626813155e-14 7.40662809803505e-13 -0.11603623186512826" free_energy=-45146.64054933849 pbc="T T T"
In       2.76721693       3.87830844       8.82900562        0      -0.01637318      -0.05347850      -0.09375143
In      -0.01027701       3.77880928       6.75666939        1      -0.01637318       0.05347850       0.09375143
In       2.78777094       1.32593587      14.54950689        2       0.01637318      -0.05347850       0.09375143
In       5.56526488       1.22643671       1.03616812        3       0.01637318       0.05347850      -0.09375143
In       2.78777094       1.22643671       6.75666939        4       0.01637318       0.05347850       0.09375143
In       5.56526488       1.32593587       8.82900562        5       0.01637318      -0.05347850      -0.09375143
In       2.76721693       3.77880928       1.03616812        6      -0.01637318       0.05347850      -0.09375143
In      -0.01027701       3.87830844      14.54950689        7      -0.01637318      -0.05347850       0.09375143
In       2.81618796       3.74677975      12.71461739        8       0.01003854      -0.04476374      -0.00643041
In       5.59368189       3.91033797       2.87105762        9       0.01003854       0.04476374       0.00643041
In       2.73879991       1.19440717      10.66389512       10      -0.01003854      -0.04476374       0.00643041
In      -0.03869402       1.35796540       4.92177989       11      -0.01003854       0.04476374      -0.00643041
In       2.73879991       1.35796540       2.87105762       12      -0.01003854       0.04476374       0.00643041
In      -0.03869402       1.19440717      12.71461739       13      -0.01003854      -0.04476374      -0.00643041
In       2.81618796       3.91033797       4.92177989       14       0.01003854       0.04476374      -0.00643041
In       5.59368189       3.74677975      10.66389512       15       0.01003854      -0.04476374       0.00643041
O        4.83899650       4.23739752      12.52614464       16      -0.05134634       0.02406660       0.07085579
O        2.06150256       3.41972020       3.05953037       17      -0.05134634      -0.02406660      -0.07085579
O        0.71599137       1.68502495      10.85236787       18       0.05134634       0.02406660      -0.07085579
O        3.49348531       0.86734763       4.73330713       19       0.05134634      -0.02406660       0.07085579
O        0.71599137       0.86734763       3.05953037       20       0.05134634      -0.02406660      -0.07085579
O        3.49348531       1.68502495      12.52614464       21       0.05134634       0.02406660       0.07085579
O        4.83899650       3.41972020       4.73330713       22      -0.05134634      -0.02406660       0.07085579
O        2.06150256       4.23739752      10.85236787       23      -0.05134634       0.02406660      -0.07085579
O        4.00875204       2.54805031       9.77079494       24      -0.00081723      -0.04749567       0.00567726
O        1.23125811       5.10906741       5.81488006       25      -0.00081723       0.04749567      -0.00567726
O        1.54623583      -0.00432227      13.60771757       26       0.00081723      -0.04749567      -0.00567726
O        4.32372976       2.55669484       1.97795744       27       0.00081723       0.04749567       0.00567726
O        1.54623583       2.55669484       5.81488006       28       0.00081723       0.04749567      -0.00567726
O        4.32372976      -0.00432227       9.77079494       29       0.00081723      -0.04749567       0.00567726
O        4.00875204       5.10906741       1.97795744       30      -0.00081723       0.04749567       0.00567726
O        1.23125811       2.54805031      13.60771757       31      -0.00081723      -0.04749567      -0.00567726
O        3.52381015       3.38279276      14.73673443       32      -0.00534089      -0.00098247      -0.03175174
O        0.74631622       4.27432496       0.84894058       33      -0.00534089       0.00098247       0.03175174
O        2.03117772       0.83042019       8.64177808       34       0.00534089      -0.00098247       0.03175174
O        4.80867165       1.72195239       6.94389693       35       0.00534089       0.00098247      -0.03175174
O        2.03117772       1.72195239       0.84894058       36       0.00534089       0.00098247       0.03175174
O        4.80867165       0.83042019      14.73673443       37       0.00534089      -0.00098247      -0.03175174
O        3.52381015       4.27432496       6.94389693       38      -0.00534089       0.00098247      -0.03175174
O        0.74631622       3.38279276       8.64177808       39      -0.00534089      -0.00098247       0.03175174
40
Lattice="5.544053066472541 -2.872891520085565e-42 -2.2577694948718895e-84 2.612292680211584e-42 5.127864514083957 1.3038855843955458e-41 -1.1683974629035617e-83 8.677874317919572e-42 15.546007591041926" Properties=species:S:1:pos:R:3:spacegroup_kinds:I:1:forces:R:3 spacegroup="P 1" unit_cell=conventional occupancy="_JSON {\"0\": {\"In\": 1}, \"1\": {\"In\": 1}, \"2\": {\"In\": 1}, \"3\": {\"In\": 1}, \"4\": {\"In\": 1}, \"5\": {\"In\": 1}, \"6\": {\"In\": 1}, \"7\": {\"In\": 1}, \"8\": {\"In\": 1}, \"9\": {\"In\": 1}, \"10\": {\"In\": 1}, \"11\": {\"In\": 1}, \"12\": {\"In\": 1}, \"13\": {\"In\": 1}, \"14\": {\"In\": 1}, \"15\": {\"In\": 1}, \"16\": {\"O\": 1}, \"17\": {\"O\": 1}, \"18\": {\"O\": 1}, \"19\": {\"O\": 1}, \"20\": {\"O\": 1}, \"21\": {\"O\": 1}, \"22\": {\"O\": 1}, \"23\": {\"O\": 1}, \"24\": {\"O\": 1}, \"25\": {\"O\": 1}, \"26\": {\"O\": 1}, \"27\": {\"O\": 1}, \"28\": {\"O\": 1}, \"29\": {\"O\": 1}, \"30\": {\"O\": 1}, \"31\": {\"O\": 1}, \"32\": {\"O\": 1}, \"33\": {\"O\": 1}, \"34\": {\"O\": 1}, \"35\": {\"O\": 1}, \"36\": {\"O\": 1}, \"37\": {\"O\": 1}, \"38\": {\"O\": 1}, \"39\": {\"O\": 1}}" n_minim_iter=2 energy=-45146.65204726188 stress="-0.11887761901700164 6.261116687898861e-13 5.000115259889479e-13 6.261116687898861e-13 -0.11872407378581393 -2.7252574498948276e-13 5.000115259889479e-13 -2.7252574498948276e-13 -0.11851813031438191" free_energy=-45146.65204726188 pbc="T T T"
In       2.76174734       3.89579959       8.80640647        0      -0.01426615      -0.01664419      -0.07958954
In      -0.01027920       3.79599718       6.73960113        1      -0.01426615       0.01664419       0.07958954
In       2.78230573       1.33186733      14.51260492        2       0.01426615      -0.01664419       0.07958954
In       5.55433226       1.23206492       1.03340267        3       0.01426615       0.01664419      -0.07958954
In       2.78230573       1.23206492       6.73960113        4       0.01426615       0.01664419       0.07958954
In       5.55433226       1.33186733       8.80640647        5       0.01426615      -0.01664419      -0.07958954
In       2.76174734       3.79599718       1.03340267        6      -0.01426615       0.01664419      -0.07958954
In      -0.01027920       3.89579959      14.51260492        7      -0.01426615      -0.01664419       0.07958954
In       2.81065813       3.76368721      12.68224836        8       0.00883726      -0.10621928       0.01278801
In       5.58268466       3.92810956       2.86375923        9       0.00883726       0.10621928      -0.01278801
In       2.73339494       1.19975495      10.63676302       10      -0.00883726      -0.10621928      -0.01278801
In      -0.03863160       1.36417730       4.90924457       11      -0.00883726       0.10621928       0.01278801
In       2.73339494       1.36417730       2.86375923       12      -0.00883726       0.10621928      -0.01278801
In      -0.03863160       1.19975495      12.68224836       13      -0.00883726      -0.10621928       0.01278801
In       2.81065813       3.92810956       4.90924457       14       0.00883726       0.10621928       0.01278801
In       5.58268466       3.76368721      10.63676302       15       0.00883726      -0.10621928      -0.01278801
O        4.82940080       4.25662184      12.49436104       16      -0.03776647       0.07868088       0.07363654
O        2.05737427       3.43517494       3.05164655       17      -0.03776647      -0.07868088      -0.07363654
O        0.71465226       1.69268958      10.82465034       18       0.03776647       0.07868088      -0.07363654
O        3.48667880       0.87124268       4.72135725       19       0.03776647      -0.07868088       0.07363654
O        0.71465226       0.87124268       3.05164655       20       0.03776647      -0.07868088      -0.07363654
O        3.48667880       1.69268958      12.49436104       21       0.03776647       0.07868088       0.07363654
O        4.82940080       3.43517494       4.72135725       22      -0.03776647      -0.07868088       0.07363654
O        2.05737427       4.25662184      10.82465034       23      -0.03776647       0.07868088      -0.07363654
O        4.00085983       2.55952497       9.74593486       24       0.00689412      -0.04476988       0.01537799
O        1.22883330       5.13227180       5.80007273       25       0.00689412       0.04476988      -0.01537799
O        1.54319323      -0.00440729      13.57307652       26      -0.00689412      -0.04476988      -0.01537799
O        4.31521977       2.56833955       1.97293107       27      -0.00689412       0.04476988       0.01537799
O        1.54319323       2.56833955       5.80007273       28      -0.00689412       0.04476988      -0.01537799
O        4.31521977      -0.00440729       9.74593486       29      -0.00689412      -0.04476988       0.01537799
O        4.00085983       5.13227180       1.97293107       30       0.00689412       0.04476988       0.01537799
O        1.22883330       2.55952497      13.57307652       31       0.00689412      -0.04476988      -0.01537799
O        3.51686634       3.39811206      14.69918423       32      -0.00910038      -0.05848639      -0.05567854
O        0.74483981       4.29368471       0.84682336       33      -0.00910038       0.05848639       0.05567854
O        2.02718672       0.83417980       8.61982716       34       0.00910038      -0.05848639       0.05567854
O        4.79921326       1.72975246       6.92618043       35       0.00910038       0.05848639      -0.05567854
O        2.02718672       1.72975246       0.84682336       36       0.00910038       0.05848639       0.05567854
O        4.79921326       0.83417980      14.69918423       37       0.00910038      -0.05848639      -0.05567854
O        3.51686634       4.29368471       6.92618043       38      -0.00910038       0.05848639      -0.05567854
O        0.74483981       3.39811206       8.61982716       39      -0.00910038      -0.05848639       0.05567854
40
Lattice="5.549583423655057 -2.8762701535189124e-42 8.427197411132916e-85 2.6126945436674968e-42 5.129633466656083 7.626943474262082e-42 -1.1531228211425795e-83 -7.718912528467784e-42 15.525159748158693" Properties=species:S:1:pos:R:3:spacegroup_kinds:I:1:forces:R:3 spacegroup="P 1" unit_cell=conventional occupancy="_JSON {\"0\": {\"In\": 1}, \"1\": {\"In\": 1}, \"2\": {\"In\": 1}, \"3\": {\"In\": 1}, \"4\": {\"In\": 1}, \"5\": {\"In\": 1}, \"6\": {\"In\": 1}, \"7\": {\"In\": 1}, \"8\": {\"In\": 1}, \"9\": {\"In\": 1}, \"10\": {\"In\": 1}, \"11\": {\"In\": 1}, \"12\": {\"In\": 1}, \"13\": {\"In\": 1}, \"14\": {\"In\": 1}, \"15\": {\"In\": 1}, \"16\": {\"O\": 1}, \"17\": {\"O\": 1}, \"18\": {\"O\": 1}, \"19\": {\"O\": 1}, \"20\": {\"O\": 1}, \"21\": {\"O\": 1}, \"22\": {\"O\": 1}, \"23\": {\"O\": 1}, \"24\": {\"O\": 1}, \"25\": {\"O\": 1}, \"26\": {\"O\": 1}, \"27\": {\"O\": 1}, \"28\": {\"O\": 1}, \"29\": {\"O\": 1}, \"30\": {\"O\": 1}, \"31\": {\"O\": 1}, \"32\": {\"O\": 1}, \"33\": {\"O\": 1}, \"34\": {\"O\": 1}, \"35\": {\"O\": 1}, \"36\": {\"O\": 1}, \"37\": {\"O\": 1}, \"38\": {\"O\": 1}, \"39\": {\"O\": 1}}" n_minim_iter=3 energy=-45146.65549703067 stress="-0.11639403742469263 -6.084138085865089e-13 1.4561672366338035e-13 -6.084138085865089e-13 -0.11837145560753662 -3.2252486283183913e-13 1.4561672366338035e-13 -3.2252486283183913e-13 -0.12013468954739011" free_energy=-45146.65549703067 pbc="T T T"
In       2.76429437       3.89689553       8.79344075        0      -0.02494334      -0.03896391      -0.05330271
In      -0.01049734       3.79755467       6.73171899        1      -0.02494334       0.03896391       0.05330271
In       2.78528906       1.33207880      14.49429887        2       0.02494334      -0.03896391       0.05330271
In       5.56008077       1.23273794       1.03086088        3       0.02494334       0.03896391      -0.05330271
In       2.78528906       1.23273794       6.73171899        4       0.02494334       0.03896391       0.05330271
In       5.56008077       1.33207880       8.79344075        5       0.02494334      -0.03896391      -0.05330271
In       2.76429437       3.79755467       1.03086088        6      -0.02494334       0.03896391      -0.05330271
In      -0.01049734       3.89689553      14.49429887        7      -0.02494334      -0.03896391       0.05330271
In       2.81359062       3.76342401      12.66542516        8       0.00986642      -0.08533162      -0.01049829
In       5.58838233       3.93102619       2.85973459        9       0.00986642       0.08533162       0.01049829
In       2.73599280       1.19860728      10.62231446       10      -0.00986642      -0.08533162       0.01049829
In      -0.03879891       1.36620946       4.90284529       11      -0.00986642       0.08533162      -0.01049829
In       2.73599280       1.36620946       2.85973459       12      -0.00986642       0.08533162       0.01049829
In      -0.03879891       1.19860728      12.66542516       13      -0.00986642      -0.08533162      -0.01049829
In       2.81359062       3.93102619       4.90284529       14       0.00986642       0.08533162      -0.01049829
In       5.58838233       3.76342401      10.62231446       15       0.00986642      -0.08533162       0.01049829
O        4.83366735       4.25924630      12.47867396       16      -0.04884873       0.06768483       0.05127326
O        2.05887564       3.43520390       3.04648579       17      -0.04884873      -0.06768483      -0.05127326
O        0.71591607       1.69442957      10.80906566       18       0.04884873       0.06768483      -0.05127326
O        3.49070778       0.87038717       4.71609409       19       0.04884873      -0.06768483       0.05127326
O        0.71591607       0.87038717       3.04648579       20       0.04884873      -0.06768483      -0.05127326
O        3.49070778       1.69442957      12.47867396       21       0.04884873       0.06768483       0.05127326
O        4.83366735       3.43520390       4.71609409       22      -0.04884873      -0.06768483       0.05127326
O        2.05887564       4.25924630      10.80906566       23      -0.04884873       0.06768483      -0.05127326
O        4.00495066       2.55974772       9.73308763       24      -0.00650692      -0.04105364       0.01036110
O        1.23015895       5.13470248       5.79207211       25      -0.00650692       0.04105364      -0.01036110
O        1.54463277      -0.00506902      13.55465199       26       0.00650692      -0.04105364      -0.01036110
O        4.31942448       2.56988575       1.97050776       27       0.00650692       0.04105364       0.01036110
O        1.54463277       2.56988575       5.79207211       28       0.00650692       0.04105364      -0.01036110
O        4.31942448      -0.00506902       9.73308763       29       0.00650692      -0.04105364       0.01036110
O        4.00495066       5.13470248       1.97050776       30      -0.00650692       0.04105364       0.01036110
O        1.23015895       2.55974772      13.55465199       31      -0.00650692      -0.04105364      -0.01036110
O        3.52024227       3.39842616      14.67866572       32       0.01574470      -0.05868603      -0.05391077
O        0.74545055       4.29602404       0.84649403       33       0.01574470       0.05868603       0.05391077
O        2.02934116       0.83360942       8.60907390       34      -0.01574470      -0.05868603       0.05391077
O        4.80413287       1.73120731       6.91608584       35      -0.01574470       0.05868603      -0.05391077
O        2.02934116       1.73120731       0.84649403       36      -0.01574470       0.05868603       0.05391077
O        4.80413287       0.83360942      14.67866572       37      -0.01574470      -0.05868603      -0.05391077
O        3.52024227       4.29602404       6.91608584       38       0.01574470       0.05868603      -0.05391077
O        0.74545055       3.39842616       8.60907390       39       0.01574470      -0.05868603       0.05391077
40
Lattice="5.5401450172950675 -2.8746898151151843e-42 2.294970857472505e-85 2.6131724543565236e-42 5.13632553597221 8.705129036116114e-42 -1.1519663392114309e-83 -4.3898206797428515e-42 15.531346971322272" Properties=species:S:1:pos:R:3:spacegroup_kinds:I:1:forces:R:3 spacegroup="P 1" unit_cell=conventional occupancy="_JSON {\"0\": {\"In\": 1}, \"1\": {\"In\": 1}, \"2\": {\"In\": 1}, \"3\": {\"In\": 1}, \"4\": {\"In\": 1}, \"5\": {\"In\": 1}, \"6\": {\"In\": 1}, \"7\": {\"In\": 1}, \"8\": {\"In\": 1}, \"9\": {\"In\": 1}, \"10\": {\"In\": 1}, \"11\": {\"In\": 1}, \"12\": {\"In\": 1}, \"13\": {\"In\": 1}, \"14\": {\"In\": 1}, \"15\": {\"In\": 1}, \"16\": {\"O\": 1}, \"17\": {\"O\": 1}, \"18\": {\"O\": 1}, \"19\": {\"O\": 1}, \"20\": {\"O\": 1}, \"21\": {\"O\": 1}, \"22\": {\"O\": 1}, \"23\": {\"O\": 1}, \"24\": {\"O\": 1}, \"25\": {\"O\": 1}, \"26\": {\"O\": 1}, \"27\": {\"O\": 1}, \"28\": {\"O\": 1}, \"29\": {\"O\": 1}, \"30\": {\"O\": 1}, \"31\": {\"O\": 1}, \"32\": {\"O\": 1}, \"33\": {\"O\": 1}, \"34\": {\"O\": 1}, \"35\": {\"O\": 1}, \"36\": {\"O\": 1}, \"37\": {\"O\": 1}, \"38\": {\"O\": 1}, \"39\": {\"O\": 1}}" n_minim_iter=4 energy=-45146.66260800539 stress="-0.11861877425230187 6.560773524885816e-13 6.010620573699075e-14 6.560773524885816e-13 -0.11676064737840199 1.2255753118568065e-13 6.010620573699075e-14 1.2255753118568065e-13 -0.11621435847923371" free_energy=-45146.66260800539 pbc="T T T"
In       2.75887056       3.90106214       8.79337341        0       0.04029659      -0.05219838      -0.00014407
In      -0.01120195       3.80342617       6.73797356        1       0.04029659       0.05219838       0.00014407
In       2.78127445       1.33289937      14.50364704        2      -0.04029659      -0.05219838       0.00014407
In       5.55134696       1.23526340       1.02769993        3      -0.04029659       0.05219838      -0.00014407
In       2.78127445       1.23526340       6.73797356        4      -0.04029659       0.05219838       0.00014407
In       5.55134696       1.33289937       8.79337341        5      -0.04029659      -0.05219838      -0.00014407
In       2.75887056       3.80342617       1.02769993        6       0.04029659       0.05219838      -0.00014407
In      -0.01120195       3.90106214      14.50364704        7       0.04029659      -0.05219838       0.00014407
In       2.80922342       3.76343000      12.67094091        8      -0.07706633      -0.03502975      -0.12344074
In       5.57929593       3.94105831       2.86040606        9      -0.07706633       0.03502975       0.12344074
In       2.73092160       1.19526723      10.62607954       10       0.07706633      -0.03502975       0.12344074
In      -0.03915091       1.37289554       4.90526743       11       0.07706633       0.03502975      -0.12344074
In       2.73092160       1.37289554       2.86040606       12       0.07706633       0.03502975       0.12344074
In      -0.03915091       1.19526723      12.67094091       13       0.07706633      -0.03502975      -0.12344074
In       2.80922342       3.94105831       4.90526743       14      -0.07706633       0.03502975      -0.12344074
In       5.57929593       3.76343000      10.62607954       15      -0.07706633      -0.03502975       0.12344074
O        4.82362282       4.26845700      12.48695807       16       0.00115197       0.01832805      -0.04444379
O        2.05355031       3.43603130       3.04438890       17       0.00115197      -0.01832805       0.04444379
O        0.71652220       1.70029423      10.81006238       18      -0.00115197       0.01832805       0.04444379
O        3.48659470       0.86786854       4.72128459       19      -0.00115197      -0.01832805      -0.04444379
O        0.71652220       0.86786854       3.04438890       20      -0.00115197      -0.01832805       0.04444379
O        3.48659470       1.70029423      12.48695807       21      -0.00115197       0.01832805      -0.04444379
O        4.82362282       3.43603130       4.72128459       22       0.00115197      -0.01832805      -0.04444379
O        2.05355031       4.26845700      10.81006238       23       0.00115197       0.01832805       0.04444379
O        3.99838815       2.56098585       9.73765393       24      -0.06312721      -0.02795032      -0.01058673
O        1.22831565       5.14350245       5.79369304       25      -0.06312721       0.02795032       0.01058673
O        1.54175686      -0.00717691      13.55936653       26       0.06312721      -0.02795032       0.01058673
O        4.31182937       2.57533968       1.97198044       27       0.06312721       0.02795032      -0.01058673
O        1.54175686       2.57533968       5.79369304       28       0.06312721       0.02795032       0.01058673
O        4.31182937      -0.00717691       9.73765393       29       0.06312721      -0.02795032      -0.01058673
O        3.99838815       5.14350245       1.97198044       30      -0.06312721       0.02795032      -0.01058673
O        1.22831565       2.56098585      13.55936653       31      -0.06312721      -0.02795032       0.01058673
O        3.51396294       3.40010278      14.68193773       32       0.00600036      -0.05733104       0.00798549
O        0.74389043       4.30438552       0.84940924       33       0.00600036       0.05733104      -0.00798549
O        2.02618208       0.83194001       8.61508273       34      -0.00600036      -0.05733104      -0.00798549
O        4.79625459       1.73622276       6.91626425       35      -0.00600036       0.05733104       0.00798549
O        2.02618208       1.73622276       0.84940924       36      -0.00600036       0.05733104      -0.00798549
O        4.79625459       0.83194001      14.68193773       37      -0.00600036      -0.05733104       0.00798549
O        3.51396294       4.30438552       6.91626425       38       0.00600036       0.05733104       0.00798549
O        0.74389043       3.40010278       8.61508273       39       0.00600036      -0.05733104      -0.00798549
40
Lattice="5.5501327134182095 -2.88167651611509e-42 8.142036141483772e-84 2.6145857732682024e-42 5.142422435708067 -5.084716366839788e-42 -1.1175317126182094e-83 -4.640695887201543e-41 15.485016702366476" Properties=species:S:1:pos:R:3:spacegroup_kinds:I:1:forces:R:3 spacegroup="P 1" unit_cell=conventional occupancy="_JSON {\"0\": {\"In\": 1}, \"1\": {\"In\": 1}, \"2\": {\"In\": 1}, \"3\": {\"In\": 1}, \"4\": {\"In\": 1}, \"5\": {\"In\": 1}, \"6\": {\"In\": 1}, \"7\": {\"In\": 1}, \"8\": {\"In\": 1}, \"9\": {\"In\": 1}, \"10\": {\"In\": 1}, \"11\": {\"In\": 1}, \"12\": {\"In\": 1}, \"13\": {\"In\": 1}, \"14\": {\"In\": 1}, \"15\": {\"In\": 1}, \"16\": {\"O\": 1}, \"17\": {\"O\": 1}, \"18\": {\"O\": 1}, \"19\": {\"O\": 1}, \"20\": {\"O\": 1}, \"21\": {\"O\": 1}, \"22\": {\"O\": 1}, \"23\": {\"O\": 1}, \"24\": {\"O\": 1}, \"25\": {\"O\": 1}, \"26\": {\"O\": 1}, \"27\": {\"O\": 1}, \"28\": {\"O\": 1}, \"29\": {\"O\": 1}, \"30\": {\"O\": 1}, \"31\": {\"O\": 1}, \"32\": {\"O\": 1}, \"33\": {\"O\": 1}, \"34\": {\"O\": 1}, \"35\": {\"O\": 1}, \"36\": {\"O\": 1}, \"37\": {\"O\": 1}, \"38\": {\"O\": 1}, \"39\": {\"O\": 1}}" n_minim_iter=5 energy=-45146.67251147403 stress="-0.11198767995585995 -7.270662400476754e-14 5.957392849880123e-13 -7.270662400476754e-14 -0.11650380449639487 1.0402705363085734e-13 5.957392849880123e-13 1.0402705363085734e-13 -0.11823680609736614" free_energy=-45146.67251147403 pbc="T T T"
In       2.76426390       3.90086911       8.76147705        0       0.00191507      -0.06086632       0.07681318
In      -0.01080246       3.81276454       6.72353966        1       0.00191507       0.06086632      -0.07681318
In       2.78586882       1.32965789      14.46604801        2      -0.00191507      -0.06086632      -0.07681318
In       5.56093517       1.24155332       1.01896869        3      -0.00191507       0.06086632       0.07681318
In       2.78586882       1.24155332       6.72353966        4      -0.00191507       0.06086632      -0.07681318
In       5.56093517       1.32965789       8.76147705        5      -0.00191507      -0.06086632       0.07681318
In       2.76426390       3.81276454       1.01896869        6       0.00191507       0.06086632       0.07681318
In      -0.01080246       3.90086911      14.46604801        7       0.00191507      -0.06086632      -0.07681318
In       2.81131305       3.75819948      12.62741052        8      -0.04200489       0.01848777      -0.08036894
In       5.58637941       3.95543418       2.85760618        9      -0.04200489      -0.01848777       0.08036894
In       2.73881966       1.18698826      10.60011453       10       0.04200489       0.01848777       0.08036894
In      -0.03624670       1.38422296       4.88490217       11       0.04200489      -0.01848777      -0.08036894
In       2.73881966       1.38422296       2.85760618       12       0.04200489      -0.01848777       0.08036894
In      -0.03624670       1.18698826      12.62741052       13       0.04200489       0.01848777      -0.08036894
In       2.81131305       3.95543418       4.88490217       14      -0.04200489      -0.01848777      -0.08036894
In       5.58637941       3.75819948      10.60011453       15      -0.04200489       0.01848777       0.08036894
O        4.82886353       4.28045765      12.45282343       16      -0.05305075      -0.04314505      -0.06043829
O        2.05379718       3.43317600       3.03219327       17      -0.05305075       0.04314505       0.06043829
O        0.72126918       1.70924643      10.77470162       18       0.05305075      -0.04314505       0.06043829
O        3.49633554       0.86196479       4.71031508       19       0.05305075       0.04314505      -0.06043829
O        0.72126918       0.86196479       3.03219327       20       0.05305075       0.04314505       0.06043829
O        3.49633554       1.70924643      12.45282343       21       0.05305075      -0.04314505      -0.06043829
O        4.82886353       3.43317600       4.71031508       22      -0.05305075       0.04314505      -0.06043829
O        2.05379718       4.28045765      10.77470162       23      -0.05305075      -0.04314505       0.06043829
O        4.00263041       2.55903458       9.70915702       24      -0.07472024      -0.02918923      -0.01299719
O        1.22756405       5.15459907       5.77585968       25      -0.07472024       0.02918923       0.01299719
O        1.54750231      -0.01217663      13.51836803       26       0.07472024      -0.02918923       0.01299719
O        4.32256867       2.58338785       1.96664867       27       0.07472024       0.02918923      -0.01299719
O        1.54750231       2.58338785       5.77585968       28       0.07472024       0.02918923       0.01299719
O        4.32256867      -0.01217663       9.70915702       29       0.07472024      -0.02918923      -0.01299719
O        4.00263041       5.15459907       1.96664867       30      -0.07472024       0.02918923      -0.01299719
O        1.22756405       2.55903458      13.51836803       31      -0.07472024      -0.02918923       0.01299719
O        3.52068335       3.39659101      14.63410967       32       0.05361247      -0.04482644       0.00139934
O        0.74561699       4.31704264       0.85090703       33       0.05361247       0.04482644      -0.00139934
O        2.02944937       0.82537979       8.59341539       34      -0.05361247      -0.04482644      -0.00139934
O        4.80451572       1.74583143       6.89160132       35      -0.05361247       0.04482644       0.00139934
O        2.02944937       1.74583143       0.85090703       36      -0.05361247       0.04482644      -0.00139934
O        4.80451572       0.82537979      14.63410967       37      -0.05361247      -0.04482644       0.00139934
O        3.52068335       4.31704264       6.89160132       38       0.05361247       0.04482644       0.00139934
O        0.74561699       3.39659101       8.59341539       39       0.05361247      -0.04482644      -0.00139934
40