40
Lattice="5.788062117967534 1.529764667307874e-45 0.0 2.664597451941448e-43 5.926227302870479 0.0 0.0 0.0 16.67420232997998" Properties=species:S:1:pos:R:3:spacegroup_kinds:I:1:forces:R:3 spacegroup="P 1" unit_cell=conventional occupancy="_JSON {\"0\": {\"In\": 1}, \"1\": {\"In\": 1}, \"2\": {\"In\": 1}, \"3\": {\"In\": 1}, \"4\": {\"In\": 1}, \"5\": {\"In\": 1}, \"6\": {\"In\": 1}, \"7\": {\"In\": 1}, \"8\": {\"In\": 1}, \"9\": {\"In\": 1}, \"10\": {\"In\": 1}, \"11\": {\"In\": 1}, \"12\": {\"In\": 1}, \"13\": {\"In\": 1}, \"14\": {\"In\": 1}, \"15\": {\"In\": 1}, \"16\": {\"O\": 1}, \"17\": {\"O\": 1}, \"18\": {\"O\": 1}, \"19\": {\"O\": 1}, \"20\": {\"O\": 1}, \"21\": {\"O\": 1}, \"22\": {\"O\": 1}, \"23\": {\"O\": 1}, \"24\": {\"O\": 1}, \"25\": {\"O\": 1}, \"26\": {\"O\": 1}, \"27\": {\"O\": 1}, \"28\": {\"O\": 1}, \"29\": {\"O\": 1}, \"30\": {\"O\": 1}, \"31\": {\"O\": 1}, \"32\": {\"O\": 1}, \"33\": {\"O\": 1}, \"34\": {\"O\": 1}, \"35\": {\"O\": 1}, \"36\": {\"O\": 1}, \"37\": {\"O\": 1}, \"38\": {\"O\": 1}, \"39\": {\"O\": 1}}" n_minim_iter=13 energy=-45149.613584290535 stress="0.034868672855888856 -5.158471662591095e-13 1.248172939413541e-13 -5.158471662591095e-13 0.03486541791337281 9.8282483462575e-13 1.248172939413541e-13 9.8282483462575e-13 0.03490205500915839" free_energy=-45149.613584290535 pbc="T T T"
In       2.89162909       4.70338747       9.50829973        0      -0.00655333      -0.00283929       0.00124401
In      -0.00240197       4.18595348       7.16590260        1      -0.00655333       0.00283929      -0.00124401
In       2.89643303       1.74027382      15.50300377        2       0.00655333      -0.00283929      -0.00124401
In       5.79046409       1.22283983       1.17119856        3       0.00655333       0.00283929       0.00124401
In       2.89643303       1.22283983       7.16590260        4       0.00655333       0.00283929      -0.00124401
In       5.79046409       1.74027382       9.50829973        5       0.00655333      -0.00283929       0.00124401
In       2.89162909       4.18595348       1.17119856        6      -0.00655333       0.00283929       0.00124401
In      -0.00240197       4.70338747      15.50300377        7      -0.00655333      -0.00283929      -0.00124401
In       2.87284503       4.38366038      13.63743384        8       0.00251730       0.00098084       0.00245636
In       5.76687609       4.50568057       3.03676849        9       0.00251730      -0.00098084      -0.00245636
In       2.91521709       1.42054673      11.37386966       10      -0.00251730       0.00098084      -0.00245636
In       0.02118603       1.54256692       5.30033267       11      -0.00251730      -0.00098084       0.00245636
In       2.91521709       1.54256692       3.03676849       12      -0.00251730      -0.00098084      -0.00245636
In       0.02118603       1.42054673      13.63743384       13      -0.00251730       0.00098084       0.00245636
In       2.87284503       4.50568057       5.30033267       14       0.00251730      -0.00098084       0.00245636
In       5.76687609       4.38366038      11.37386966       15       0.00251730       0.00098084      -0.00245636
O        4.97102349       5.15793953      13.30997039       16       0.00553066       0.00040172       0.00525670
O        2.07699243       3.73140142       3.36423194       17       0.00553066      -0.00040172      -0.00525670
O        0.81703863       2.19482588      11.70133310       18      -0.00553066       0.00040172      -0.00525670
O        3.71106969       0.76828777       4.97286923       19      -0.00553066      -0.00040172       0.00525670
O        0.81703863       0.76828777       3.36423194       20      -0.00553066      -0.00040172      -0.00525670
O        3.71106969       2.19482588      13.30997039       21      -0.00553066       0.00040172       0.00525670
O        4.97102349       3.73140142       4.97286923       22       0.00553066      -0.00040172       0.00525670
O        2.07699243       5.15793953      11.70133310       23       0.00553066       0.00040172      -0.00525670
O        4.07220294       3.09544154      10.40946950       24       0.00176048      -0.00697236      -0.00176720
O        1.17817188       5.79389941       6.26473283       25       0.00176048       0.00697236       0.00176720
O        1.71585918       0.13232789      14.60183400       26      -0.00176048      -0.00697236       0.00176720
O        4.60989024       2.83078576       2.07236833       27      -0.00176048       0.00697236      -0.00176720
O        1.71585918       2.83078576       6.26473283       28      -0.00176048       0.00697236       0.00176720
O        4.60989024       0.13232789      10.40946950       29      -0.00176048      -0.00697236      -0.00176720
O        4.07220294       5.79389941       2.07236833       30       0.00176048       0.00697236      -0.00176720
O        1.17817188       3.09544154      14.60183400       31       0.00176048      -0.00697236       0.00176720
O        3.74990819       3.90459502      15.81479972       32       0.00726411       0.00069482      -0.00381927
O        0.85587713       4.98474593       0.85940261       33       0.00726411      -0.00069482       0.00381927
O        2.03815393       0.94148137       9.19650378       34      -0.00726411       0.00069482       0.00381927
O        4.93218499       2.02163228       7.47769855       35      -0.00726411      -0.00069482      -0.00381927
O        2.03815393       2.02163228       0.85940261       36      -0.00726411      -0.00069482       0.00381927
O        4.93218499       0.94148137      15.81479972       37      -0.00726411       0.00069482      -0.00381927
O        3.74990819       4.98474593       7.47769855       38       0.00726411      -0.00069482      -0.00381927
O        0.85587713       3.90459502       9.19650378       39       0.00726411       0.00069482       0.00381927
