40
Lattice="5.927963189054409 6.596381545337709e-44 0.0 -6.959008733063036e-44 6.253844978246156 0.0 0.0 0.0 16.83032515798259" Properties=species:S:1:pos:R:3:spacegroup_kinds:I:1:forces:R:3 spacegroup="P 1" unit_cell=conventional occupancy="_JSON {\"0\": {\"In\": 1}, \"1\": {\"In\": 1}, \"2\": {\"In\": 1}, \"3\": {\"In\": 1}, \"4\": {\"In\": 1}, \"5\": {\"In\": 1}, \"6\": {\"In\": 1}, \"7\": {\"In\": 1}, \"8\": {\"In\": 1}, \"9\": {\"In\": 1}, \"10\": {\"In\": 1}, \"11\": {\"In\": 1}, \"12\": {\"In\": 1}, \"13\": {\"In\": 1}, \"14\": {\"In\": 1}, \"15\": {\"In\": 1}, \"16\": {\"O\": 1}, \"17\": {\"O\": 1}, \"18\": {\"O\": 1}, \"19\": {\"O\": 1}, \"20\": {\"O\": 1}, \"21\": {\"O\": 1}, \"22\": {\"O\": 1}, \"23\": {\"O\": 1}, \"24\": {\"O\": 1}, \"25\": {\"O\": 1}, \"26\": {\"O\": 1}, \"27\": {\"O\": 1}, \"28\": {\"O\": 1}, \"29\": {\"O\": 1}, \"30\": {\"O\": 1}, \"31\": {\"O\": 1}, \"32\": {\"O\": 1}, \"33\": {\"O\": 1}, \"34\": {\"O\": 1}, \"35\": {\"O\": 1}, \"36\": {\"O\": 1}, \"37\": {\"O\": 1}, \"38\": {\"O\": 1}, \"39\": {\"O\": 1}}" n_minim_iter=1 energy=-45147.16392412414 stress="0.04899801523051157 1.2026640997697453e-13 1.911038316828363e-16 1.2026640997697453e-13 0.04630374783352105 8.716719074220157e-14 1.911038316828363e-16 8.716719074220157e-14 0.04398903996273344" free_energy=-45147.16392412414 pbc="T T T"
In       2.67847994       5.20774100       9.69751817        0       0.06251813       0.03241485       0.04010194
In      -0.28550166       4.17302647       7.13280699        1       0.06251813      -0.03241485      -0.04010194
In       3.24948325       2.08081851      15.54796957        2      -0.06251813       0.03241485      -0.04010194
In       6.21346484       1.04610398       1.28235559        3      -0.06251813      -0.03241485       0.04010194
In       3.24948325       1.04610398       7.13280699        4      -0.06251813      -0.03241485      -0.04010194
In       6.21346484       2.08081851       9.69751817        5      -0.06251813       0.03241485       0.04010194
In       2.67847994       4.17302647       1.28235559        6       0.06251813      -0.03241485       0.04010194
In      -0.28550166       5.20774100      15.54796957        7       0.06251813       0.03241485      -0.04010194
In       2.70277832       5.02540877      13.72111763        8       0.03094471       0.02848739      -0.03738170
In       5.66675992       4.35535870       3.10920753        9       0.03094471      -0.02848739       0.03738170
In       3.22518487       1.89848628      11.52437011       10      -0.03094471       0.02848739       0.03738170
In       0.26120327       1.22843621       5.30595505       11      -0.03094471      -0.02848739      -0.03738170
In       3.22518487       1.22843621       3.10920753       12      -0.03094471      -0.02848739       0.03738170
In       0.26120327       1.89848628      13.72111763       13      -0.03094471       0.02848739      -0.03738170
In       2.70277832       4.35535870       5.30595505       14       0.03094471      -0.02848739      -0.03738170
In       5.66675992       5.02540877      11.52437011       15       0.03094471       0.02848739       0.03738170
O        4.82233195       5.68119041      13.48216897       16      -0.02127102      -0.07053967      -0.01255857
O        1.85835036       3.69957706       3.34815619       17      -0.02127102       0.07053967       0.01255857
O        1.10563124       2.55426792      11.76331877       18       0.02127102      -0.07053967       0.01255857
O        4.06961283       0.57265457       5.06700639       19       0.02127102       0.07053967      -0.01255857
O        1.10563124       0.57265457       3.34815619       20       0.02127102       0.07053967       0.01255857
O        4.06961283       2.55426792      13.48216897       21       0.02127102      -0.07053967      -0.01255857
O        4.82233195       3.69957706       5.06700639       22      -0.02127102       0.07053967      -0.01255857
O        1.85835036       5.68119041      11.76331877       23      -0.02127102      -0.07053967       0.01255857
O        4.09913915       3.73917561      10.61295649       24      -0.01223689       0.08827587       0.06089866
O        1.13515756       5.64159186       6.21736866       25      -0.01223689      -0.08827587      -0.06089866
O        1.82882403       0.61225312      14.63253124       26       0.01223689       0.08827587      -0.06089866
O        4.79280563       2.51466937       2.19779391       27       0.01223689      -0.08827587       0.06089866
O        1.82882403       2.51466937       6.21736866       28       0.01223689      -0.08827587      -0.06089866
O        4.79280563       0.61225312      10.61295649       29       0.01223689       0.08827587       0.06089866
O        4.09913915       5.64159186       2.19779391       30      -0.01223689      -0.08827587       0.06089866
O        1.13515756       3.73917561      14.63253124       31      -0.01223689       0.08827587      -0.06089866
O        3.73647998       4.18584356      16.11603695       32      -0.03972761      -0.09039458       0.03919264
O        0.77249839       5.19492391       0.71428821       33      -0.03972761       0.09039458      -0.03919264
O        2.19148321       1.05892107       9.12945079       34       0.03972761      -0.09039458      -0.03919264
O        5.15546480       2.06800142       7.70087437       35       0.03972761       0.09039458       0.03919264
O        2.19148321       2.06800142       0.71428821       36       0.03972761       0.09039458      -0.03919264
O        5.15546480       1.05892107      16.11603695       37       0.03972761      -0.09039458       0.03919264
O        3.73647998       5.19492391       7.70087437       38      -0.03972761       0.09039458       0.03919264
O        0.77249839       4.18584356       9.12945079       39      -0.03972761      -0.09039458      -0.03919264
40
Lattice="5.90752636936969 6.724444795940363e-44 0.0 -4.881035607056987e-44 6.254909238622324 0.0 0.0 0.0 16.885675351909967" Properties=species:S:1:pos:R:3:spacegroup_kinds:I:1:forces:R:3 spacegroup="P 1" unit_cell=conventional occupancy="_JSON {\"0\": {\"In\": 1}, \"1\": {\"In\": 1}, \"2\": {\"In\": 1}, \"3\": {\"In\": 1}, \"4\": {\"In\": 1}, \"5\": {\"In\": 1}, \"6\": {\"In\": 1}, \"7\": {\"In\": 1}, \"8\": {\"In\": 1}, \"9\": {\"In\": 1}, \"10\": {\"In\": 1}, \"11\": {\"In\": 1}, \"12\": {\"In\": 1}, \"13\": {\"In\": 1}, \"14\": {\"In\": 1}, \"15\": {\"In\": 1}, \"16\": {\"O\": 1}, \"17\": {\"O\": 1}, \"18\": {\"O\": 1}, \"19\": {\"O\": 1}, \"20\": {\"O\": 1}, \"21\": {\"O\": 1}, \"22\": {\"O\": 1}, \"23\": {\"O\": 1}, \"24\": {\"O\": 1}, \"25\": {\"O\": 1}, \"26\": {\"O\": 1}, \"27\": {\"O\": 1}, \"28\": {\"O\": 1}, \"29\": {\"O\": 1}, \"30\": {\"O\": 1}, \"31\": {\"O\": 1}, \"32\": {\"O\": 1}, \"33\": {\"O\": 1}, \"34\": {\"O\": 1}, \"35\": {\"O\": 1}, \"36\": {\"O\": 1}, \"37\": {\"O\": 1}, \"38\": {\"O\": 1}, \"39\": {\"O\": 1}}" n_minim_iter=2 energy=-45147.16954943701 stress="0.04521226024610821 7.477889375018819e-14 -4.825603067478761e-14 7.477889375018819e-14 0.046337265684635066 5.053427660562329e-13 -4.825603067478761e-14 5.053427660562329e-13 0.04545383738446375" free_energy=-45147.16954943701 pbc="T T T"
In       2.66938010       5.20869712       9.72949730        0       0.08234463       0.05239361       0.03145387
In      -0.28438308       4.17366674       7.15617805        1       0.08234463      -0.05239361      -0.03145387
In       3.23814627       2.08124250      15.59901573        2      -0.08234463       0.05239361      -0.03145387
In       6.19190945       1.04621212       1.28665962        3      -0.08234463      -0.05239361       0.03145387
In       3.23814627       1.04621212       7.15617805        4      -0.08234463      -0.05239361      -0.03145387
In       6.19190945       2.08124250       9.72949730        5      -0.08234463       0.05239361       0.03145387
In       2.66938010       4.17366674       1.28665962        6       0.08234463      -0.05239361       0.03145387
In      -0.28438308       5.20869712      15.59901573        7       0.08234463       0.05239361      -0.03145387
In       2.69352689       5.02632539      13.76616167        8       0.00317079       0.02718151      -0.05965207
In       5.64729008       4.35603846       3.11951368        9       0.00317079      -0.02718151       0.05965207
In       3.21399948       1.89887077      11.56235136       10      -0.00317079       0.02718151       0.05965207
In       0.26023629       1.22858384       5.32332399       11      -0.00317079      -0.02718151      -0.05965207
In       3.21399948       1.22858384       3.11951368       12      -0.00317079      -0.02718151       0.05965207
In       0.26023629       1.89887077      13.76616167       13      -0.00317079       0.02718151      -0.05965207
In       2.69352689       4.35603846       5.32332399       14       0.00317079      -0.02718151      -0.05965207
In       5.64729008       5.02632539      11.56235136       15       0.00317079       0.02718151       0.05965207
O        4.80566113       5.68200514      13.52648086       16       0.00500944      -0.07070227      -0.03208083
O        1.85189795       3.70035872       3.35919449       17       0.00500944       0.07070227       0.03208083
O        1.10186524       2.55455052      11.80203216       18      -0.00500944      -0.07070227       0.03208083
O        4.05562842       0.57290410       5.08364319       19      -0.00500944       0.07070227      -0.03208083
O        1.10186524       0.57290410       3.35919449       20      -0.00500944       0.07070227       0.03208083
O        4.05562842       2.55455052      13.52648086       21      -0.00500944      -0.07070227      -0.03208083
O        4.80566113       3.70035872       5.08364319       22       0.00500944       0.07070227      -0.03208083
O        1.85189795       5.68200514      11.80203216       23       0.00500944      -0.07070227       0.03208083
O        4.08498097       3.74000225      10.64799122       24      -0.01540251       0.07500158       0.08750971
O        1.13121779       5.64236161       6.23768413       25      -0.01540251      -0.07500158      -0.08750971
O        1.82254540       0.61254763      14.68052181       26       0.01540251       0.07500158      -0.08750971
O        4.77630858       2.51490699       2.20515354       27       0.01540251      -0.07500158       0.08750971
O        1.82254540       2.51490699       6.23768413       28       0.01540251      -0.07500158      -0.08750971
O        4.77630858       0.61254763      10.64799122       29       0.01540251       0.07500158       0.08750971
O        4.08498097       5.64236161       2.20515354       30      -0.01540251      -0.07500158       0.08750971
O        1.13121779       3.74000225      14.68052181       31      -0.01540251       0.07500158      -0.08750971
O        3.72351302       4.18636101      16.16912281       32      -0.04883831      -0.09584362       0.05565912
O        0.76974984       5.19600285       0.71655254       33      -0.04883831       0.09584362      -0.05565912
O        2.18401335       1.05890639       9.15939022       34       0.04883831      -0.09584362      -0.05565912
O        5.13777653       2.06854823       7.72628513       35       0.04883831       0.09584362       0.05565912
O        2.18401335       2.06854823       0.71655254       36       0.04883831       0.09584362      -0.05565912
O        5.13777653       1.05890639      16.16912281       37       0.04883831      -0.09584362       0.05565912
O        3.72351302       5.19600285       7.72628513       38      -0.04883831       0.09584362       0.05565912
O        0.76974984       4.18636101       9.15939022       39      -0.04883831      -0.09584362      -0.05565912
40
Lattice="5.910449646450562 6.902820374873602e-44 0.0 -4.679224380911254e-44 6.2408034684978535 0.0 0.0 0.0 16.915470741434508" Properties=species:S:1:pos:R:3:spacegroup_kinds:I:1:forces:R:3 spacegroup="P 1" unit_cell=conventional occupancy="_JSON {\"0\": {\"In\": 1}, \"1\": {\"In\": 1}, \"2\": {\"In\": 1}, \"3\": {\"In\": 1}, \"4\": {\"In\": 1}, \"5\": {\"In\": 1}, \"6\": {\"In\": 1}, \"7\": {\"In\": 1}, \"8\": {\"In\": 1}, \"9\": {\"In\": 1}, \"10\": {\"In\": 1}, \"11\": {\"In\": 1}, \"12\": {\"In\": 1}, \"13\": {\"In\": 1}, \"14\": {\"In\": 1}, \"15\": {\"In\": 1}, \"16\": {\"O\": 1}, \"17\": {\"O\": 1}, \"18\": {\"O\": 1}, \"19\": {\"O\": 1}, \"20\": {\"O\": 1}, \"21\": {\"O\": 1}, \"22\": {\"O\": 1}, \"23\": {\"O\": 1}, \"24\": {\"O\": 1}, \"25\": {\"O\": 1}, \"26\": {\"O\": 1}, \"27\": {\"O\": 1}, \"28\": {\"O\": 1}, \"29\": {\"O\": 1}, \"30\": {\"O\": 1}, \"31\": {\"O\": 1}, \"32\": {\"O\": 1}, \"33\": {\"O\": 1}, \"34\": {\"O\": 1}, \"35\": {\"O\": 1}, \"36\": {\"O\": 1}, \"37\": {\"O\": 1}, \"38\": {\"O\": 1}, \"39\": {\"O\": 1}}" n_minim_iter=3 energy=-45147.17140862502 stress="0.04572712264117649 -1.9111593136677933e-13 -2.5520724546501423e-14 -1.9111593136677933e-13 0.044411342225968695 1.7464025437701313e-13 -2.5520724546501423e-14 1.7464025437701313e-13 0.046113991185858155" free_energy=-45147.17140862502 pbc="T T T"
In       2.67119556       5.19726176       9.74686792        0       0.07866037       0.03888157       0.03051136
In      -0.28402927       4.16394345       7.16860282        1       0.07866037      -0.03888157      -0.03051136
In       3.23925409       2.07686002      15.62633819        2      -0.07866037       0.03888157      -0.03051136
In       6.19447891       1.04354171       1.28913255        3      -0.07866037      -0.03888157       0.03051136
In       3.23925409       1.04354171       7.16860282        4      -0.07866037      -0.03888157      -0.03051136
In       6.19447891       2.07686002       9.74686792        5      -0.07866037       0.03888157       0.03051136
In       2.67119556       4.16394345       1.28913255        6       0.07866037      -0.03888157       0.03051136
In      -0.28402927       5.19726176      15.62633819        7       0.07866037       0.03888157      -0.03051136
In       2.69489794       5.01515947      13.79009454        8       0.00505534       0.02831874      -0.07791520
In       5.65012276       4.34604574       3.12537620        9       0.00505534      -0.02831874       0.07791520
In       3.21555171       1.89475773      11.58311157       10      -0.00505534       0.02831874       0.07791520
In       0.26032689       1.22564400       5.33235917       11      -0.00505534      -0.02831874      -0.07791520
In       3.21555171       1.22564400       3.12537620       12      -0.00505534      -0.02831874       0.07791520
In       0.26032689       1.89475773      13.79009454       13      -0.00505534       0.02831874      -0.07791520
In       2.69489794       4.34604574       5.33235917       14       0.00505534      -0.02831874      -0.07791520
In       5.65012276       5.01515947      11.58311157       15       0.00505534       0.02831874       0.07791520
O        4.80805243       5.66875363      13.55016139       16       0.00913308      -0.06823699      -0.03721633
O        1.85282761       3.69245157       3.36530935       17       0.00913308       0.06823699       0.03721633
O        1.10239721       2.54835190      11.82304472       18      -0.00913308      -0.06823699       0.03721633
O        4.05762204       0.57204983       5.09242602       19      -0.00913308       0.06823699      -0.03721633
O        1.10239721       0.57204983       3.36530935       20      -0.00913308       0.06823699       0.03721633
O        4.05762204       2.54835190      13.55016139       21      -0.00913308      -0.06823699      -0.03721633
O        4.80805243       3.69245157       5.09242602       22       0.00913308       0.06823699      -0.03721633
O        1.85282761       5.66875363      11.82304472       23       0.00913308      -0.06823699       0.03721633
O        4.08690951       3.73204134      10.66730930       24      -0.01016925       0.07100326       0.09071771
O        1.13168469       5.62916386       6.24816144       25      -0.01016925      -0.07100326      -0.09071771
O        1.82354013       0.61163960      14.70589681       26       0.01016925       0.07100326      -0.09071771
O        4.77876496       2.50876213       2.20957393       27       0.01016925      -0.07100326       0.09071771
O        1.82354013       2.50876213       6.24816144       28       0.01016925      -0.07100326      -0.09071771
O        4.77876496       0.61163960      10.66730930       29       0.01016925       0.07100326       0.09071771
O        4.08690951       5.62916386       2.20957393       30      -0.01016925      -0.07100326       0.09071771
O        1.13168469       3.73204134      14.70589681       31      -0.01016925       0.07100326      -0.09071771
O        3.72506048       4.17633027      16.19799079       32      -0.04431925      -0.07286432       0.05498621
O        0.76983565       5.18487494       0.71747995       33      -0.04431925       0.07286432      -0.05498621
O        2.18538917       1.05592853       9.17521532       34       0.04431925      -0.07286432      -0.05498621
O        5.14061399       2.06447320       7.74025542       35       0.04431925       0.07286432       0.05498621
O        2.18538917       2.06447320       0.71747995       36       0.04431925       0.07286432      -0.05498621
O        5.14061399       1.05592853      16.19799079       37       0.04431925      -0.07286432       0.05498621
O        3.72506048       5.18487494       7.74025542       38      -0.04431925       0.07286432       0.05498621
O        0.76983565       4.17633027       9.17521532       39      -0.04431925      -0.07286432      -0.05498621
40
Lattice="5.894610571412386 -1.7066400426052961e-44 0.0 5.90543077126632e-44 6.249224708769332 0.0 0.0 0.0 16.938067390268085" Properties=species:S:1:pos:R:3:spacegroup_kinds:I:1:forces:R:3 spacegroup="P 1" unit_cell=conventional occupancy="_JSON {\"0\": {\"In\": 1}, \"1\": {\"In\": 1}, \"2\": {\"In\": 1}, \"3\": {\"In\": 1}, \"4\": {\"In\": 1}, \"5\": {\"In\": 1}, \"6\": {\"In\": 1}, \"7\": {\"In\": 1}, \"8\": {\"In\": 1}, \"9\": {\"In\": 1}, \"10\": {\"In\": 1}, \"11\": {\"In\": 1}, \"12\": {\"In\": 1}, \"13\": {\"In\": 1}, \"14\": {\"In\": 1}, \"15\": {\"In\": 1}, \"16\": {\"O\": 1}, \"17\": {\"O\": 1}, \"18\": {\"O\": 1}, \"19\": {\"O\": 1}, \"20\": {\"O\": 1}, \"21\": {\"O\": 1}, \"22\": {\"O\": 1}, \"23\": {\"O\": 1}, \"24\": {\"O\": 1}, \"25\": {\"O\": 1}, \"26\": {\"O\": 1}, \"27\": {\"O\": 1}, \"28\": {\"O\": 1}, \"29\": {\"O\": 1}, \"30\": {\"O\": 1}, \"31\": {\"O\": 1}, \"32\": {\"O\": 1}, \"33\": {\"O\": 1}, \"34\": {\"O\": 1}, \"35\": {\"O\": 1}, \"36\": {\"O\": 1}, \"37\": {\"O\": 1}, \"38\": {\"O\": 1}, \"39\": {\"O\": 1}}" n_minim_iter=4 energy=-45147.19350737764 stress="0.04171112167238734 -5.858168742763269e-14 1.4435563515114187e-13 -5.858168742763269e-14 0.04188642319079677 1.8296181200858946e-13 1.4435563515114187e-13 1.8296181200858946e-13 0.04208705806140584" free_energy=-45147.19350737764 pbc="T T T"
In       2.67341005       5.20972318       9.76368749        0      -0.04101270      -0.02251590      -0.00529367
In      -0.27389523       4.16411388       7.17437990        1      -0.04101270       0.02251590       0.00529367
In       3.22120052       2.08511083      15.64341359        2       0.04101270      -0.02251590       0.00529367
In       6.16850580       1.03950152       1.29465380        3       0.04101270       0.02251590      -0.00529367
In       3.22120052       1.03950152       7.17437990        4       0.04101270       0.02251590       0.00529367
In       6.16850580       2.08511083       9.76368749        5       0.04101270      -0.02251590      -0.00529367
In       2.67341005       4.16411388       1.29465380        6      -0.04101270       0.02251590      -0.00529367
In      -0.27389523       5.20972318      15.64341359        7      -0.04101270      -0.02251590       0.00529367
In       2.68835243       5.02521123      13.80070795        8       0.00767306      -0.00491278      -0.01145606
In       5.63565772       4.34862583       3.13735944        9       0.00767306       0.00491278       0.01145606
In       3.20625814       1.90059888      11.60639314       10      -0.00767306      -0.00491278       0.01145606
In       0.25895285       1.22401348       5.33167425       11      -0.00767306       0.00491278      -0.01145606
In       3.20625814       1.22401348       3.13735944       12      -0.00767306       0.00491278       0.01145606
In       0.25895285       1.90059888      13.80070795       13      -0.00767306      -0.00491278      -0.01145606
In       2.68835243       4.34862583       5.33167425       14       0.00767306       0.00491278      -0.01145606
In       5.63565772       5.02521123      11.60639314       15       0.00767306      -0.00491278       0.01145606
O        4.79573380       5.66813127      13.56433662       16       0.02800683      -0.01531335       0.01232810
O        1.84842852       3.70570579       3.37373077       17       0.02800683       0.01531335      -0.01232810
O        1.09887677       2.54351892      11.84276447       18      -0.02800683      -0.01531335      -0.01232810
O        4.04618206       0.58109344       5.09530292       19      -0.02800683       0.01531335       0.01232810
O        1.09887677       0.58109344       3.37373077       20      -0.02800683       0.01531335      -0.01232810
O        4.04618206       2.54351892      13.56433662       21      -0.02800683      -0.01531335       0.01232810
O        4.79573380       3.70570579       5.09530292       22       0.02800683       0.01531335       0.01232810
O        1.84842852       5.66813127      11.84276447       23       0.02800683      -0.01531335      -0.01232810
O        4.07440234       3.74589657      10.69198969       24       0.00874905       0.02740759       0.11459092
O        1.12709705       5.62794049       6.24607770       25       0.00874905      -0.02740759      -0.11459092
O        1.82020824       0.62128422      14.71511139       26      -0.00874905       0.02740759      -0.11459092
O        4.76751352       2.50332814       2.22295600       27      -0.00874905      -0.02740759       0.11459092
O        1.82020824       2.50332814       6.24607770       28      -0.00874905      -0.02740759      -0.11459092
O        4.76751352       0.62128422      10.69198969       29      -0.00874905       0.02740759       0.11459092
O        4.07440234       5.62794049       2.22295600       30       0.00874905      -0.02740759       0.11459092
O        1.12709705       3.74589657      14.71511139       31       0.00874905       0.02740759      -0.11459092
O        3.70960203       4.17167462      16.22614333       32       0.07187357       0.05149721      -0.01180261
O        0.76229674       5.20216244       0.71192406       33       0.07187357      -0.05149721       0.01180261
O        2.18500854       1.04706226       9.18095776       34      -0.07187357       0.05149721       0.01180261
O        5.13231383       2.07755009       7.75710963       35      -0.07187357      -0.05149721      -0.01180261
O        2.18500854       2.07755009       0.71192406       36      -0.07187357      -0.05149721       0.01180261
O        5.13231383       1.04706226      16.22614333       37      -0.07187357       0.05149721      -0.01180261
O        3.70960203       5.20216244       7.75710963       38       0.07187357      -0.05149721      -0.01180261
O        0.76229674       4.17167462       9.18095776       39       0.07187357       0.05149721       0.01180261
40
Lattice="5.896650872378979 4.430818661893793e-45 0.0 -3.9277186497348075e-44 6.24969423019523 0.0 0.0 0.0 16.930934579634428" Properties=species:S:1:pos:R:3:spacegroup_kinds:I:1:forces:R:3 spacegroup="P 1" unit_cell=conventional occupancy="_JSON {\"0\": {\"In\": 1}, \"1\": {\"In\": 1}, \"2\": {\"In\": 1}, \"3\": {\"In\": 1}, \"4\": {\"In\": 1}, \"5\": {\"In\": 1}, \"6\": {\"In\": 1}, \"7\": {\"In\": 1}, \"8\": {\"In\": 1}, \"9\": {\"In\": 1}, \"10\": {\"In\": 1}, \"11\": {\"In\": 1}, \"12\": {\"In\": 1}, \"13\": {\"In\": 1}, \"14\": {\"In\": 1}, \"15\": {\"In\": 1}, \"16\": {\"O\": 1}, \"17\": {\"O\": 1}, \"18\": {\"O\": 1}, \"19\": {\"O\": 1}, \"20\": {\"O\": 1}, \"21\": {\"O\": 1}, \"22\": {\"O\": 1}, \"23\": {\"O\": 1}, \"24\": {\"O\": 1}, \"25\": {\"O\": 1}, \"26\": {\"O\": 1}, \"27\": {\"O\": 1}, \"28\": {\"O\": 1}, \"29\": {\"O\": 1}, \"30\": {\"O\": 1}, \"31\": {\"O\": 1}, \"32\": {\"O\": 1}, \"33\": {\"O\": 1}, \"34\": {\"O\": 1}, \"35\": {\"O\": 1}, \"36\": {\"O\": 1}, \"37\": {\"O\": 1}, \"38\": {\"O\": 1}, \"39\": {\"O\": 1}}" n_minim_iter=5 energy=-45147.20419861336 stress="0.041714265115072625 -8.729494916971517e-14 2.0164247846038047e-13 -8.729494916971517e-14 0.041157253398624555 1.6273203013908017e-13 2.0164247846038047e-13 1.6273203013908017e-13 0.040258074778715465" free_energy=-45147.20419861336 pbc="T T T"
In       2.67440194       5.21022522       9.76046628        0      -0.02327636      -0.01341435       0.00474932
In      -0.27392349       4.16431613       7.17046830        1      -0.02327636       0.01341435      -0.00474932
In       3.22224893       2.08537810      15.63593559        2       0.02327636      -0.01341435      -0.00474932
In       6.17057437       1.03946901       1.29499899        3       0.02327636       0.01341435       0.00474932
In       3.22224893       1.03946901       7.17046830        4       0.02327636       0.01341435      -0.00474932
In       6.17057437       2.08537810       9.76046628        5       0.02327636      -0.01341435       0.00474932
In       2.67440194       4.16431613       1.29499899        6      -0.02327636       0.01341435       0.00474932
In      -0.27392349       5.21022522      15.63593559        7      -0.02327636      -0.01341435      -0.00474932
In       2.69016266       5.02630731      13.79168295        8       0.03238430      -0.00680766      -0.00552159
In       5.63848809       4.34823404       3.13925163        9       0.03238430       0.00680766       0.00552159
In       3.20648822       1.90146019      11.60471892       10      -0.03238430      -0.00680766       0.00552159
In       0.25816278       1.22338692       5.32621566       11      -0.03238430       0.00680766      -0.00552159
In       3.20648822       1.22338692       3.13925163       12      -0.03238430       0.00680766       0.00552159
In       0.25816278       1.90146019      13.79168295       13      -0.03238430      -0.00680766      -0.00552159
In       2.69016266       4.34823404       5.32621566       14       0.03238430       0.00680766      -0.00552159
In       5.63848809       5.02630731      11.60471892       15       0.03238430      -0.00680766       0.00552159
O        4.79943352       5.66476919      13.55834503       16       0.01387594       0.00220676       0.03868816
O        1.85110809       3.70977216       3.37258955       17       0.01387594      -0.00220676      -0.03868816
O        1.09721735       2.53992207      11.83805684       18      -0.01387594       0.00220676      -0.03868816
O        4.04554278       0.58492504       5.09287774       19      -0.01387594      -0.00220676       0.03868816
O        1.09721735       0.58492504       3.37258955       20      -0.01387594      -0.00220676      -0.03868816
O        4.04554278       2.53992207      13.55834503       21      -0.01387594       0.00220676       0.03868816
O        4.79943352       3.70977216       5.09287774       22       0.01387594      -0.00220676       0.03868816
O        1.85110809       5.66476919      11.83805684       23       0.01387594       0.00220676      -0.03868816
O        4.07592585       3.75107177      10.69904763       24       0.01686087       0.00672411       0.05697666
O        1.12760042       5.62346958       6.23188695       25       0.01686087      -0.00672411      -0.05697666
O        1.82072502       0.62622465      14.69735424       26      -0.01686087       0.00672411      -0.05697666
O        4.76905045       2.49862246       2.23358034       27      -0.01686087      -0.00672411       0.05697666
O        1.82072502       2.49862246       6.23188695       28      -0.01686087      -0.00672411      -0.05697666
O        4.76905045       0.62622465      10.69904763       29      -0.01686087       0.00672411       0.05697666
O        4.07592585       5.62346958       2.23358034       30       0.01686087      -0.00672411       0.05697666
O        1.12760042       3.75107177      14.69735424       31       0.01686087       0.00672411      -0.05697666
O        3.71422145       4.17228474      16.22049789       32       0.03385127       0.03090806      -0.00793033
O        0.76589602       5.20225661       0.71043669       33       0.03385127      -0.03090806       0.00793033
O        2.18242942       1.04743762       9.17590398       34      -0.03385127       0.03090806       0.00793033
O        5.13075486       2.07740949       7.75503060       35      -0.03385127      -0.03090806      -0.00793033
O        2.18242942       2.07740949       0.71043669       36      -0.03385127      -0.03090806       0.00793033
O        5.13075486       1.04743762      16.22049789       37      -0.03385127       0.03090806      -0.00793033
O        3.71422145       5.20225661       7.75503060       38       0.03385127      -0.03090806      -0.00793033
O        0.76589602       4.17228474       9.17590398       39       0.03385127       0.03090806       0.00793033
40