40
Lattice="5.443458217417538 -4.523655099292649e-42 0.0 4.513401770886571e-42 5.431120060873138 0.0 0.0 0.0 15.388901720753793" Properties=species:S:1:pos:R:3:spacegroup_kinds:I:1:forces:R:3 spacegroup="P 1" unit_cell=conventional occupancy="_JSON {\"0\": {\"In\": 1}, \"1\": {\"In\": 1}, \"2\": {\"In\": 1}, \"3\": {\"In\": 1}, \"4\": {\"In\": 1}, \"5\": {\"In\": 1}, \"6\": {\"In\": 1}, \"7\": {\"In\": 1}, \"8\": {\"In\": 1}, \"9\": {\"In\": 1}, \"10\": {\"In\": 1}, \"11\": {\"In\": 1}, \"12\": {\"In\": 1}, \"13\": {\"In\": 1}, \"14\": {\"In\": 1}, \"15\": {\"In\": 1}, \"16\": {\"O\": 1}, \"17\": {\"O\": 1}, \"18\": {\"O\": 1}, \"19\": {\"O\": 1}, \"20\": {\"O\": 1}, \"21\": {\"O\": 1}, \"22\": {\"O\": 1}, \"23\": {\"O\": 1}, \"24\": {\"O\": 1}, \"25\": {\"O\": 1}, \"26\": {\"O\": 1}, \"27\": {\"O\": 1}, \"28\": {\"O\": 1}, \"29\": {\"O\": 1}, \"30\": {\"O\": 1}, \"31\": {\"O\": 1}, \"32\": {\"O\": 1}, \"33\": {\"O\": 1}, \"34\": {\"O\": 1}, \"35\": {\"O\": 1}, \"36\": {\"O\": 1}, \"37\": {\"O\": 1}, \"38\": {\"O\": 1}, \"39\": {\"O\": 1}}" n_minim_iter=1 energy=-45147.565590141996 stress="-0.11242602498524835 8.967024930908228e-14 -2.9522342187824474e-13 8.967024930908228e-14 -0.10398067342252328 2.8776912180301334e-16 -2.9522342187824474e-13 2.8776912180301334e-16 -0.10840804282246527" free_energy=-45147.565590141996 pbc="T T T"
In       2.68288191       4.38326128       8.81819804        0      -0.00481577      -0.13462362      -0.00025663
In      -0.03884720       3.76341881       6.57070368        1      -0.00481577       0.13462362       0.00025663
In       2.76057630       1.66770125      14.26515454        2       0.00481577      -0.13462362       0.00025663
In       5.48230541       1.04785878       1.12374718        3       0.00481577       0.13462362      -0.00025663
In       2.76057630       1.04785878       6.57070368        4       0.00481577       0.13462362       0.00025663
In       5.48230541       1.66770125       8.81819804        5       0.00481577      -0.13462362      -0.00025663
In       2.68288191       3.76341881       1.12374718        6      -0.00481577       0.13462362      -0.00025663
In      -0.03884720       4.38326128      14.26515454        7      -0.00481577      -0.13462362       0.00025663
In       2.70092713       4.17707768      12.56558038        8       0.06522503       0.01073255      -0.04251556
In       5.42265624       3.96960241       2.82332135        9       0.06522503      -0.01073255       0.04251556
In       2.74253109       1.46151765      10.51777221       10      -0.06522503       0.01073255       0.04251556
In       0.02080198       1.25404238       4.87112952       11      -0.06522503      -0.01073255      -0.04251556
In       2.74253109       1.25404238       2.82332135       12      -0.06522503      -0.01073255       0.04251556
In       0.02080198       1.46151765      12.56558038       13      -0.06522503       0.01073255      -0.04251556
In       2.70092713       3.96960241       4.87112952       14       0.06522503      -0.01073255      -0.04251556
In       5.42265624       4.17707768      10.51777221       15       0.06522503       0.01073255       0.04251556
O        4.63812029       4.93748732      12.29317965       16       0.00412499       0.00699234      -0.01613622
O        1.91639118       3.20919277       3.09572207       17       0.00412499      -0.00699234       0.01613622
O        0.80533793       2.22192729      10.79017293       18      -0.00412499       0.00699234       0.01613622
O        3.52706704       0.49363274       4.59872879       19      -0.00412499      -0.00699234      -0.01613622
O        0.80533793       0.49363274       3.09572207       20      -0.00412499      -0.00699234       0.01613622
O        3.52706704       2.22192729      12.29317965       21      -0.00412499       0.00699234      -0.01613622
O        4.63812029       3.20919277       4.59872879       22       0.00412499      -0.00699234      -0.01613622
O        1.91639118       4.93748732      10.79017293       23       0.00412499       0.00699234       0.01613622
O        3.90237283       2.94595020       9.65363470       24       0.03230161      -0.07720522       0.07257656
O        1.18064372       5.20072990       5.73526702       25       0.03230161       0.07720522      -0.07257656
O        1.54108539       0.23039017      13.42971788       26      -0.03230161      -0.07720522      -0.07257656
O        4.26281450       2.48516987       1.95918384       27      -0.03230161       0.07720522       0.07257656
O        1.54108539       2.48516987       5.73526702       28      -0.03230161       0.07720522      -0.07257656
O        4.26281450       0.23039017       9.65363470       29      -0.03230161      -0.07720522       0.07257656
O        3.90237283       5.20072990       1.95918384       30       0.03230161       0.07720522       0.07257656
O        1.18064372       2.94595020      13.42971788       31       0.03230161      -0.07720522      -0.07257656
O        3.45559805       3.71216026      14.58847590       32      -0.00036495      -0.00660840      -0.13751710
O        0.73386894       4.43451983       0.80042582       33      -0.00036495       0.00660840       0.13751710
O        1.98786016       0.99660023       8.49487668       34       0.00036495      -0.00660840       0.13751710
O        4.70958927       1.71895980       6.89402504       35       0.00036495       0.00660840      -0.13751710
O        1.98786016       1.71895980       0.80042582       36       0.00036495       0.00660840       0.13751710
O        4.70958927       0.99660023      14.58847590       37       0.00036495      -0.00660840      -0.13751710
O        3.45559805       4.43451983       6.89402504       38      -0.00036495       0.00660840      -0.13751710
O        0.73386894       3.71216026       8.49487668       39      -0.00036495      -0.00660840       0.13751710
40
Lattice="5.462219379701315 -4.5664747755895366e-42 3.516766835578019e-89 4.4714860429949304e-42 5.411854058505234 -6.551914279814659e-47 -3.232098866127257e-90 -1.2017371288871305e-46 15.390641001751067" Properties=species:S:1:pos:R:3:spacegroup_kinds:I:1:forces:R:3 spacegroup="P 1" unit_cell=conventional occupancy="_JSON {\"0\": {\"In\": 1}, \"1\": {\"In\": 1}, \"2\": {\"In\": 1}, \"3\": {\"In\": 1}, \"4\": {\"In\": 1}, \"5\": {\"In\": 1}, \"6\": {\"In\": 1}, \"7\": {\"In\": 1}, \"8\": {\"In\": 1}, \"9\": {\"In\": 1}, \"10\": {\"In\": 1}, \"11\": {\"In\": 1}, \"12\": {\"In\": 1}, \"13\": {\"In\": 1}, \"14\": {\"In\": 1}, \"15\": {\"In\": 1}, \"16\": {\"O\": 1}, \"17\": {\"O\": 1}, \"18\": {\"O\": 1}, \"19\": {\"O\": 1}, \"20\": {\"O\": 1}, \"21\": {\"O\": 1}, \"22\": {\"O\": 1}, \"23\": {\"O\": 1}, \"24\": {\"O\": 1}, \"25\": {\"O\": 1}, \"26\": {\"O\": 1}, \"27\": {\"O\": 1}, \"28\": {\"O\": 1}, \"29\": {\"O\": 1}, \"30\": {\"O\": 1}, \"31\": {\"O\": 1}, \"32\": {\"O\": 1}, \"33\": {\"O\": 1}, \"34\": {\"O\": 1}, \"35\": {\"O\": 1}, \"36\": {\"O\": 1}, \"37\": {\"O\": 1}, \"38\": {\"O\": 1}, \"39\": {\"O\": 1}}" n_minim_iter=2 energy=-45147.5727515855 stress="-0.10642400960278321 -1.827192997718508e-13 5.548447337235627e-14 -1.827192997718508e-13 -0.10704587467851644 5.445312579970739e-13 5.548447337235627e-14 5.445312579970739e-13 -0.10760975218073483" free_energy=-45147.5727515855 pbc="T T T"
In       2.69211981       4.36746819       8.81919422        0      -0.03276085      -0.20046080      -0.00186838
In      -0.03898988       3.75031290       6.57144678        1      -0.03276085       0.20046080       0.00186838
In       2.77009957       1.66154116      14.26676728        2       0.03276085      -0.20046080       0.00186838
In       5.50120926       1.04438587       1.12387372        3       0.03276085       0.20046080      -0.00186838
In       2.77009957       1.04438587       6.57144678        4       0.03276085       0.20046080       0.00186838
In       5.50120926       1.66154116       8.81919422        5       0.03276085      -0.20046080      -0.00186838
In       2.69211981       3.75031290       1.12387372        6      -0.03276085       0.20046080      -0.00186838
In      -0.03898988       4.36746819      14.26676728        7      -0.03276085      -0.20046080       0.00186838
In       2.71035516       4.16227966      12.56692316        8       0.08414488       0.05864335      -0.05622465
In       5.44146485       3.95550143       2.82371784        9       0.08414488      -0.05864335       0.05622465
In       2.75186422       1.45635263      10.51903834       10      -0.08414488       0.05864335       0.05622465
In       0.02075453       1.24957440       4.87160266       11      -0.08414488      -0.05864335      -0.05622465
In       2.75186422       1.24957440       2.82371784       12      -0.08414488      -0.05864335       0.05622465
In       0.02075453       1.45635263      12.56692316       13      -0.08414488       0.05864335      -0.05622465
In       2.71035516       3.95550143       4.87160266       14       0.08414488      -0.05864335      -0.05622465
In       5.44146485       4.16227966      10.51903834       15       0.08414488       0.05864335       0.05622465
O        4.65411335       4.91998508      12.29453967       16      -0.03273853      -0.02421957      -0.00541770
O        1.92300366       3.19779601       3.09610133       17      -0.03273853       0.02421957       0.00541770
O        0.80810603       2.21405805      10.79142183       18       0.03273853      -0.02421957       0.00541770
O        3.53921572       0.49186898       4.59921917       19       0.03273853       0.02421957      -0.00541770
O        0.80810603       0.49186898       3.09610133       20       0.03273853       0.02421957       0.00541770
O        3.53921572       2.21405805      12.29453967       21       0.03273853      -0.02421957      -0.00541770
O        4.65411335       3.19779601       4.59921917       22      -0.03273853       0.02421957      -0.00541770
O        1.92300366       4.91998508      10.79142183       23      -0.03273853      -0.02421957       0.00541770
O        3.91588156       2.93535988       9.65485790       24       0.05312199      -0.07673164       0.07265740
O        1.18477187       5.18242121       5.73578310       25       0.05312199       0.07673164      -0.07265740
O        1.54633782       0.22943285      13.43110360       26      -0.05312199      -0.07673164      -0.07265740
O        4.27744751       2.47649418       1.95953740       27      -0.05312199       0.07673164       0.07265740
O        1.54633782       2.47649418       5.73578310       28      -0.05312199       0.07673164      -0.07265740
O        4.27744751       0.22943285       9.65485790       29      -0.05312199      -0.07673164       0.07265740
O        3.91588156       5.18242121       1.95953740       30       0.05312199       0.07673164       0.07265740
O        1.18477187       2.93535988      13.43110360       31       0.05312199      -0.07673164      -0.07265740
O        3.46750729       3.69898000      14.58987436       32       0.02900764       0.03120838      -0.13835516
O        0.73639760       4.41880109       0.80076664       33       0.02900764      -0.03120838       0.13835516
O        1.99471209       0.99305297       8.49608714       34      -0.02900764       0.03120838       0.13835516
O        4.72582178       1.71287406       6.89455386       35      -0.02900764      -0.03120838      -0.13835516
O        1.99471209       1.71287406       0.80076664       36      -0.02900764      -0.03120838       0.13835516
O        4.72582178       0.99305297      14.58987436       37      -0.02900764       0.03120838      -0.13835516
O        3.46750729       4.41880109       6.89455386       38       0.02900764      -0.03120838      -0.13835516
O        0.73639760       3.69898000       8.49608714       39       0.02900764       0.03120838       0.13835516
40
Lattice="5.4590287660063295 -4.5657311477259585e-42 -6.450685850518314e-89 4.461351148441363e-42 5.4019901252588935 5.317171973021544e-47 -3.2848934531265965e-90 2.1737027476715005e-46 15.427755748394153" Properties=species:S:1:pos:R:3:spacegroup_kinds:I:1:forces:R:3 spacegroup="P 1" unit_cell=conventional occupancy="_JSON {\"0\": {\"In\": 1}, \"1\": {\"In\": 1}, \"2\": {\"In\": 1}, \"3\": {\"In\": 1}, \"4\": {\"In\": 1}, \"5\": {\"In\": 1}, \"6\": {\"In\": 1}, \"7\": {\"In\": 1}, \"8\": {\"In\": 1}, \"9\": {\"In\": 1}, \"10\": {\"In\": 1}, \"11\": {\"In\": 1}, \"12\": {\"In\": 1}, \"13\": {\"In\": 1}, \"14\": {\"In\": 1}, \"15\": {\"In\": 1}, \"16\": {\"O\": 1}, \"17\": {\"O\": 1}, \"18\": {\"O\": 1}, \"19\": {\"O\": 1}, \"20\": {\"O\": 1}, \"21\": {\"O\": 1}, \"22\": {\"O\": 1}, \"23\": {\"O\": 1}, \"24\": {\"O\": 1}, \"25\": {\"O\": 1}, \"26\": {\"O\": 1}, \"27\": {\"O\": 1}, \"28\": {\"O\": 1}, \"29\": {\"O\": 1}, \"30\": {\"O\": 1}, \"31\": {\"O\": 1}, \"32\": {\"O\": 1}, \"33\": {\"O\": 1}, \"34\": {\"O\": 1}, \"35\": {\"O\": 1}, \"36\": {\"O\": 1}, \"37\": {\"O\": 1}, \"38\": {\"O\": 1}, \"39\": {\"O\": 1}}" n_minim_iter=3 energy=-45147.576632640434 stress="-0.10799531026969507 3.691565985598481e-13 -1.960764967492268e-13 3.691565985598481e-13 -0.10833578663612235 4.491281377647458e-13 -1.960764967492268e-13 4.491281377647458e-13 -0.10309920894441109" free_energy=-45147.576632640434 pbc="T T T"
In       2.69025082       4.35761911       8.84044500        0       0.00890444      -0.17880015      -0.05032486
In      -0.03926356       3.74536608       6.58731075        1       0.00890444       0.17880015       0.05032486
In       2.76877795       1.65662405      14.30118862        2      -0.00890444      -0.17880015       0.05032486
In       5.49829233       1.04437101       1.12656713        3      -0.00890444       0.17880015      -0.05032486
In       2.76877795       1.04437101       6.58731075        4      -0.00890444       0.17880015       0.05032486
In       5.49829233       1.65662405       8.84044500        5      -0.00890444      -0.17880015      -0.05032486
In       2.69025082       3.74536608       1.12656713        6       0.00890444       0.17880015      -0.05032486
In      -0.03926356       4.35761911      14.30118862        7       0.00890444      -0.17880015       0.05032486
In       2.70958507       4.15521802      12.59668806        8       0.04300988       0.06229076      -0.06363948
In       5.43909945       3.94776717       2.83106769        9       0.04300988      -0.06229076       0.06363948
In       2.74944370       1.45422296      10.54494556       10      -0.04300988       0.06229076       0.06363948
In       0.01992932       1.24677210       4.88281019       11      -0.04300988      -0.06229076      -0.06363948
In       2.74944370       1.24677210       2.83106769       12      -0.04300988      -0.06229076       0.06363948
In       0.01992932       1.45422296      12.59668806       13      -0.04300988       0.06229076      -0.06363948
In       2.70958507       3.94776717       4.88281019       14       0.04300988      -0.06229076      -0.06363948
In       5.43909945       4.15521802      10.54494556       15       0.04300988       0.06229076       0.06363948
O        4.65110724       4.91081200      12.32412429       16      -0.00813804      -0.03881775      -0.01924241
O        1.92159286       3.19217319       3.10363146       17      -0.00813804       0.03881775       0.01924241
O        0.80792152       2.20981694      10.81750933       18       0.00813804      -0.03881775       0.01924241
O        3.53743591       0.49117812       4.61024642       19       0.00813804       0.03881775      -0.01924241
O        0.80792152       0.49117812       3.10363146       20       0.00813804       0.03881775       0.01924241
O        3.53743591       2.20981694      12.32412429       21       0.00813804      -0.03881775      -0.01924241
O        4.65110724       3.19217319       4.61024642       22      -0.00813804       0.03881775      -0.01924241
O        1.92159286       4.91081200      10.81750933       23      -0.00813804      -0.03881775       0.01924241
O        3.91409884       2.92926191       9.67885631       24       0.06133245      -0.07430728       0.06947742
O        1.18458446       5.17372328       5.74889944       25       0.06133245       0.07430728      -0.06947742
O        1.54492992       0.22826684      13.46277731       26      -0.06133245      -0.07430728      -0.06947742
O        4.27444431       2.47272822       1.96497844       27      -0.06133245       0.07430728       0.06947742
O        1.54492992       2.47272822       5.74889944       28      -0.06133245       0.07430728      -0.06947742
O        4.27444431       0.22826684       9.67885631       29      -0.06133245      -0.07430728       0.06947742
O        3.91409884       5.17372328       1.96497844       30       0.06133245       0.07430728       0.06947742
O        1.18458446       2.92926191      13.46277731       31       0.06133245      -0.07430728      -0.06947742
O        3.46573980       3.69250537      14.62369609       32      -0.00859459       0.02963919      -0.08368984
O        0.73622542       4.41047982       0.80405965       33      -0.00859459      -0.02963919       0.08368984
O        1.99328896       0.99151030       8.51793753       34       0.00859459       0.02963919       0.08368984
O        4.72280335       1.70948476       6.90981822       35       0.00859459      -0.02963919      -0.08368984
O        1.99328896       1.70948476       0.80405965       36       0.00859459      -0.02963919       0.08368984
O        4.72280335       0.99151030      14.62369609       37       0.00859459       0.02963919      -0.08368984
O        3.46573980       4.41047982       6.90981822       38      -0.00859459      -0.02963919      -0.08368984
O        0.73622542       3.69250537       8.51793753       39      -0.00859459       0.02963919       0.08368984
40
Lattice="5.489079281947944 -4.592696298968152e-42 -1.415616213264182e-85 4.451643667700192e-42 5.392950171805318 1.458426710023865e-43 5.4258099090587526e-86 5.454097961165114e-43 15.369014206866519" Properties=species:S:1:pos:R:3:spacegroup_kinds:I:1:forces:R:3 spacegroup="P 1" unit_cell=conventional occupancy="_JSON {\"0\": {\"In\": 1}, \"1\": {\"In\": 1}, \"2\": {\"In\": 1}, \"3\": {\"In\": 1}, \"4\": {\"In\": 1}, \"5\": {\"In\": 1}, \"6\": {\"In\": 1}, \"7\": {\"In\": 1}, \"8\": {\"In\": 1}, \"9\": {\"In\": 1}, \"10\": {\"In\": 1}, \"11\": {\"In\": 1}, \"12\": {\"In\": 1}, \"13\": {\"In\": 1}, \"14\": {\"In\": 1}, \"15\": {\"In\": 1}, \"16\": {\"O\": 1}, \"17\": {\"O\": 1}, \"18\": {\"O\": 1}, \"19\": {\"O\": 1}, \"20\": {\"O\": 1}, \"21\": {\"O\": 1}, \"22\": {\"O\": 1}, \"23\": {\"O\": 1}, \"24\": {\"O\": 1}, \"25\": {\"O\": 1}, \"26\": {\"O\": 1}, \"27\": {\"O\": 1}, \"28\": {\"O\": 1}, \"29\": {\"O\": 1}, \"30\": {\"O\": 1}, \"31\": {\"O\": 1}, \"32\": {\"O\": 1}, \"33\": {\"O\": 1}, \"34\": {\"O\": 1}, \"35\": {\"O\": 1}, \"36\": {\"O\": 1}, \"37\": {\"O\": 1}, \"38\": {\"O\": 1}, \"39\": {\"O\": 1}}" n_minim_iter=4 energy=-45147.604179026304 stress="-0.10181189588086799 -7.036427830859613e-14 -5.453471935746792e-14 -7.036427830859613e-14 -0.10155714424800237 -9.327285089416134e-13 -5.453471935746792e-14 -9.327285089416134e-13 -0.10253197594701201" free_energy=-45147.604179026304 pbc="T T T"
In       2.70294538       4.33361568       8.80593924        0       0.11858575      -0.03423666      -0.11540575
In      -0.04159426       3.75580958       6.56307497        1       0.11858575       0.03423666       0.11540575
In       2.78613390       1.63714059      14.24758207        2      -0.11858575      -0.03423666       0.11540575
In       5.53067354       1.05933449       1.12143214        3      -0.11858575       0.03423666      -0.11540575
In       2.78613390       1.05933449       6.56307497        4      -0.11858575       0.03423666       0.11540575
In       5.53067354       1.63714059       8.80593924        5      -0.11858575      -0.03423666      -0.11540575
In       2.70294538       3.75580958       1.12143214        6       0.11858575       0.03423666      -0.11540575
In      -0.04159426       4.33361568      14.24758207        7       0.11858575      -0.03423666       0.11540575
In       2.73127441       4.15308508      12.54376464        8      -0.02964952      -0.06693229       0.02637313
In       5.47581405       3.93634018       2.82524957        9      -0.02964952       0.06693229      -0.02637313
In       2.75780488       1.45660999      10.50975667       10       0.02964952      -0.06693229      -0.02637313
In       0.01326523       1.23986509       4.85925754       11       0.02964952       0.06693229       0.02637313
In       2.75780488       1.23986509       2.82524957       12       0.02964952       0.06693229      -0.02637313
In       0.01326523       1.45660999      12.54376464       13       0.02964952      -0.06693229       0.02637313
In       2.73127441       3.93634018       4.85925754       14      -0.02964952       0.06693229       0.02637313
In       5.47581405       4.15308508      10.50975667       15      -0.02964952      -0.06693229      -0.02637313
O        4.67441745       4.90050181      12.27644613       16       0.03885605       0.00158226       0.04503349
O        1.92987781       3.18892345       3.09256808       17       0.03885605      -0.00158226      -0.04503349
O        0.81466183       2.20402672      10.77707518       18      -0.03885605       0.00158226      -0.04503349
O        3.55920148       0.49244836       4.59193903       19      -0.03885605      -0.00158226       0.04503349
O        0.81466183       0.49244836       3.09256808       20      -0.03885605      -0.00158226      -0.04503349
O        3.55920148       2.20402672      12.27644613       21      -0.03885605       0.00158226       0.04503349
O        4.67441745       3.18892345       4.59193903       22       0.03885605      -0.00158226       0.04503349
O        1.92987781       4.90050181      10.77707518       23       0.03885605       0.00158226      -0.04503349
O        3.94034910       2.91769334       9.64836200       24       0.13881526      -0.02810870       0.03006640
O        1.19580946       5.17173191       5.72065221       25       0.13881526       0.02810870      -0.03006640
O        1.54873018       0.22121826      13.40515931       26      -0.13881526      -0.02810870      -0.03006640
O        4.29326982       2.47525683       1.96385489       27      -0.13881526       0.02810870       0.03006640
O        1.54873018       2.47525683       5.72065221       28      -0.13881526       0.02810870      -0.03006640
O        4.29326982       0.22121826       9.64836200       29      -0.13881526      -0.02810870       0.03006640
O        3.94034910       5.17173191       1.96385489       30       0.13881526       0.02810870       0.03006640
O        1.19580946       2.91769334      13.40515931       31       0.13881526      -0.02810870      -0.03006640
O        3.48664556       3.68875220      14.55660865       32      -0.10482852      -0.04124250       0.05185144
O        0.74210592       4.40067305       0.81240555       33      -0.10482852       0.04124250      -0.05185144
O        2.00243372       0.99227712       8.49691266       34       0.10482852      -0.04124250      -0.05185144
O        4.74697336       1.70419797       6.87210155       35       0.10482852       0.04124250       0.05185144
O        2.00243372       1.70419797       0.81240555       36       0.10482852       0.04124250      -0.05185144
O        4.74697336       0.99227712      14.55660865       37       0.10482852      -0.04124250       0.05185144
O        3.48664556       4.40067305       6.87210155       38      -0.10482852       0.04124250       0.05185144
O        0.74210592       3.68875220       8.49691266       39      -0.10482852      -0.04124250      -0.05185144
40
Lattice="5.491295022397892 -4.600621357002171e-42 -8.950005038150346e-85 4.432223220758159e-42 5.377023252159188 1.2262797647727838e-42 -8.123563860606209e-85 2.0194336636801755e-42 15.408317958074756" Properties=species:S:1:pos:R:3:spacegroup_kinds:I:1:forces:R:3 spacegroup="P 1" unit_cell=conventional occupancy="_JSON {\"0\": {\"In\": 1}, \"1\": {\"In\": 1}, \"2\": {\"In\": 1}, \"3\": {\"In\": 1}, \"4\": {\"In\": 1}, \"5\": {\"In\": 1}, \"6\": {\"In\": 1}, \"7\": {\"In\": 1}, \"8\": {\"In\": 1}, \"9\": {\"In\": 1}, \"10\": {\"In\": 1}, \"11\": {\"In\": 1}, \"12\": {\"In\": 1}, \"13\": {\"In\": 1}, \"14\": {\"In\": 1}, \"15\": {\"In\": 1}, \"16\": {\"O\": 1}, \"17\": {\"O\": 1}, \"18\": {\"O\": 1}, \"19\": {\"O\": 1}, \"20\": {\"O\": 1}, \"21\": {\"O\": 1}, \"22\": {\"O\": 1}, \"23\": {\"O\": 1}, \"24\": {\"O\": 1}, \"25\": {\"O\": 1}, \"26\": {\"O\": 1}, \"27\": {\"O\": 1}, \"28\": {\"O\": 1}, \"29\": {\"O\": 1}, \"30\": {\"O\": 1}, \"31\": {\"O\": 1}, \"32\": {\"O\": 1}, \"33\": {\"O\": 1}, \"34\": {\"O\": 1}, \"35\": {\"O\": 1}, \"36\": {\"O\": 1}, \"37\": {\"O\": 1}, \"38\": {\"O\": 1}, \"39\": {\"O\": 1}}" n_minim_iter=5 energy=-45147.62284643857 stress="-0.10002238413367712 4.109897001179987e-13 1.260805775581737e-13 4.109897001179987e-13 -0.10055120947975248 -4.0982928958888805e-13 1.260805775581737e-13 -4.0982928958888805e-13 -0.09834121009645311" free_energy=-45147.62284643857 pbc="T T T"
In       2.71047938       4.31042889       8.82074473        0      -0.01289290      -0.05670442       0.01709418
In      -0.03516814       3.75510599       6.58757323        1      -0.01289290       0.05670442      -0.01709418
In       2.78081565       1.62191727      14.29173221        2       0.01289290      -0.05670442      -0.01709418
In       5.52646316       1.06659436       1.11658575        3       0.01289290       0.05670442       0.01709418
In       2.78081565       1.06659436       6.58757323        4       0.01289290       0.05670442      -0.01709418
In       5.52646316       1.62191727       8.82074473        5       0.01289290      -0.05670442       0.01709418
In       2.71047938       3.75510599       1.11658575        6      -0.01289290       0.05670442       0.01709418
In      -0.03516814       4.31042889      14.29173221        7      -0.01289290      -0.05670442      -0.01709418
In       2.73372896       4.13936997      12.57486501        8      -0.02843851       0.00439911      -0.01694727
In       5.47937648       3.92616491       2.83345294        9      -0.02843851      -0.00439911       0.01694727
In       2.75756606       1.45085834      10.53761192       10       0.02843851       0.00439911       0.01694727
In       0.01191855       1.23765328       4.87070604       11       0.02843851      -0.00439911      -0.01694727
In       2.75756606       1.23765328       2.83345294       12       0.02843851      -0.00439911       0.01694727
In       0.01191855       1.45085834      12.57486501       13       0.02843851       0.00439911      -0.01694727
In       2.73372896       3.92616491       4.87070604       14      -0.02843851      -0.00439911      -0.01694727
In       5.47937648       4.13936997      10.53761192       15      -0.02843851       0.00439911       0.01694727
O        4.67762754       4.88492450      12.31011644       16       0.01055131      -0.08534669       0.05701307
O        1.93198003       3.18061038       3.09820151       17       0.01055131       0.08534669      -0.05701307
O        0.81366748       2.19641287      10.80236049       18      -0.01055131      -0.08534669      -0.05701307
O        3.55931499       0.49209875       4.60595746       19      -0.01055131       0.08534669       0.05701307
O        0.81366748       0.49209875       3.09820151       20      -0.01055131       0.08534669      -0.05701307
O        3.55931499       2.19641287      12.31011644       21      -0.01055131      -0.08534669       0.05701307
O        4.67762754       3.18061038       4.60595746       22       0.01055131       0.08534669       0.05701307
O        1.93198003       4.88492450      10.80236049       23       0.01055131      -0.08534669      -0.05701307
O        3.95293259       2.90408626       9.67803512       24      -0.01266688      -0.02751304       0.00059104
O        1.20728508       5.16144862       5.73028284       25      -0.01266688       0.02751304      -0.00059104
O        1.53836243       0.21557464      13.43444182       26       0.01266688      -0.02751304      -0.00059104
O        4.28400994       2.47293699       1.97387614       27       0.01266688       0.02751304       0.00059104
O        1.53836243       2.47293699       5.73028284       28       0.01266688       0.02751304      -0.00059104
O        4.28400994       0.21557464       9.67803512       29       0.01266688      -0.02751304       0.00059104
O        3.95293259       5.16144862       1.97387614       30      -0.01266688       0.02751304       0.00059104
O        1.20728508       2.90408626      13.43444182       31      -0.01266688      -0.02751304      -0.00059104
O        3.48234093       3.67668461      14.59157214       32       0.03863545      -0.00543093       0.02665546
O        0.73669342       4.38885027       0.81674582       33       0.03863545       0.00543093      -0.02665546
O        2.00895409       0.98817298       8.52090479       34      -0.03863545      -0.00543093      -0.02665546
O        4.75460160       1.70033864       6.88741316       35      -0.03863545       0.00543093       0.02665546
O        2.00895409       1.70033864       0.81674582       36      -0.03863545       0.00543093      -0.02665546
O        4.75460160       0.98817298      14.59157214       37      -0.03863545      -0.00543093       0.02665546
O        3.48234093       4.38885027       6.88741316       38       0.03863545       0.00543093       0.02665546
O        0.73669342       3.67668461       8.52090479       39       0.03863545      -0.00543093      -0.02665546
40