40
Lattice="5.962530995050373 9.331354765332467e-43 0.0 -4.676020379145318e-44 6.247690628679363 0.0 0.0 0.0 16.40029164305272" Properties=species:S:1:pos:R:3:spacegroup_kinds:I:1:forces:R:3 spacegroup="P 1" unit_cell=conventional occupancy="_JSON {\"0\": {\"In\": 1}, \"1\": {\"In\": 1}, \"2\": {\"In\": 1}, \"3\": {\"In\": 1}, \"4\": {\"In\": 1}, \"5\": {\"In\": 1}, \"6\": {\"In\": 1}, \"7\": {\"In\": 1}, \"8\": {\"In\": 1}, \"9\": {\"In\": 1}, \"10\": {\"In\": 1}, \"11\": {\"In\": 1}, \"12\": {\"In\": 1}, \"13\": {\"In\": 1}, \"14\": {\"In\": 1}, \"15\": {\"In\": 1}, \"16\": {\"O\": 1}, \"17\": {\"O\": 1}, \"18\": {\"O\": 1}, \"19\": {\"O\": 1}, \"20\": {\"O\": 1}, \"21\": {\"O\": 1}, \"22\": {\"O\": 1}, \"23\": {\"O\": 1}, \"24\": {\"O\": 1}, \"25\": {\"O\": 1}, \"26\": {\"O\": 1}, \"27\": {\"O\": 1}, \"28\": {\"O\": 1}, \"29\": {\"O\": 1}, \"30\": {\"O\": 1}, \"31\": {\"O\": 1}, \"32\": {\"O\": 1}, \"33\": {\"O\": 1}, \"34\": {\"O\": 1}, \"35\": {\"O\": 1}, \"36\": {\"O\": 1}, \"37\": {\"O\": 1}, \"38\": {\"O\": 1}, \"39\": {\"O\": 1}}" n_minim_iter=29 energy=-45148.14336844907 stress="0.036122679343220575 1.5754048435421762e-13 -2.5692561720325434e-13 1.5754048435421762e-13 0.03614933226039153 -2.8805623178602135e-13 -2.5692561720325434e-13 -2.8805623178602135e-13 0.036313388522169456" free_energy=-45148.14336844907 pbc="T T T"
In       2.66024421       5.21868607       9.44411593        0       0.00487564       0.00025464      -0.00284939
In      -0.32102129       4.15284988       6.95617571        1       0.00487564      -0.00025464       0.00284939
In       3.30228679       2.09484075      15.15632153        2      -0.00487564       0.00025464       0.00284939
In       6.28355229       1.02900456       1.24397011        3      -0.00487564      -0.00025464      -0.00284939
In       3.30228679       1.02900456       6.95617571        4      -0.00487564      -0.00025464       0.00284939
In       6.28355229       2.09484075       9.44411593        5      -0.00487564       0.00025464      -0.00284939
In       2.66024421       4.15284988       1.24397011        6       0.00487564      -0.00025464      -0.00284939
In      -0.32102129       5.21868607      15.15632153        7       0.00487564       0.00025464       0.00284939
In       2.69649009       5.04028761      13.40408597        8      -0.00375072       0.00430839      -0.00273002
In       5.67775559       4.33124834       2.99620568        9      -0.00375072      -0.00430839       0.00273002
In       3.26604090       1.91644229      11.19635150       10       0.00375072       0.00430839       0.00273002
In       0.28477540       1.20740302       5.20394015       11       0.00375072      -0.00430839      -0.00273002
In       3.26604090       1.20740302       2.99620568       12       0.00375072      -0.00430839       0.00273002
In       0.28477540       1.91644229      13.40408597       13       0.00375072       0.00430839      -0.00273002
In       2.69649009       4.33124834       5.20394015       14      -0.00375072      -0.00430839      -0.00273002
In       5.67775559       5.04028761      11.19635150       15      -0.00375072       0.00430839       0.00273002
O        4.81265587       5.72811218      13.13016619       16       0.00377804       0.00276601      -0.00723296
O        1.83139037       3.64342377       3.27012546       17       0.00377804      -0.00276601       0.00723296
O        1.14987513       2.60426686      11.47027128       18      -0.00377804       0.00276601       0.00723296
O        4.13114063       0.51957845       4.93002037       19      -0.00377804      -0.00276601      -0.00723296
O        1.14987513       0.51957845       3.27012546       20      -0.00377804      -0.00276601       0.00723296
O        4.13114063       2.60426686      13.13016619       21      -0.00377804       0.00276601      -0.00723296
O        4.81265587       3.64342377       4.93002037       22       0.00377804      -0.00276601      -0.00723296
O        1.83139037       5.72811218      11.47027128       23       0.00377804       0.00276601       0.00723296
O        4.11378224       3.74820126      10.27198140       24      -0.00135173       0.00125430       0.00017331
O        1.13251674       5.62333469       6.12831024       25      -0.00135173      -0.00125430      -0.00017331
O        1.84874876       0.62435594      14.32845606       26       0.00135173       0.00125430      -0.00017331
O        4.83001426       2.49948937       2.07183558       27       0.00135173      -0.00125430       0.00017331
O        1.84874876       2.49948937       6.12831024       28       0.00135173      -0.00125430      -0.00017331
O        4.83001426       0.62435594      10.27198140       29       0.00135173       0.00125430       0.00017331
O        4.11378224       5.62333469       2.07183558       30      -0.00135173      -0.00125430       0.00017331
O        1.13251674       3.74820126      14.32845606       31      -0.00135173       0.00125430      -0.00017331
O        3.74920486       4.20520807      15.69656172       32      -0.00606473      -0.00316086       0.00475287
O        0.76793936       5.16632787       0.70372993       33      -0.00606473       0.00316086      -0.00475287
O        2.21332614       1.08136276       8.90387575       34       0.00606473      -0.00316086      -0.00475287
O        5.19459164       2.04248256       7.49641590       35       0.00606473       0.00316086       0.00475287
O        2.21332614       2.04248256       0.70372993       36       0.00606473       0.00316086      -0.00475287
O        5.19459164       1.08136276      15.69656172       37       0.00606473      -0.00316086       0.00475287
O        3.74920486       5.16632787       7.49641590       38      -0.00606473       0.00316086       0.00475287
O        0.76793936       4.20520807       8.90387575       39      -0.00606473      -0.00316086      -0.00475287
