40
Lattice="5.838668757719014 5.479327684612721e-43 0.0 -5.60366264682811e-43 5.971157760232554 0.0 0.0 0.0 16.778147568347777" Properties=species:S:1:pos:R:3:spacegroup_kinds:I:1:forces:R:3 spacegroup="P 1" unit_cell=conventional occupancy="_JSON {\"0\": {\"In\": 1}, \"1\": {\"In\": 1}, \"2\": {\"In\": 1}, \"3\": {\"In\": 1}, \"4\": {\"In\": 1}, \"5\": {\"In\": 1}, \"6\": {\"In\": 1}, \"7\": {\"In\": 1}, \"8\": {\"In\": 1}, \"9\": {\"In\": 1}, \"10\": {\"In\": 1}, \"11\": {\"In\": 1}, \"12\": {\"In\": 1}, \"13\": {\"In\": 1}, \"14\": {\"In\": 1}, \"15\": {\"In\": 1}, \"16\": {\"O\": 1}, \"17\": {\"O\": 1}, \"18\": {\"O\": 1}, \"19\": {\"O\": 1}, \"20\": {\"O\": 1}, \"21\": {\"O\": 1}, \"22\": {\"O\": 1}, \"23\": {\"O\": 1}, \"24\": {\"O\": 1}, \"25\": {\"O\": 1}, \"26\": {\"O\": 1}, \"27\": {\"O\": 1}, \"28\": {\"O\": 1}, \"29\": {\"O\": 1}, \"30\": {\"O\": 1}, \"31\": {\"O\": 1}, \"32\": {\"O\": 1}, \"33\": {\"O\": 1}, \"34\": {\"O\": 1}, \"35\": {\"O\": 1}, \"36\": {\"O\": 1}, \"37\": {\"O\": 1}, \"38\": {\"O\": 1}, \"39\": {\"O\": 1}}" n_minim_iter=1 energy=-45148.39417549645 stress="0.060474701846429536 1.8378205195554847e-13 -7.390140569076897e-14 1.8378205195554847e-13 0.05979053144637316 -4.481066227952021e-13 -7.390140569076897e-14 -4.481066227952021e-13 0.058908981527083196" free_energy=-45148.39417549645 pbc="T T T"
In       2.90932720       4.74250378       9.57081094        0      -0.00005055       0.05990064       0.02351259
In      -0.01000718       4.21423286       7.20733663        1      -0.00005055      -0.05990064      -0.02351259
In       2.92934156       1.75692490      15.59641042        2       0.00005055       0.05990064      -0.02351259
In       5.84867594       1.22865398       1.18173715        3       0.00005055      -0.05990064       0.02351259
In       2.92934156       1.22865398       7.20733663        4       0.00005055      -0.05990064      -0.02351259
In       5.84867594       1.75692490       9.57081094        5       0.00005055       0.05990064       0.02351259
In       2.90932720       4.21423286       1.18173715        6      -0.00005055      -0.05990064       0.02351259
In      -0.01000718       4.74250378      15.59641042        7      -0.00005055       0.05990064      -0.02351259
In       2.89306031       4.40900282      13.72213152        8      -0.01498120      -0.01605425       0.03023594
In       5.81239469       4.54773383       3.05601604        9      -0.01498120       0.01605425      -0.03023594
In       2.94560845       1.42342394      11.44508983       10       0.01498120      -0.01605425      -0.03023594
In       0.02627407       1.56215494       5.33305774       11       0.01498120       0.01605425       0.03023594
In       2.94560845       1.56215494       3.05601604       12       0.01498120       0.01605425      -0.03023594
In       0.02627407       1.42342394      13.72213152       13       0.01498120      -0.01605425       0.03023594
In       2.89306031       4.54773383       5.33305774       14      -0.01498120       0.01605425       0.03023594
In       5.81239469       4.40900282      11.44508983       15      -0.01498120      -0.01605425      -0.03023594
O        5.01177972       5.18393657      13.39814129       16      -0.00921003      -0.03007059       0.01337927
O        2.09244534       3.77280007       3.38000628       17      -0.00921003       0.03007059      -0.01337927
O        0.82688903       2.19835769      11.76908006       18       0.00921003      -0.03007059      -0.01337927
O        3.74622341       0.78722119       5.00906750       19       0.00921003       0.03007059       0.01337927
O        0.82688903       0.78722119       3.38000628       20       0.00921003       0.03007059      -0.01337927
O        3.74622341       2.19835769      13.39814129       21       0.00921003      -0.03007059       0.01337927
O        5.01177972       3.77280007       5.00906750       22      -0.00921003       0.03007059       0.01337927
O        2.09244534       5.18393657      11.76908006       23      -0.00921003      -0.03007059      -0.01337927
O        4.10041317       3.11851848      10.47453546       24      -0.03680188       0.00620213       0.01835991
O        1.18107879       5.83821816       6.30361211       25      -0.03680188      -0.00620213      -0.01835991
O        1.73825559       0.13293960      14.69268589       26       0.03680188       0.00620213      -0.01835991
O        4.65758997       2.85263928       2.08546167       27       0.03680188      -0.00620213       0.01835991
O        1.73825559       2.85263928       6.30361211       28       0.03680188      -0.00620213      -0.01835991
O        4.65758997       0.13293960      10.47453546       29       0.03680188       0.00620213       0.01835991
O        4.10041317       5.83821816       2.08546167       30      -0.03680188      -0.00620213       0.01835991
O        1.18107879       3.11851848      14.69268589       31      -0.03680188       0.00620213      -0.01835991
O        3.78397717       3.93590871      15.92204271       32       0.01805144       0.01342776       0.05927536
O        0.86464279       5.02082793       0.85610486       33       0.01805144      -0.01342776      -0.05927536
O        2.05469159       0.95032983       9.24517864       34      -0.01805144       0.01342776      -0.05927536
O        4.97402597       2.03524905       7.53296893       35      -0.01805144      -0.01342776       0.05927536
O        2.05469159       2.03524905       0.85610486       36      -0.01805144      -0.01342776      -0.05927536
O        4.97402597       0.95032983      15.92204271       37      -0.01805144       0.01342776       0.05927536
O        3.78397717       5.02082793       7.53296893       38       0.01805144      -0.01342776       0.05927536
O        0.86464279       3.93590871       9.24517864       39       0.01805144       0.01342776      -0.05927536
40
Lattice="5.832463341957617 5.473453631849879e-43 0.0 -5.603191959660462e-43 5.970600745236795 0.0 0.0 0.0 16.797565530129628" Properties=species:S:1:pos:R:3:spacegroup_kinds:I:1:forces:R:3 spacegroup="P 1" unit_cell=conventional occupancy="_JSON {\"0\": {\"In\": 1}, \"1\": {\"In\": 1}, \"2\": {\"In\": 1}, \"3\": {\"In\": 1}, \"4\": {\"In\": 1}, \"5\": {\"In\": 1}, \"6\": {\"In\": 1}, \"7\": {\"In\": 1}, \"8\": {\"In\": 1}, \"9\": {\"In\": 1}, \"10\": {\"In\": 1}, \"11\": {\"In\": 1}, \"12\": {\"In\": 1}, \"13\": {\"In\": 1}, \"14\": {\"In\": 1}, \"15\": {\"In\": 1}, \"16\": {\"O\": 1}, \"17\": {\"O\": 1}, \"18\": {\"O\": 1}, \"19\": {\"O\": 1}, \"20\": {\"O\": 1}, \"21\": {\"O\": 1}, \"22\": {\"O\": 1}, \"23\": {\"O\": 1}, \"24\": {\"O\": 1}, \"25\": {\"O\": 1}, \"26\": {\"O\": 1}, \"27\": {\"O\": 1}, \"28\": {\"O\": 1}, \"29\": {\"O\": 1}, \"30\": {\"O\": 1}, \"31\": {\"O\": 1}, \"32\": {\"O\": 1}, \"33\": {\"O\": 1}, \"34\": {\"O\": 1}, \"35\": {\"O\": 1}, \"36\": {\"O\": 1}, \"37\": {\"O\": 1}, \"38\": {\"O\": 1}, \"39\": {\"O\": 1}}" n_minim_iter=2 energy=-45148.394783309275 stress="0.05931250071210167 -6.791623771634863e-14 -6.888202974367884e-14 -6.791623771634863e-14 0.05954002696255035 -2.363615844014995e-13 -6.888202974367884e-14 -2.363615844014995e-13 0.05975921250668881" free_energy=-45148.394783309275 pbc="T T T"
In       2.90623500       4.74220656       9.58194465        0       0.00778530       0.06525204       0.01711490
In      -0.00999667       4.21369456       7.21562088        1       0.00778530      -0.06525204      -0.01711490
In       2.92622834       1.75690619      15.61440365        2      -0.00778530       0.06525204      -0.01711490
In       5.84246001       1.22839418       1.18316188        3      -0.00778530      -0.06525204       0.01711490
In       2.92622834       1.22839418       7.21562088        4      -0.00778530      -0.06525204      -0.01711490
In       5.84246001       1.75690619       9.58194465        5      -0.00778530       0.06525204       0.01711490
In       2.90623500       4.21369456       1.18316188        6       0.00778530      -0.06525204       0.01711490
In      -0.00999667       4.74220656      15.61440365        7       0.00778530       0.06525204      -0.01711490
In       2.88994925       4.40855261      13.73808602        8      -0.01817896      -0.01471220       0.02547395
In       5.80618092       4.54734850       3.05947951        9      -0.01817896       0.01471220      -0.02547395
In       2.94251409       1.42325224      11.45826227       10       0.01817896      -0.01471220      -0.02547395
In       0.02628242       1.56204813       5.33930326       11       0.01817896       0.01471220       0.02547395
In       2.94251409       1.56204813       3.05947951       12       0.01817896       0.01471220      -0.02547395
In       0.02628242       1.42325224      13.73808602       13       0.01817896      -0.01471220       0.02547395
In       2.88994925       4.54734850       5.33930326       14      -0.01817896       0.01471220       0.02547395
In       5.80618092       4.40855261      11.45826227       15      -0.01817896      -0.01471220      -0.02547395
O        5.00643083       5.18338011      13.41367991       16      -0.00712909      -0.02935824       0.00762742
O        2.09019916       3.77252101       3.38388562       17      -0.00712909       0.02935824      -0.00762742
O        0.82603251       2.19807974      11.78266838       18       0.00712909      -0.02935824      -0.00762742
O        3.74226418       0.78722063       5.01489715       19       0.00712909       0.02935824       0.00762742
O        0.82603251       0.78722063       3.38388562       20       0.00712909       0.02935824      -0.00762742
O        3.74226418       2.19807974      13.41367991       21       0.00712909      -0.02935824       0.00762742
O        5.00643083       3.77252101       5.01489715       22      -0.00712909       0.02935824       0.00762742
O        2.09019916       5.18338011      11.78266838       23      -0.00712909      -0.02935824      -0.00762742
O        4.09596608       3.11824260      10.48670258       24      -0.03681948       0.00348431       0.02238779
O        1.17973441       5.83765852       6.31086295       25      -0.03681948      -0.00348431      -0.02238779
O        1.73649726       0.13294223      14.70964572       26       0.03681948       0.00348431      -0.02238779
O        4.65272893       2.85235814       2.08791981       27       0.03681948      -0.00348431       0.02238779
O        1.73649726       2.85235814       6.31086295       28       0.03681948      -0.00348431      -0.02238779
O        4.65272893       0.13294223      10.48670258       29       0.03681948       0.00348431       0.02238779
O        4.09596608       5.83765852       2.08791981       30      -0.03681948      -0.00348431       0.02238779
O        1.17973441       3.11824260      14.70964572       31      -0.03681948       0.00348431      -0.02238779
O        3.77999922       3.93557410      15.94061372       32       0.01329346       0.01147892       0.06524855
O        0.86376755       5.02032702       0.85695181       33       0.01329346      -0.01147892      -0.06524855
O        2.05246412       0.95027373       9.25573458       34      -0.01329346       0.01147892      -0.06524855
O        4.96869579       2.03502665       7.54183095       35      -0.01329346      -0.01147892       0.06524855
O        2.05246412       2.03502665       0.85695181       36      -0.01329346      -0.01147892      -0.06524855
O        4.96869579       0.95027373      15.94061372       37      -0.01329346       0.01147892       0.06524855
O        3.77999922       5.02032702       7.54183095       38       0.01329346      -0.01147892       0.06524855
O        0.86376755       3.93557410       9.25573458       39       0.01329346       0.01147892      -0.06524855
40
Lattice="5.834705050684466 4.950047999801377e-43 0.0 -5.598065757210186e-43 5.965379687769295 0.0 0.0 0.0 16.80580788561867" Properties=species:S:1:pos:R:3:spacegroup_kinds:I:1:forces:R:3 spacegroup="P 1" unit_cell=conventional occupancy="_JSON {\"0\": {\"In\": 1}, \"1\": {\"In\": 1}, \"2\": {\"In\": 1}, \"3\": {\"In\": 1}, \"4\": {\"In\": 1}, \"5\": {\"In\": 1}, \"6\": {\"In\": 1}, \"7\": {\"In\": 1}, \"8\": {\"In\": 1}, \"9\": {\"In\": 1}, \"10\": {\"In\": 1}, \"11\": {\"In\": 1}, \"12\": {\"In\": 1}, \"13\": {\"In\": 1}, \"14\": {\"In\": 1}, \"15\": {\"In\": 1}, \"16\": {\"O\": 1}, \"17\": {\"O\": 1}, \"18\": {\"O\": 1}, \"19\": {\"O\": 1}, \"20\": {\"O\": 1}, \"21\": {\"O\": 1}, \"22\": {\"O\": 1}, \"23\": {\"O\": 1}, \"24\": {\"O\": 1}, \"25\": {\"O\": 1}, \"26\": {\"O\": 1}, \"27\": {\"O\": 1}, \"28\": {\"O\": 1}, \"29\": {\"O\": 1}, \"30\": {\"O\": 1}, \"31\": {\"O\": 1}, \"32\": {\"O\": 1}, \"33\": {\"O\": 1}, \"34\": {\"O\": 1}, \"35\": {\"O\": 1}, \"36\": {\"O\": 1}, \"37\": {\"O\": 1}, \"38\": {\"O\": 1}, \"39\": {\"O\": 1}}" n_minim_iter=3 energy=-45148.40076896608 stress="0.05957041260326314 3.3191406963980907e-13 -5.289374463053296e-14 3.3191406963980907e-13 0.05787967745907299 2.315945936265313e-14 -5.289374463053296e-14 2.315945936265313e-14 0.059300469948672684" free_energy=-45148.40076896608 pbc="T T T"
In       2.90788759       4.74374577       9.58829800        0      -0.00753381       0.02889505       0.01303507
In      -0.00946493       4.20432376       7.21750988        1      -0.00753381      -0.02889505      -0.01303507
In       2.92681746       1.76105593      15.62041383        2       0.00753381       0.02889505      -0.01303507
In       5.84416998       1.22163392       1.18539406        3       0.00753381      -0.02889505       0.01303507
In       2.92681746       1.22163392       7.21750988        4       0.00753381      -0.02889505      -0.01303507
In       5.84416998       1.76105593       9.58829800        5       0.00753381       0.02889505       0.01303507
In       2.90788759       4.20432376       1.18539406        6      -0.00753381      -0.02889505       0.01303507
In      -0.00946493       4.74374577      15.62041383        7      -0.00753381       0.02889505      -0.01303507
In       2.88951044       4.40336503      13.74719093        8      -0.00386789      -0.00243632      -0.00448039
In       5.80686296       4.54470450       3.05861695        9      -0.00386789       0.00243632       0.00448039
In       2.94519461       1.42067519      11.46152090       10       0.00386789      -0.00243632       0.00448039
In       0.02784209       1.56201466       5.34428699       11       0.00386789       0.00243632      -0.00448039
In       2.94519461       1.56201466       3.05861695       12       0.00386789       0.00243632       0.00448039
In       0.02784209       1.42067519      13.74719093       13       0.00386789      -0.00243632      -0.00448039
In       2.88951044       4.54470450       5.34428699       14      -0.00386789       0.00243632      -0.00448039
In       5.80686296       4.40336503      11.46152090       15      -0.00386789      -0.00243632       0.00448039
O        5.00768134       5.17622740      13.42105547       16      -0.00308877      -0.02004013       0.01358200
O        2.09032882       3.77184213       3.38475242       17      -0.00308877       0.02004013      -0.01358200
O        0.82702371       2.19353755      11.78765636       18       0.00308877      -0.02004013      -0.01358200
O        3.74437623       0.78915229       5.01815152       19       0.00308877       0.02004013       0.01358200
O        0.82702371       0.78915229       3.38475242       20       0.00308877       0.02004013      -0.01358200
O        3.74437623       2.19353755      13.42105547       21       0.00308877      -0.02004013       0.01358200
O        5.00768134       3.77184213       5.01815152       22      -0.00308877       0.02004013       0.01358200
O        2.09032882       5.17622740      11.78765636       23      -0.00308877      -0.02004013      -0.01358200
O        4.09427399       3.11587890      10.49376269       24      -0.00309743       0.01010397       0.01336453
O        1.17692147       5.83219063       6.31204519       25      -0.00309743      -0.01010397      -0.01336453
O        1.74043106       0.13318906      14.71494913       26       0.00309743       0.01010397      -0.01336453
O        4.65778358       2.84950079       2.09085875       27       0.00309743      -0.01010397       0.01336453
O        1.74043106       2.84950079       6.31204519       28       0.00309743      -0.01010397      -0.01336453
O        4.65778358       0.13318906      10.49376269       29       0.00309743       0.01010397       0.01336453
O        4.09427399       5.83219063       2.09085875       30      -0.00309743      -0.01010397       0.01336453
O        1.17692147       3.11587890      14.71494913       31      -0.00309743       0.01010397      -0.01336453
O        3.78272570       3.93319008      15.95412955       32       0.00543355       0.00424995       0.02412035
O        0.86537318       5.01487945       0.85167834       33       0.00543355      -0.00424995      -0.02412035
O        2.05197935       0.95050024       9.25458228       34      -0.00543355       0.00424995      -0.02412035
O        4.96933187       2.03218960       7.55122561       35      -0.00543355      -0.00424995       0.02412035
O        2.05197935       2.03218960       0.85167834       36      -0.00543355      -0.00424995      -0.02412035
O        4.96933187       0.95050024      15.95412955       37      -0.00543355       0.00424995       0.02412035
O        3.78272570       5.01487945       7.55122561       38       0.00543355      -0.00424995       0.02412035
O        0.86537318       3.93319008       9.25458228       39       0.00543355       0.00424995      -0.02412035
40
Lattice="5.829024709832007 5.6551479076916694e-43 0.0 -5.488899859947505e-43 5.975258035691324 0.0 0.0 0.0 16.794374438527438" Properties=species:S:1:pos:R:3:spacegroup_kinds:I:1:forces:R:3 spacegroup="P 1" unit_cell=conventional occupancy="_JSON {\"0\": {\"In\": 1}, \"1\": {\"In\": 1}, \"2\": {\"In\": 1}, \"3\": {\"In\": 1}, \"4\": {\"In\": 1}, \"5\": {\"In\": 1}, \"6\": {\"In\": 1}, \"7\": {\"In\": 1}, \"8\": {\"In\": 1}, \"9\": {\"In\": 1}, \"10\": {\"In\": 1}, \"11\": {\"In\": 1}, \"12\": {\"In\": 1}, \"13\": {\"In\": 1}, \"14\": {\"In\": 1}, \"15\": {\"In\": 1}, \"16\": {\"O\": 1}, \"17\": {\"O\": 1}, \"18\": {\"O\": 1}, \"19\": {\"O\": 1}, \"20\": {\"O\": 1}, \"21\": {\"O\": 1}, \"22\": {\"O\": 1}, \"23\": {\"O\": 1}, \"24\": {\"O\": 1}, \"25\": {\"O\": 1}, \"26\": {\"O\": 1}, \"27\": {\"O\": 1}, \"28\": {\"O\": 1}, \"29\": {\"O\": 1}, \"30\": {\"O\": 1}, \"31\": {\"O\": 1}, \"32\": {\"O\": 1}, \"33\": {\"O\": 1}, \"34\": {\"O\": 1}, \"35\": {\"O\": 1}, \"36\": {\"O\": 1}, \"37\": {\"O\": 1}, \"38\": {\"O\": 1}, \"39\": {\"O\": 1}}" n_minim_iter=4 energy=-45148.40223963855 stress="0.05866291789246919 2.129610803548119e-13 2.230298204852736e-13 2.129610803548119e-13 0.059101015914220616 6.384381624943091e-13 2.230298204852736e-13 6.384381624943091e-13 0.05844172570790225" free_energy=-45148.40223963855 pbc="T T T"
In       2.90521183       4.75358456       9.58236293        0      -0.00791260       0.02072466       0.01710117
In      -0.00930053       4.20930250       7.21201151        1      -0.00791260      -0.02072466      -0.01710117
In       2.92381288       1.76595554      15.60919873        2       0.00791260       0.02072466      -0.01710117
In       5.83832524       1.22167348       1.18517571        3       0.00791260      -0.02072466       0.01710117
In       2.92381288       1.22167348       7.21201151        4       0.00791260      -0.02072466      -0.01710117
In       5.83832524       1.76595554       9.58236293        5       0.00791260       0.02072466       0.01710117
In       2.90521183       4.20930250       1.18517571        6      -0.00791260      -0.02072466       0.01710117
In      -0.00930053       4.75358456      15.60919873        7      -0.00791260       0.02072466      -0.01710117
In       2.88617067       4.41020636      13.73860690        8      -0.00525911      -0.00655231      -0.00990983
In       5.80068303       4.55268070       3.05576754        9      -0.00525911       0.00655231       0.00990983
In       2.94285404       1.42257734      11.45295476       10       0.00525911      -0.00655231       0.00990983
In       0.02834168       1.56505168       5.34141968       11       0.00525911       0.00655231      -0.00990983
In       2.94285404       1.56505168       3.05576754       12       0.00525911       0.00655231       0.00990983
In       0.02834168       1.42257734      13.73860690       13       0.00525911      -0.00655231      -0.00990983
In       2.88617067       4.55268070       5.34141968       14      -0.00525911       0.00655231      -0.00990983
In       5.80068303       4.41020636      11.45295476       15      -0.00525911      -0.00655231       0.00990983
O        5.00257339       5.18386423      13.41223022       16      -0.00562277      -0.01631770       0.01572085
O        2.08806103       3.77902282       3.38214422       17      -0.00562277       0.01631770      -0.01572085
O        0.82645132       2.19623521      11.77933143       18       0.00562277      -0.01631770      -0.01572085
O        3.74096368       0.79139380       5.01504300       19       0.00562277       0.01631770       0.01572085
O        0.82645132       0.79139380       3.38214422       20       0.00562277       0.01631770      -0.01572085
O        3.74096368       2.19623521      13.41223022       21       0.00562277      -0.01631770       0.01572085
O        5.00257339       3.77902282       5.01504300       22      -0.00562277       0.01631770       0.01572085
O        2.08806103       5.18386423      11.77933143       23      -0.00562277      -0.01631770      -0.01572085
O        4.08919529       3.12119100      10.48730200       24       0.00546774       0.01739747       0.00673535
O        1.17468294       5.84169605       6.30707244       25       0.00546774      -0.01739747      -0.00673535
O        1.73982942       0.13356198      14.70425966       26      -0.00546774       0.01739747      -0.00673535
O        4.65434177       2.85406704       2.09011478       27      -0.00546774      -0.01739747       0.00673535
O        1.73982942       2.85406704       6.30707244       28      -0.00546774      -0.01739747      -0.00673535
O        4.65434177       0.13356198      10.48730200       29      -0.00546774       0.01739747       0.00673535
O        4.08919529       5.84169605       2.09011478       30       0.00546774      -0.01739747       0.00673535
O        1.17468294       3.12119100      14.70425966       31       0.00546774       0.01739747      -0.00673535
O        3.77948161       3.94006790      15.94524225       32       0.00645857      -0.00325788       0.00811329
O        0.86496926       5.02281915       0.84913219       33       0.00645857       0.00325788      -0.00811329
O        2.04954310       0.95243888       9.24631941       34      -0.00645857      -0.00325788      -0.00811329
O        4.96405545       2.03519014       7.54805503       35      -0.00645857       0.00325788       0.00811329
O        2.04954310       2.03519014       0.84913219       36      -0.00645857       0.00325788      -0.00811329
O        4.96405545       0.95243888      15.94524225       37      -0.00645857      -0.00325788       0.00811329
O        3.77948161       5.02281915       7.54805503       38       0.00645857       0.00325788       0.00811329
O        0.86496926       3.94006790       9.24631941       39       0.00645857      -0.00325788      -0.00811329
40
Lattice="5.828251800973203 5.729554811452745e-43 0.0 -5.563906392926855e-43 5.973429289495119 0.0 0.0 0.0 16.801743836444356" Properties=species:S:1:pos:R:3:spacegroup_kinds:I:1:forces:R:3 spacegroup="P 1" unit_cell=conventional occupancy="_JSON {\"0\": {\"In\": 1}, \"1\": {\"In\": 1}, \"2\": {\"In\": 1}, \"3\": {\"In\": 1}, \"4\": {\"In\": 1}, \"5\": {\"In\": 1}, \"6\": {\"In\": 1}, \"7\": {\"In\": 1}, \"8\": {\"In\": 1}, \"9\": {\"In\": 1}, \"10\": {\"In\": 1}, \"11\": {\"In\": 1}, \"12\": {\"In\": 1}, \"13\": {\"In\": 1}, \"14\": {\"In\": 1}, \"15\": {\"In\": 1}, \"16\": {\"O\": 1}, \"17\": {\"O\": 1}, \"18\": {\"O\": 1}, \"19\": {\"O\": 1}, \"20\": {\"O\": 1}, \"21\": {\"O\": 1}, \"22\": {\"O\": 1}, \"23\": {\"O\": 1}, \"24\": {\"O\": 1}, \"25\": {\"O\": 1}, \"26\": {\"O\": 1}, \"27\": {\"O\": 1}, \"28\": {\"O\": 1}, \"29\": {\"O\": 1}, \"30\": {\"O\": 1}, \"31\": {\"O\": 1}, \"32\": {\"O\": 1}, \"33\": {\"O\": 1}, \"34\": {\"O\": 1}, \"35\": {\"O\": 1}, \"36\": {\"O\": 1}, \"37\": {\"O\": 1}, \"38\": {\"O\": 1}, \"39\": {\"O\": 1}}" n_minim_iter=5 energy=-45148.40291341926 stress="0.05843429914912876 -2.7635023318644416e-13 -1.919138936603633e-13 -2.7635023318644416e-13 0.05840588352395315 -1.032420953574548e-13 -1.919138936603633e-13 -1.032420953574548e-13 0.05842747686971834" free_energy=-45148.40291341926 pbc="T T T"
In       2.90487157       4.75464378       9.58747728        0      -0.01113331       0.00767994       0.01215515
In      -0.00925433       4.20550016       7.21426656        1      -0.01113331      -0.00767994      -0.01215515
In       2.92338023       1.76792913      15.61513848        2       0.01113331       0.00767994      -0.01215515
In       5.83750613       1.21878551       1.18660536        3       0.01113331      -0.00767994       0.01215515
In       2.92338023       1.21878551       7.21426656        4       0.01113331      -0.00767994      -0.01215515
In       5.83750613       1.76792913       9.58747728        5       0.01113331       0.00767994       0.01215515
In       2.90487157       4.20550016       1.18660536        6      -0.01113331      -0.00767994       0.01215515
In      -0.00925433       4.75464378      15.61513848        7      -0.01113331       0.00767994      -0.01215515
In       2.88512851       4.40826944      13.74529275        8      -0.00180348      -0.00092624      -0.02087437
In       5.79925441       4.55187450       3.05645108        9      -0.00180348       0.00092624       0.02087437
In       2.94312329       1.42155479      11.45732300       10       0.00180348      -0.00092624       0.02087437
In       0.02899739       1.56515985       5.34442083       11       0.00180348       0.00092624      -0.02087437
In       2.94312329       1.56515985       3.05645108       12       0.00180348       0.00092624       0.02087437
In       0.02899739       1.42155479      13.74529275       13       0.00180348      -0.00092624      -0.02087437
In       2.88512851       4.55187450       5.34442083       14      -0.00180348       0.00092624      -0.02087437
In       5.79925441       4.40826944      11.45732300       15      -0.00180348      -0.00092624       0.02087437
O        5.00157154       5.18098560      13.41870198       16      -0.00398277      -0.01160395       0.01460711
O        2.08744564       3.77915833       3.38304186       17      -0.00398277       0.01160395      -0.01460711
O        0.82668026       2.19427096      11.78391377       18       0.00398277      -0.01160395      -0.01460711
O        3.74080617       0.79244369       5.01783006       19       0.00398277       0.01160395       0.01460711
O        0.82668026       0.79244369       3.38304186       20       0.00398277       0.01160395      -0.01460711
O        3.74080617       2.19427096      13.41870198       21       0.00398277      -0.01160395       0.01460711
O        5.00157154       3.77915833       5.01783006       22      -0.00398277       0.01160395       0.01460711
O        2.08744564       5.18098560      11.78391377       23      -0.00398277      -0.01160395      -0.01460711
O        4.08755642       3.12068150      10.49276958       24       0.01706591       0.01798918       0.00551437
O        1.17343052       5.83946244       6.30897425       25       0.01706591      -0.01798918      -0.00551437
O        1.74069539       0.13396685      14.70984617       26      -0.01706591       0.01798918      -0.00551437
O        4.65482129       2.85274779       2.09189766       27      -0.01706591      -0.01798918       0.00551437
O        1.74069539       2.85274779       6.30897425       28      -0.01706591      -0.01798918      -0.00551437
O        4.65482129       0.13396685      10.49276958       29      -0.01706591       0.01798918       0.00551437
O        4.08755642       5.83946244       2.09189766       30       0.01706591      -0.01798918       0.00551437
O        1.17343052       3.12068150      14.70984617       31       0.01706591       0.01798918      -0.00551437
O        3.77955280       3.93920845      15.95453532       32       0.00210685      -0.00611823      -0.00563697
O        0.86542690       5.02093548       0.84720852       33       0.00210685       0.00611823       0.00563697
O        2.04869900       0.95249381       9.24808044       34      -0.00210685      -0.00611823       0.00563697
O        4.96282490       2.03422084       7.55366340       35      -0.00210685       0.00611823      -0.00563697
O        2.04869900       2.03422084       0.84720852       36      -0.00210685       0.00611823       0.00563697
O        4.96282490       0.95249381      15.95453532       37      -0.00210685      -0.00611823      -0.00563697
O        3.77955280       5.02093548       7.55366340       38       0.00210685       0.00611823      -0.00563697
O        0.86542690       3.93920845       9.24808044       39       0.00210685      -0.00611823       0.00563697
40