40
Lattice="5.795094978900046 5.4384356555366896e-43 0.0 5.987020296280723e-43 5.926595220665027 0.0 0.0 0.0 16.65293284535657" Properties=species:S:1:pos:R:3:spacegroup_kinds:I:1:forces:R:3 spacegroup="P 1" unit_cell=conventional occupancy="_JSON {\"0\": {\"In\": 1}, \"1\": {\"In\": 1}, \"2\": {\"In\": 1}, \"3\": {\"In\": 1}, \"4\": {\"In\": 1}, \"5\": {\"In\": 1}, \"6\": {\"In\": 1}, \"7\": {\"In\": 1}, \"8\": {\"In\": 1}, \"9\": {\"In\": 1}, \"10\": {\"In\": 1}, \"11\": {\"In\": 1}, \"12\": {\"In\": 1}, \"13\": {\"In\": 1}, \"14\": {\"In\": 1}, \"15\": {\"In\": 1}, \"16\": {\"O\": 1}, \"17\": {\"O\": 1}, \"18\": {\"O\": 1}, \"19\": {\"O\": 1}, \"20\": {\"O\": 1}, \"21\": {\"O\": 1}, \"22\": {\"O\": 1}, \"23\": {\"O\": 1}, \"24\": {\"O\": 1}, \"25\": {\"O\": 1}, \"26\": {\"O\": 1}, \"27\": {\"O\": 1}, \"28\": {\"O\": 1}, \"29\": {\"O\": 1}, \"30\": {\"O\": 1}, \"31\": {\"O\": 1}, \"32\": {\"O\": 1}, \"33\": {\"O\": 1}, \"34\": {\"O\": 1}, \"35\": {\"O\": 1}, \"36\": {\"O\": 1}, \"37\": {\"O\": 1}, \"38\": {\"O\": 1}, \"39\": {\"O\": 1}}" n_minim_iter=7 energy=-45149.08475262048 stress="0.046712652384171036 1.3534198530367461e-13 3.049928347154289e-13 1.3534198530367461e-13 0.04662457671785419 -2.1967865880569354e-13 3.049928347154289e-13 -2.1967865880569354e-13 0.04650453327852053" free_energy=-45149.08475262048 pbc="T T T"
In       2.88761499       4.70711064       9.49938431        0      -0.00055172      -0.00754081      -0.00404307
In      -0.00993250       4.18278219       7.15354853        1      -0.00055172       0.00754081       0.00404307
In       2.90747999       1.74381303      15.48001496        2       0.00055172      -0.00754081       0.00404307
In       5.80502748       1.21948458       1.17291789        3       0.00055172       0.00754081      -0.00404307
In       2.90747999       1.21948458       7.15354853        4       0.00055172       0.00754081       0.00404307
In       5.80502748       1.74381303       9.49938431        5       0.00055172      -0.00754081      -0.00404307
In       2.88761499       4.18278219       1.17291789        6      -0.00055172       0.00754081      -0.00404307
In      -0.00993250       4.70711064      15.48001496        7      -0.00055172      -0.00754081       0.00404307
In       2.87146950       4.37609858      13.61972374        8      -0.00520745      -0.00432613       0.00045083
In       5.76901699       4.51379425       3.03320910        9      -0.00520745       0.00432613      -0.00045083
In       2.92362547       1.41280097      11.35967553       10       0.00520745      -0.00432613      -0.00045083
In       0.02607798       1.55049664       5.29325732       11       0.00520745       0.00432613       0.00045083
In       2.92362547       1.55049664       3.03320910       12       0.00520745       0.00432613      -0.00045083
In       0.02607798       1.41280097      13.61972374       13       0.00520745      -0.00432613       0.00045083
In       2.87146950       4.51379425       5.29325732       14      -0.00520745       0.00432613       0.00045083
In       5.76901699       4.37609858      11.35967553       15      -0.00520745      -0.00432613      -0.00045083
O        4.97437699       5.14524904      13.29815143       16      -0.00695984      -0.00325127      -0.00613979
O        2.07682950       3.74464379       3.35478141       17      -0.00695984       0.00325127       0.00613979
O        0.82071799       2.18195143      11.68124784       18       0.00695984      -0.00325127       0.00613979
O        3.71826548       0.78134618       4.97168501       19       0.00695984       0.00325127      -0.00613979
O        0.82071799       0.78134618       3.35478141       20       0.00695984       0.00325127       0.00613979
O        3.71826548       2.18195143      13.29815143       21       0.00695984      -0.00325127      -0.00613979
O        4.97437699       3.74464379       4.97168501       22      -0.00695984       0.00325127      -0.00613979
O        2.07682950       5.14524904      11.68124784       23      -0.00695984      -0.00325127       0.00613979
O        4.06981193       3.09524508      10.39636437       24      -0.00091708      -0.00467034       0.00370049
O        1.17226444       5.79464775       6.25656848       25      -0.00091708       0.00467034      -0.00370049
O        1.72528305       0.13194747      14.58303490       26       0.00091708      -0.00467034      -0.00370049
O        4.62283054       2.83135014       2.06989795       27       0.00091708       0.00467034       0.00370049
O        1.72528305       2.83135014       6.25656848       28       0.00091708       0.00467034      -0.00370049
O        4.62283054       0.13194747      10.39636437       29       0.00091708      -0.00467034       0.00370049
O        4.06981193       5.79464775       2.06989795       30      -0.00091708       0.00467034       0.00370049
O        1.17226444       3.09524508      14.58303490       31      -0.00091708      -0.00467034      -0.00370049
O        3.75573748       3.90653516      15.80321707       32      -0.00118510      -0.00004835       0.00086814
O        0.85818999       4.98335767       0.84971578       33      -0.00118510       0.00004835      -0.00086814
O        2.03935750       0.94323755       9.17618220       34       0.00118510      -0.00004835      -0.00086814
O        4.93690499       2.02006006       7.47675064       35       0.00118510       0.00004835       0.00086814
O        2.03935750       2.02006006       0.84971578       36       0.00118510       0.00004835      -0.00086814
O        4.93690499       0.94323755      15.80321707       37       0.00118510      -0.00004835       0.00086814
O        3.75573748       4.98335767       7.47675064       38      -0.00118510       0.00004835       0.00086814
O        0.85818999       3.90653516       9.17618220       39      -0.00118510      -0.00004835      -0.00086814
