40
Lattice="5.529098729149367 -9.981941814233464e-43 0.0 1.712361085173674e-42 5.74129454433052 0.0 0.0 0.0 15.969977825556938" Properties=species:S:1:pos:R:3:spacegroup_kinds:I:1:forces:R:3 spacegroup="P 1" unit_cell=conventional occupancy="_JSON {\"0\": {\"In\": 1}, \"1\": {\"In\": 1}, \"2\": {\"In\": 1}, \"3\": {\"In\": 1}, \"4\": {\"In\": 1}, \"5\": {\"In\": 1}, \"6\": {\"In\": 1}, \"7\": {\"In\": 1}, \"8\": {\"In\": 1}, \"9\": {\"In\": 1}, \"10\": {\"In\": 1}, \"11\": {\"In\": 1}, \"12\": {\"In\": 1}, \"13\": {\"In\": 1}, \"14\": {\"In\": 1}, \"15\": {\"In\": 1}, \"16\": {\"O\": 1}, \"17\": {\"O\": 1}, \"18\": {\"O\": 1}, \"19\": {\"O\": 1}, \"20\": {\"O\": 1}, \"21\": {\"O\": 1}, \"22\": {\"O\": 1}, \"23\": {\"O\": 1}, \"24\": {\"O\": 1}, \"25\": {\"O\": 1}, \"26\": {\"O\": 1}, \"27\": {\"O\": 1}, \"28\": {\"O\": 1}, \"29\": {\"O\": 1}, \"30\": {\"O\": 1}, \"31\": {\"O\": 1}, \"32\": {\"O\": 1}, \"33\": {\"O\": 1}, \"34\": {\"O\": 1}, \"35\": {\"O\": 1}, \"36\": {\"O\": 1}, \"37\": {\"O\": 1}, \"38\": {\"O\": 1}, \"39\": {\"O\": 1}}" n_minim_iter=14 energy=-45150.20976933983 stress="-0.013818736979024361 -1.6824495547917175e-13 2.0374362142684375e-13 -1.6824495547917175e-13 -0.013819158802682769 -3.848428486040747e-13 2.0374362142684375e-13 -3.848428486040747e-13 -0.013788124419503696" free_energy=-45150.20976933983 pbc="T T T"
In       2.75148175       4.62868614       9.12882882        0      -0.00759786      -0.00340609       0.00398633
In      -0.01306762       3.98325568       6.84114900        1      -0.00759786       0.00340609      -0.00398633
In       2.77761698       1.75803887      14.82613792        2       0.00759786      -0.00340609      -0.00398633
In       5.54216634       1.11260841       1.14383991        3       0.00759786       0.00340609       0.00398633
In       2.77761698       1.11260841       6.84114900        4       0.00759786       0.00340609      -0.00398633
In       5.54216634       1.75803887       9.12882882        5       0.00759786      -0.00340609       0.00398633
In       2.75148175       3.98325568       1.14383991        6      -0.00759786       0.00340609       0.00398633
In      -0.01306762       4.62868614      14.82613792        7      -0.00759786      -0.00340609      -0.00398633
In       2.74550738       4.33431362      13.06699856        8      -0.00501179      -0.00191200       0.00322554
In       5.51005675       4.27762819       2.90297927        9      -0.00501179       0.00191200      -0.00322554
In       2.78359135       1.46366635      10.88796818       10       0.00501179      -0.00191200      -0.00322554
In       0.01904198       1.40698092       5.08200964       11       0.00501179       0.00191200       0.00322554
In       2.78359135       1.40698092       2.90297927       12       0.00501179       0.00191200      -0.00322554
In       0.01904198       1.46366635      13.06699856       13       0.00501179      -0.00191200       0.00322554
In       2.74550738       4.27762819       5.08200964       14      -0.00501179       0.00191200       0.00322554
In       5.51005675       4.33431362      10.88796818       15      -0.00501179      -0.00191200      -0.00322554
O        4.74104176       5.11799269      12.74955440       16       0.00296212       0.00621405       0.00114024
O        1.97649239       3.49394913       3.22042343       17       0.00296212      -0.00621405      -0.00114024
O        0.78805697       2.24734541      11.20541234       18      -0.00296212       0.00621405      -0.00114024
O        3.55260633       0.62330186       4.76456548       19      -0.00296212      -0.00621405       0.00114024
O        0.78805697       0.62330186       3.22042343       20      -0.00296212      -0.00621405      -0.00114024
O        3.55260633       2.24734541      12.74955440       21      -0.00296212       0.00621405       0.00114024
O        4.74104176       3.49394913       4.76456548       22       0.00296212      -0.00621405       0.00114024
O        1.97649239       5.11799269      11.20541234       23       0.00296212       0.00621405      -0.00114024
O        3.91083220       3.07025183       9.97734364       24      -0.00150226      -0.00668422      -0.00115482
O        1.14628284       5.54168999       5.99263419       25      -0.00150226       0.00668422       0.00115482
O        1.61826652       0.19960456      13.97762310       26       0.00150226      -0.00668422       0.00115482
O        4.38281589       2.67104272       1.99235472       27       0.00150226       0.00668422      -0.00115482
O        1.61826652       2.67104272       5.99263419       28       0.00150226       0.00668422       0.00115482
O        4.38281589       0.19960456       9.97734364       29       0.00150226      -0.00668422      -0.00115482
O        3.91083220       5.54168999       1.99235472       30      -0.00150226       0.00668422      -0.00115482
O        1.14628284       3.07025183      13.97762310       31      -0.00150226      -0.00668422       0.00115482
O        3.56199690       3.82628877      15.14208510       32       0.00004451       0.00435288       0.00064569
O        0.79744754       4.78565305       0.82789273       33       0.00004451      -0.00435288      -0.00064569
O        1.96710183       0.95564150       8.81288164       34      -0.00004451       0.00435288      -0.00064569
O        4.73165119       1.91500578       7.15709618       35      -0.00004451      -0.00435288       0.00064569
O        1.96710183       1.91500578       0.82789273       36      -0.00004451      -0.00435288      -0.00064569
O        4.73165119       0.95564150      15.14208510       37      -0.00004451       0.00435288       0.00064569
O        3.56199690       4.78565305       7.15709618       38       0.00004451      -0.00435288       0.00064569
O        0.79744754       3.82628877       8.81288164       39       0.00004451       0.00435288      -0.00064569
