40
Lattice="5.408497927888133 -2.3436904679454098e-42 1.5372114276834815e-80 2.214145283555993e-42 5.184193362915399 -3.1749540071555744e-38 -1.4597074670118602e-81 -9.517519414778855e-38 14.83528855027933" Properties=species:S:1:pos:R:3:spacegroup_kinds:I:1:forces:R:3 spacegroup="P 1" unit_cell=conventional occupancy="_JSON {\"0\": {\"In\": 1}, \"1\": {\"In\": 1}, \"2\": {\"In\": 1}, \"3\": {\"In\": 1}, \"4\": {\"In\": 1}, \"5\": {\"In\": 1}, \"6\": {\"In\": 1}, \"7\": {\"In\": 1}, \"8\": {\"In\": 1}, \"9\": {\"In\": 1}, \"10\": {\"In\": 1}, \"11\": {\"In\": 1}, \"12\": {\"In\": 1}, \"13\": {\"In\": 1}, \"14\": {\"In\": 1}, \"15\": {\"In\": 1}, \"16\": {\"O\": 1}, \"17\": {\"O\": 1}, \"18\": {\"O\": 1}, \"19\": {\"O\": 1}, \"20\": {\"O\": 1}, \"21\": {\"O\": 1}, \"22\": {\"O\": 1}, \"23\": {\"O\": 1}, \"24\": {\"O\": 1}, \"25\": {\"O\": 1}, \"26\": {\"O\": 1}, \"27\": {\"O\": 1}, \"28\": {\"O\": 1}, \"29\": {\"O\": 1}, \"30\": {\"O\": 1}, \"31\": {\"O\": 1}, \"32\": {\"O\": 1}, \"33\": {\"O\": 1}, \"34\": {\"O\": 1}, \"35\": {\"O\": 1}, \"36\": {\"O\": 1}, \"37\": {\"O\": 1}, \"38\": {\"O\": 1}, \"39\": {\"O\": 1}}" n_minim_iter=10 energy=-45142.16176447939 stress="-0.26744016637796325 2.3657853647956563e-13 -1.2382967792982794e-13 2.3657853647956563e-13 -0.267294314397673 9.392518450993688e-13 -1.2382967792982794e-13 9.392518450993688e-13 -0.2672423493489684" free_energy=-45142.16176447939 pbc="T T T"
In       2.78864774       3.86163908       8.37063591        0      -0.00315039       0.00202488      -0.00802166
In       0.08439878       3.91465097       6.46465264        1      -0.00315039      -0.00202488       0.00802166
In       2.61985019       1.26954239      13.88229692        2       0.00315039       0.00202488       0.00802166
In       5.32409915       1.32255429       0.95299163        3       0.00315039      -0.00202488      -0.00802166
In       2.61985019       1.32255429       6.46465264        4       0.00315039      -0.00202488       0.00802166
In       5.32409915       1.26954239       8.37063591        5       0.00315039       0.00202488      -0.00802166
In       2.78864774       3.91465097       0.95299163        6      -0.00315039      -0.00202488      -0.00802166
In       0.08439878       3.86163908      13.88229692        7      -0.00315039       0.00202488       0.00802166
In       2.76812486       3.58792808      12.10935506        8       0.00182035       0.00168137      -0.00289809
In       5.47237383       4.18836196       2.72593350        9       0.00182035      -0.00168137       0.00289809
In       2.64037306       0.99583140      10.14357777       10      -0.00182035       0.00168137       0.00289809
In      -0.06387590       1.59626528       4.69171078       11      -0.00182035      -0.00168137      -0.00289809
In       2.64037306       1.59626528       2.72593350       12      -0.00182035      -0.00168137       0.00289809
In      -0.06387590       0.99583140      12.10935506       13      -0.00182035       0.00168137      -0.00289809
In       2.76812486       4.18836196       4.69171078       14       0.00182035      -0.00168137      -0.00289809
In       5.47237383       3.58792808      10.14357777       15       0.00182035       0.00168137       0.00289809
O        4.70572251       4.20371203      11.91712362       16       0.00260541      -0.00463099      -0.00310542
O        2.00147354       3.57257802       2.91816493       17       0.00260541       0.00463099       0.00310542
O        0.70277542       1.61161535      10.33580920       18      -0.00260541      -0.00463099       0.00310542
O        3.40702438       0.98048134       4.49947935       19      -0.00260541       0.00463099      -0.00310542
O        0.70277542       0.98048134       2.91816493       20      -0.00260541       0.00463099       0.00310542
O        3.40702438       1.61161535      11.91712362       21      -0.00260541      -0.00463099      -0.00310542
O        4.70572251       3.57257802       4.49947935       22       0.00260541       0.00463099      -0.00310542
O        2.00147354       4.20371203      10.33580920       23       0.00260541      -0.00463099       0.00310542
O        3.84873928       2.45390683       9.35239408       24       0.00256996      -0.00411941       0.00130587
O        1.14449032       5.32238322       5.48289447       25       0.00256996       0.00411941      -0.00130587
O        1.55975864      -0.13818985      12.90053874       26      -0.00256996      -0.00411941      -0.00130587
O        4.26400761       2.73028654       1.93474981       27      -0.00256996       0.00411941       0.00130587
O        1.55975864       2.73028654       5.48289447       28      -0.00256996       0.00411941      -0.00130587
O        4.26400761      -0.13818985       9.35239408       29      -0.00256996      -0.00411941       0.00130587
O        3.84873928       5.32238322       1.93474981       30       0.00256996       0.00411941       0.00130587
O        1.14449032       2.45390683      12.90053874       31       0.00256996      -0.00411941      -0.00130587
O        3.57557593       3.16185714      14.05412400       32       0.00393258      -0.00669663       0.00513373
O        0.87132697       4.61443290       0.78116455       33       0.00393258       0.00669663      -0.00513373
O        1.83292199       0.56976046       8.19880883       34      -0.00393258      -0.00669663      -0.00513373
O        4.53717096       2.02233622       6.63647972       35      -0.00393258       0.00669663       0.00513373
O        1.83292199       2.02233622       0.78116455       36      -0.00393258       0.00669663      -0.00513373
O        4.53717096       0.56976046      14.05412400       37      -0.00393258      -0.00669663       0.00513373
O        3.57557593       4.61443290       6.63647972       38       0.00393258       0.00669663       0.00513373
O        0.87132697       3.16185714       8.19880883       39       0.00393258      -0.00669663      -0.00513373
