40
Lattice="5.3593935215838115 -2.3163369645066855e-42 -4.680116179543859e-79 2.1390210602280913e-42 5.068053423445756 9.323836006249945e-37 2.9581267522109543e-80 2.923010479328596e-36 14.357152138001217" Properties=species:S:1:pos:R:3:spacegroup_kinds:I:1:forces:R:3 spacegroup="P 1" unit_cell=conventional occupancy="_JSON {\"0\": {\"In\": 1}, \"1\": {\"In\": 1}, \"2\": {\"In\": 1}, \"3\": {\"In\": 1}, \"4\": {\"In\": 1}, \"5\": {\"In\": 1}, \"6\": {\"In\": 1}, \"7\": {\"In\": 1}, \"8\": {\"In\": 1}, \"9\": {\"In\": 1}, \"10\": {\"In\": 1}, \"11\": {\"In\": 1}, \"12\": {\"In\": 1}, \"13\": {\"In\": 1}, \"14\": {\"In\": 1}, \"15\": {\"In\": 1}, \"16\": {\"O\": 1}, \"17\": {\"O\": 1}, \"18\": {\"O\": 1}, \"19\": {\"O\": 1}, \"20\": {\"O\": 1}, \"21\": {\"O\": 1}, \"22\": {\"O\": 1}, \"23\": {\"O\": 1}, \"24\": {\"O\": 1}, \"25\": {\"O\": 1}, \"26\": {\"O\": 1}, \"27\": {\"O\": 1}, \"28\": {\"O\": 1}, \"29\": {\"O\": 1}, \"30\": {\"O\": 1}, \"31\": {\"O\": 1}, \"32\": {\"O\": 1}, \"33\": {\"O\": 1}, \"34\": {\"O\": 1}, \"35\": {\"O\": 1}, \"36\": {\"O\": 1}, \"37\": {\"O\": 1}, \"38\": {\"O\": 1}, \"39\": {\"O\": 1}}" n_minim_iter=30 energy=-45138.424505173214 stress="-0.30494695922712306 -5.230534947509141e-14 -3.3098453533711805e-13 -5.230534947509141e-14 -0.3050210397891054 -1.0758757936909324e-12 -3.3098453533711805e-13 -1.0758757936909324e-12 -0.3049835016212471" free_energy=-45138.424505173214 pbc="T T T"
In       2.81485503       3.62388946       8.02173619        0      -0.00107225       0.00177261      -0.00193288
In       0.13515827       3.97819067       6.33541595        1      -0.00107225      -0.00177261       0.00193288
In       2.54453849       1.08986275      13.51399202        2       0.00107225       0.00177261       0.00193288
In       5.22423526       1.44416396       0.84316012        3       0.00107225      -0.00177261      -0.00193288
In       2.54453849       1.44416396       6.33541595        4       0.00107225      -0.00177261       0.00193288
In       5.22423526       1.08986275       8.02173619        5       0.00107225       0.00177261      -0.00193288
In       2.81485503       3.97819067       0.84316012        6      -0.00107225      -0.00177261      -0.00193288
In       0.13515827       3.62388946      13.51399202        7      -0.00107225       0.00177261       0.00193288
In       2.77394431       3.25653719      11.72485762        8      -0.00085387      -0.00387146      -0.00240195
In       5.45364107       4.34554295       2.63229451        9      -0.00085387       0.00387146       0.00240195
In       2.58544921       0.72251047       9.81087058       10       0.00085387      -0.00387146       0.00240195
In      -0.09424755       1.81151624       4.54628156       11       0.00085387       0.00387146      -0.00240195
In       2.58544921       1.81151624       2.63229451       12       0.00085387       0.00387146       0.00240195
In      -0.09424755       0.72251047      11.72485762       13       0.00085387      -0.00387146      -0.00240195
In       2.77394431       4.34554295       4.54628156       14      -0.00085387       0.00387146      -0.00240195
In       5.45364107       3.25653719       9.81087058       15      -0.00085387      -0.00387146       0.00240195
O        4.69355564       3.84926333      11.55964159       16       0.00232079      -0.00157160       0.00238944
O        2.01385888       3.75281681       2.79751055       17       0.00232079       0.00157160      -0.00238944
O        0.66583788       1.31523661       9.97608662       18      -0.00232079      -0.00157160      -0.00238944
O        3.34553464       1.21879010       4.38106552       19      -0.00232079       0.00157160       0.00238944
O        0.66583788       1.21879010       2.79751055       20      -0.00232079       0.00157160      -0.00238944
O        3.34553464       1.31523661      11.55964159       21      -0.00232079      -0.00157160       0.00238944
O        4.69355564       3.75281681       4.38106552       22       0.00232079       0.00157160       0.00238944
O        2.01385888       3.84926333       9.97608662       23       0.00232079      -0.00157160      -0.00238944
O        3.76209725       2.18056154       9.03701580       24       0.00260137       0.00314559       0.00296438
O        1.08240049       5.42151860       5.32013634       25       0.00260137      -0.00314559      -0.00296438
O        1.59729627      -0.35346518      12.49871241       26      -0.00260137       0.00314559      -0.00296438
O        4.27699303       2.88749189       1.85843973       27      -0.00260137      -0.00314559       0.00296438
O        1.59729627       2.88749189       5.32013634       28      -0.00260137      -0.00314559      -0.00296438
O        4.27699303      -0.35346518       9.03701580       29      -0.00260137       0.00314559       0.00296438
O        3.76209725       5.42151860       1.85843973       30       0.00260137      -0.00314559       0.00296438
O        1.08240049       2.18056154      12.49871241       31       0.00260137       0.00314559      -0.00296438
O        3.61430161       2.89696468      13.66242335       32      -0.00013030       0.00121810       0.00088886
O        0.93460485       4.70511546       0.69472879       33      -0.00013030      -0.00121810      -0.00088886
O        1.74509191       0.36293797       7.87330486       34       0.00013030       0.00121810      -0.00088886
O        4.42478867       2.17108874       6.48384728       35       0.00013030      -0.00121810       0.00088886
O        1.74509191       2.17108874       0.69472879       36       0.00013030      -0.00121810      -0.00088886
O        4.42478867       0.36293797      13.66242335       37       0.00013030       0.00121810       0.00088886
O        3.61430161       4.70511546       6.48384728       38      -0.00013030      -0.00121810       0.00088886
O        0.93460485       2.89696468       7.87330486       39      -0.00013030       0.00121810      -0.00088886
