40
Lattice="5.554987869628978 -6.218589908313567e-42 -2.5735998879041936e-85 2.6233208019404038e-42 5.104745147386409 4.6296604987384534e-42 2.8384629821507043e-85 1.1060701033958191e-41 15.585675007859246" Properties=species:S:1:pos:R:3:spacegroup_kinds:I:1:forces:R:3 spacegroup="P 1" unit_cell=conventional occupancy="_JSON {\"0\": {\"In\": 1}, \"1\": {\"In\": 1}, \"2\": {\"In\": 1}, \"3\": {\"In\": 1}, \"4\": {\"In\": 1}, \"5\": {\"In\": 1}, \"6\": {\"In\": 1}, \"7\": {\"In\": 1}, \"8\": {\"In\": 1}, \"9\": {\"In\": 1}, \"10\": {\"In\": 1}, \"11\": {\"In\": 1}, \"12\": {\"In\": 1}, \"13\": {\"In\": 1}, \"14\": {\"In\": 1}, \"15\": {\"In\": 1}, \"16\": {\"O\": 1}, \"17\": {\"O\": 1}, \"18\": {\"O\": 1}, \"19\": {\"O\": 1}, \"20\": {\"O\": 1}, \"21\": {\"O\": 1}, \"22\": {\"O\": 1}, \"23\": {\"O\": 1}, \"24\": {\"O\": 1}, \"25\": {\"O\": 1}, \"26\": {\"O\": 1}, \"27\": {\"O\": 1}, \"28\": {\"O\": 1}, \"29\": {\"O\": 1}, \"30\": {\"O\": 1}, \"31\": {\"O\": 1}, \"32\": {\"O\": 1}, \"33\": {\"O\": 1}, \"34\": {\"O\": 1}, \"35\": {\"O\": 1}, \"36\": {\"O\": 1}, \"37\": {\"O\": 1}, \"38\": {\"O\": 1}, \"39\": {\"O\": 1}}" n_minim_iter=28 energy=-45147.85319449248 stress="-0.06961737302530172 5.836541015266491e-13 3.777041406665891e-14 5.836541015266491e-13 -0.06968054932903275 1.2510873907813324e-13 3.777041406665891e-14 1.2510873907813324e-13 -0.0697139721603602" free_energy=-45147.85319449248 pbc="T T T"
In       2.76721693       3.87830844       8.82900562        0       0.00063621       0.00686870       0.00206394
In      -0.01027701       3.77880928       6.75666939        1       0.00063621      -0.00686870      -0.00206394
In       2.78777094       1.32593587      14.54950689        2      -0.00063621       0.00686870      -0.00206394
In       5.56526488       1.22643671       1.03616812        3      -0.00063621      -0.00686870       0.00206394
In       2.78777094       1.22643671       6.75666939        4      -0.00063621      -0.00686870      -0.00206394
In       5.56526488       1.32593587       8.82900562        5      -0.00063621       0.00686870       0.00206394
In       2.76721693       3.77880928       1.03616812        6       0.00063621      -0.00686870       0.00206394
In      -0.01027701       3.87830844      14.54950689        7       0.00063621       0.00686870      -0.00206394
In       2.81618796       3.74677975      12.71461739        8      -0.00566132       0.00022258      -0.00098226
In       5.59368189       3.91033797       2.87105762        9      -0.00566132      -0.00022258       0.00098226
In       2.73879991       1.19440717      10.66389512       10       0.00566132       0.00022258       0.00098226
In      -0.03869402       1.35796540       4.92177989       11       0.00566132      -0.00022258      -0.00098226
In       2.73879991       1.35796540       2.87105762       12       0.00566132      -0.00022258       0.00098226
In      -0.03869402       1.19440717      12.71461739       13       0.00566132       0.00022258      -0.00098226
In       2.81618796       3.91033797       4.92177989       14      -0.00566132      -0.00022258      -0.00098226
In       5.59368189       3.74677975      10.66389512       15      -0.00566132       0.00022258       0.00098226
O        4.83899650       4.23739752      12.52614464       16      -0.00772490      -0.00576341      -0.00126836
O        2.06150256       3.41972020       3.05953037       17      -0.00772490       0.00576341       0.00126836
O        0.71599137       1.68502495      10.85236787       18       0.00772490      -0.00576341       0.00126836
O        3.49348531       0.86734763       4.73330713       19       0.00772490       0.00576341      -0.00126836
O        0.71599137       0.86734763       3.05953037       20       0.00772490       0.00576341       0.00126836
O        3.49348531       1.68502495      12.52614464       21       0.00772490      -0.00576341      -0.00126836
O        4.83899650       3.41972020       4.73330713       22      -0.00772490       0.00576341      -0.00126836
O        2.06150256       4.23739752      10.85236787       23      -0.00772490      -0.00576341       0.00126836
O        4.00875204       2.54805031       9.77079494       24       0.00356086      -0.00185885       0.00101308
O        1.23125811       5.10906741       5.81488006       25       0.00356086       0.00185885      -0.00101308
O        1.54623583      -0.00432227      13.60771757       26      -0.00356086      -0.00185885      -0.00101308
O        4.32372976       2.55669484       1.97795744       27      -0.00356086       0.00185885       0.00101308
O        1.54623583       2.55669484       5.81488006       28      -0.00356086       0.00185885      -0.00101308
O        4.32372976      -0.00432227       9.77079494       29      -0.00356086      -0.00185885       0.00101308
O        4.00875204       5.10906741       1.97795744       30       0.00356086       0.00185885       0.00101308
O        1.23125811       2.54805031      13.60771757       31       0.00356086      -0.00185885      -0.00101308
O        3.52381015       3.38279276      14.73673443       32       0.00022286       0.00167963      -0.00580395
O        0.74631622       4.27432496       0.84894058       33       0.00022286      -0.00167963       0.00580395
O        2.03117772       0.83042019       8.64177808       34      -0.00022286       0.00167963       0.00580395
O        4.80867165       1.72195239       6.94389693       35      -0.00022286      -0.00167963      -0.00580395
O        2.03117772       1.72195239       0.84894058       36      -0.00022286      -0.00167963       0.00580395
O        4.80867165       0.83042019      14.73673443       37      -0.00022286       0.00167963      -0.00580395
O        3.52381015       4.27432496       6.94389693       38       0.00022286      -0.00167963      -0.00580395
O        0.74631622       3.38279276       8.64177808       39       0.00022286       0.00167963       0.00580395
