40
Lattice="5.901776128092255 7.722971223225171e-43 0.0 -9.699881992055374e-43 6.289682459317776 0.0 0.0 0.0 17.1588630233137" Properties=species:S:1:pos:R:3:spacegroup_kinds:I:1:forces:R:3 spacegroup="P 1" unit_cell=conventional occupancy="_JSON {\"0\": {\"In\": 1}, \"1\": {\"In\": 1}, \"2\": {\"In\": 1}, \"3\": {\"In\": 1}, \"4\": {\"In\": 1}, \"5\": {\"In\": 1}, \"6\": {\"In\": 1}, \"7\": {\"In\": 1}, \"8\": {\"In\": 1}, \"9\": {\"In\": 1}, \"10\": {\"In\": 1}, \"11\": {\"In\": 1}, \"12\": {\"In\": 1}, \"13\": {\"In\": 1}, \"14\": {\"In\": 1}, \"15\": {\"In\": 1}, \"16\": {\"O\": 1}, \"17\": {\"O\": 1}, \"18\": {\"O\": 1}, \"19\": {\"O\": 1}, \"20\": {\"O\": 1}, \"21\": {\"O\": 1}, \"22\": {\"O\": 1}, \"23\": {\"O\": 1}, \"24\": {\"O\": 1}, \"25\": {\"O\": 1}, \"26\": {\"O\": 1}, \"27\": {\"O\": 1}, \"28\": {\"O\": 1}, \"29\": {\"O\": 1}, \"30\": {\"O\": 1}, \"31\": {\"O\": 1}, \"32\": {\"O\": 1}, \"33\": {\"O\": 1}, \"34\": {\"O\": 1}, \"35\": {\"O\": 1}, \"36\": {\"O\": 1}, \"37\": {\"O\": 1}, \"38\": {\"O\": 1}, \"39\": {\"O\": 1}}" n_minim_iter=11 energy=-45146.63945249578 stress="0.04945841952486079 -2.6144189449373774e-13 2.6849933655599415e-13 -2.6144189449373774e-13 0.049437157294875446 3.445153031545159e-13 2.6849933655599415e-13 3.445153031545159e-13 0.049448214954793596" free_energy=-45146.63945249578 pbc="T T T"
In       2.69334021       5.24966357       9.89618256        0       0.00154975      -0.00024930      -0.00218112
In      -0.25754785       4.18486012       7.26268047        1       0.00154975       0.00024930       0.00218112
In       3.20843592       2.10482234      15.84211198        2      -0.00154975      -0.00024930       0.00218112
In       6.15932398       1.04001889       1.31675104        3      -0.00154975       0.00024930      -0.00218112
In       3.20843592       1.04001889       7.26268047        4      -0.00154975       0.00024930       0.00218112
In       6.15932398       2.10482234       9.89618256        5      -0.00154975      -0.00024930      -0.00218112
In       2.69334021       4.18486012       1.31675104        6       0.00154975       0.00024930      -0.00218112
In      -0.25754785       5.24966357      15.84211198        7       0.00154975      -0.00024930       0.00218112
In       2.70757602       5.06155496      13.95696435        8       0.00449589      -0.00048071      -0.00063905
In       5.65846408       4.37296873       3.20189868        9       0.00449589       0.00048071       0.00063905
In       3.19420011       1.91671373      11.78133019       10      -0.00449589      -0.00048071       0.00063905
In       0.24331205       1.22812750       5.37753283       11      -0.00449589       0.00048071      -0.00063905
In       3.19420011       1.22812750       3.20189868       12      -0.00449589       0.00048071       0.00063905
In       0.24331205       1.91671373      13.95696435       13      -0.00449589      -0.00048071      -0.00063905
In       2.70757602       4.37296873       5.37753283       14       0.00449589       0.00048071      -0.00063905
In       5.65846408       5.06155496      11.78133019       15       0.00449589      -0.00048071       0.00063905
O        4.82065602       5.68301846      13.74936127       16       0.00121630      -0.00181942      -0.00266140
O        1.86976796       3.75150523       3.40950175       17       0.00121630       0.00181942       0.00266140
O        1.08112011       2.53817723      11.98893326       18      -0.00121630      -0.00181942       0.00266140
O        4.03200817       0.60666400       5.16992976       19      -0.00121630       0.00181942      -0.00266140
O        1.08112011       0.60666400       3.40950175       20      -0.00121630       0.00181942       0.00266140
O        4.03200817       2.53817723      13.74936127       21      -0.00121630      -0.00181942      -0.00266140
O        4.82065602       3.75150523       5.16992976       22       0.00121630       0.00181942      -0.00266140
O        1.86976796       5.68301846      11.98893326       23       0.00121630      -0.00181942       0.00266140
O        4.08597580       3.79485155      10.89207421       24      -0.00272484      -0.00180446      -0.00155183
O        1.13508774       5.63967213       6.26678882       25      -0.00272484       0.00180446       0.00155183
O        1.81580033       0.65001032      14.84622033       26       0.00272484      -0.00180446       0.00155183
O        4.76668839       2.49483090       2.31264270       27       0.00272484       0.00180446      -0.00155183
O        1.81580033       2.49483090       6.26678882       28       0.00272484       0.00180446       0.00155183
O        4.76668839       0.65001032      10.89207421       29       0.00272484      -0.00180446      -0.00155183
O        4.08597580       5.63967213       2.31264270       30      -0.00272484       0.00180446      -0.00155183
O        1.13508774       3.79485155      14.84622033       31      -0.00272484      -0.00180446       0.00155183
O        3.71754145       4.19381991      16.44738800       32       0.00223891      -0.00060906      -0.00179812
O        0.76665338       5.24070378       0.71147503       33       0.00223891       0.00060906       0.00179812
O        2.18423468       1.04897868       9.29090654       34      -0.00223891      -0.00060906       0.00179812
O        5.13512274       2.09586255       7.86795649       35      -0.00223891       0.00060906      -0.00179812
O        2.18423468       2.09586255       0.71147503       36      -0.00223891       0.00060906       0.00179812
O        5.13512274       1.04897868      16.44738800       37      -0.00223891      -0.00060906      -0.00179812
O        3.71754145       5.24070378       7.86795649       38       0.00223891       0.00060906      -0.00179812
O        0.76665338       4.19381991       9.29090654       39       0.00223891      -0.00060906       0.00179812
