40
Lattice="5.693500943960439 -9.884976392701195e-43 0.0 9.298319259678518e-43 5.8335625724680735 0.0 0.0 0.0 16.43765691832809" Properties=species:S:1:pos:R:3:spacegroup_kinds:I:1:forces:R:3 spacegroup="P 1" unit_cell=conventional occupancy="_JSON {\"0\": {\"In\": 1}, \"1\": {\"In\": 1}, \"2\": {\"In\": 1}, \"3\": {\"In\": 1}, \"4\": {\"In\": 1}, \"5\": {\"In\": 1}, \"6\": {\"In\": 1}, \"7\": {\"In\": 1}, \"8\": {\"In\": 1}, \"9\": {\"In\": 1}, \"10\": {\"In\": 1}, \"11\": {\"In\": 1}, \"12\": {\"In\": 1}, \"13\": {\"In\": 1}, \"14\": {\"In\": 1}, \"15\": {\"In\": 1}, \"16\": {\"O\": 1}, \"17\": {\"O\": 1}, \"18\": {\"O\": 1}, \"19\": {\"O\": 1}, \"20\": {\"O\": 1}, \"21\": {\"O\": 1}, \"22\": {\"O\": 1}, \"23\": {\"O\": 1}, \"24\": {\"O\": 1}, \"25\": {\"O\": 1}, \"26\": {\"O\": 1}, \"27\": {\"O\": 1}, \"28\": {\"O\": 1}, \"29\": {\"O\": 1}, \"30\": {\"O\": 1}, \"31\": {\"O\": 1}, \"32\": {\"O\": 1}, \"33\": {\"O\": 1}, \"34\": {\"O\": 1}, \"35\": {\"O\": 1}, \"36\": {\"O\": 1}, \"37\": {\"O\": 1}, \"38\": {\"O\": 1}, \"39\": {\"O\": 1}}" n_minim_iter=12 energy=-45149.99402702354 stress="0.023439825270038826 3.079812879561946e-13 3.2140710742678835e-13 3.079812879561946e-13 0.023402770246638966 -1.2169874819294483e-12 3.2140710742678835e-13 -1.2169874819294483e-12 0.02345499081383953" free_energy=-45149.99402702354 pbc="T T T"
In       2.84250732       4.63738422       9.37384217        0      -0.00134628      -0.00252822      -0.00306632
In      -0.00424315       4.11295963       7.06381475        1      -0.00134628       0.00252822       0.00306632
In       2.85099362       1.72060294      15.28264321        2       0.00134628      -0.00252822       0.00306632
In       5.69774409       1.19617835       1.15501371        3       0.00134628       0.00252822      -0.00306632
In       2.85099362       1.19617835       7.06381475        4       0.00134628       0.00252822       0.00306632
In       5.69774409       1.72060294       9.37384217        5       0.00134628      -0.00252822      -0.00306632
In       2.84250732       4.11295963       1.15501371        6      -0.00134628       0.00252822      -0.00306632
In      -0.00424315       4.63738422      15.28264321        7      -0.00134628      -0.00252822       0.00306632
In       2.82802538       4.33350958      13.44765771        8       0.00529072       0.00251721       0.00047162
In       5.67477585       4.41683428       2.98999921        9       0.00529072      -0.00251721      -0.00047162
In       2.86547556       1.41672830      11.20882767       10      -0.00529072       0.00251721      -0.00047162
In       0.01872509       1.50005299       5.22882925       11      -0.00529072      -0.00251721       0.00047162
In       2.86547556       1.50005299       2.98999921       12      -0.00529072      -0.00251721      -0.00047162
In       0.01872509       1.41672830      13.44765771       13      -0.00529072       0.00251721       0.00047162
In       2.82802538       4.41683428       5.22882925       14       0.00529072      -0.00251721       0.00047162
In       5.67477585       4.33350958      11.20882767       15       0.00529072       0.00251721      -0.00047162
O        4.89195428       5.09981248      13.11910550       16       0.00173859       0.00253123       0.00642679
O        2.04520381       3.65053138       3.31855142       17       0.00173859      -0.00253123      -0.00642679
O        0.80154666       2.18303119      11.53737988       18      -0.00173859       0.00253123      -0.00642679
O        3.64829713       0.73375010       4.90027704       19      -0.00173859      -0.00253123       0.00642679
O        0.80154666       0.73375010       3.31855142       20      -0.00173859      -0.00253123      -0.00642679
O        3.64829713       2.18303119      13.11910550       21      -0.00173859       0.00253123       0.00642679
O        4.89195428       3.65053138       4.90027704       22       0.00173859      -0.00253123       0.00642679
O        2.04520381       5.09981248      11.53737988       23       0.00173859       0.00253123      -0.00642679
O        4.01371202       3.05465191      10.25984296       24       0.00006092      -0.00630490       0.00054195
O        1.16696155       5.69569195       6.17781396       25       0.00006092       0.00630490      -0.00054195
O        1.67978892       0.13787062      14.39664242       26      -0.00006092      -0.00630490      -0.00054195
O        4.52653939       2.77891067       2.04101450       27      -0.00006092       0.00630490       0.00054195
O        1.67978892       2.77891067       6.17781396       28      -0.00006092       0.00630490      -0.00054195
O        4.52653939       0.13787062      10.25984296       29      -0.00006092      -0.00630490       0.00054195
O        4.01371202       5.69569195       2.04101450       30       0.00006092       0.00630490       0.00054195
O        1.16696155       3.05465191      14.39664242       31       0.00006092      -0.00630490      -0.00054195
O        3.68376124       3.84555824      15.58621107       32       0.00924804       0.00065270      -0.00330132
O        0.83701077       4.90478562       0.85144585       33       0.00924804      -0.00065270       0.00330132
O        2.00973970       0.92877695       9.07027430       34      -0.00924804       0.00065270       0.00330132
O        4.85649017       1.98800433       7.36738261       35      -0.00924804      -0.00065270      -0.00330132
O        2.00973970       1.98800433       0.85144585       36      -0.00924804      -0.00065270       0.00330132
O        4.85649017       0.92877695      15.58621107       37      -0.00924804       0.00065270      -0.00330132
O        3.68376124       4.90478562       7.36738261       38       0.00924804      -0.00065270      -0.00330132
O        0.83701077       3.84555824       9.07027430       39       0.00924804       0.00065270       0.00330132
