40
Lattice="5.3593935215838115 -2.2619839719297046e-42 4.494808676871787e-79 2.1390210602280917e-42 5.068053423445756 9.323836006249945e-37 -2.3189001935702972e-78 -2.64132440735975e-36 14.357152138001217" Properties=species:S:1:pos:R:3:spacegroup_kinds:I:1:forces:R:3 spacegroup="P 1" unit_cell=conventional occupancy="_JSON {\"0\": {\"In\": 1}, \"1\": {\"In\": 1}, \"2\": {\"In\": 1}, \"3\": {\"In\": 1}, \"4\": {\"In\": 1}, \"5\": {\"In\": 1}, \"6\": {\"In\": 1}, \"7\": {\"In\": 1}, \"8\": {\"In\": 1}, \"9\": {\"In\": 1}, \"10\": {\"In\": 1}, \"11\": {\"In\": 1}, \"12\": {\"In\": 1}, \"13\": {\"In\": 1}, \"14\": {\"In\": 1}, \"15\": {\"In\": 1}, \"16\": {\"O\": 1}, \"17\": {\"O\": 1}, \"18\": {\"O\": 1}, \"19\": {\"O\": 1}, \"20\": {\"O\": 1}, \"21\": {\"O\": 1}, \"22\": {\"O\": 1}, \"23\": {\"O\": 1}, \"24\": {\"O\": 1}, \"25\": {\"O\": 1}, \"26\": {\"O\": 1}, \"27\": {\"O\": 1}, \"28\": {\"O\": 1}, \"29\": {\"O\": 1}, \"30\": {\"O\": 1}, \"31\": {\"O\": 1}, \"32\": {\"O\": 1}, \"33\": {\"O\": 1}, \"34\": {\"O\": 1}, \"35\": {\"O\": 1}, \"36\": {\"O\": 1}, \"37\": {\"O\": 1}, \"38\": {\"O\": 1}, \"39\": {\"O\": 1}}" n_minim_iter=1 energy=-45133.787744941896 stress="-0.425907413562413 -1.6575143509236114e-15 -4.635386071454312e-13 -1.6575143509236114e-15 -0.40719362264266723 6.539853548155689e-13 -4.635386071454312e-13 6.539853548155689e-13 -0.40312098843618327" free_energy=-45133.787744941896 pbc="T T T"
In       2.81485503       3.62388946       8.02173619        0      -0.01943480       0.08813796      -0.16913955
In       0.13515827       3.97819067       6.33541595        1      -0.01943480      -0.08813796       0.16913955
In       2.54453849       1.08986275      13.51399202        2       0.01943480       0.08813796       0.16913955
In       5.22423526       1.44416396       0.84316012        3       0.01943480      -0.08813796      -0.16913955
In       2.54453849       1.44416396       6.33541595        4       0.01943480      -0.08813796       0.16913955
In       5.22423526       1.08986275       8.02173619        5       0.01943480       0.08813796      -0.16913955
In       2.81485503       3.97819067       0.84316012        6      -0.01943480      -0.08813796      -0.16913955
In       0.13515827       3.62388946      13.51399202        7      -0.01943480       0.08813796       0.16913955
In       2.77394431       3.25653719      11.72485762        8       0.06113141      -0.52477169       0.57918756
In       5.45364107       4.34554295       2.63229451        9       0.06113141       0.52477169      -0.57918756
In       2.58544921       0.72251047       9.81087058       10      -0.06113141      -0.52477169      -0.57918756
In      -0.09424755       1.81151624       4.54628156       11      -0.06113141       0.52477169       0.57918756
In       2.58544921       1.81151624       2.63229451       12      -0.06113141       0.52477169      -0.57918756
In      -0.09424755       0.72251047      11.72485762       13      -0.06113141      -0.52477169       0.57918756
In       2.77394431       4.34554295       4.54628156       14       0.06113141       0.52477169       0.57918756
In       5.45364107       3.25653719       9.81087058       15       0.06113141      -0.52477169      -0.57918756
O        4.69355564       3.84926333      11.55964159       16      -0.11291050       0.06853528      -0.04318512
O        2.01385888       3.75281681       2.79751055       17      -0.11291050      -0.06853528       0.04318512
O        0.66583788       1.31523661       9.97608662       18       0.11291050       0.06853528       0.04318512
O        3.34553464       1.21879010       4.38106552       19       0.11291050      -0.06853528      -0.04318512
O        0.66583788       1.21879010       2.79751055       20       0.11291050      -0.06853528       0.04318512
O        3.34553464       1.31523661      11.55964159       21       0.11291050       0.06853528      -0.04318512
O        4.69355564       3.75281681       4.38106552       22      -0.11291050      -0.06853528      -0.04318512
O        2.01385888       3.84926333       9.97608662       23      -0.11291050       0.06853528       0.04318512
O        3.76209725       2.18056154       9.03701580       24      -0.30539095       0.01339202       0.07352922
O        1.08240049       5.42151860       5.32013634       25      -0.30539095      -0.01339202      -0.07352922
O        1.59729627      -0.35346518      12.49871241       26       0.30539095       0.01339202      -0.07352922
O        4.27699303       2.88749189       1.85843973       27       0.30539095      -0.01339202       0.07352922
O        1.59729627       2.88749189       5.32013634       28       0.30539095      -0.01339202      -0.07352922
O        4.27699303      -0.35346518       9.03701580       29       0.30539095       0.01339202       0.07352922
O        3.76209725       5.42151860       1.85843973       30      -0.30539095      -0.01339202       0.07352922
O        1.08240049       2.18056154      12.49871241       31      -0.30539095       0.01339202      -0.07352922
O        3.61430161       2.89696468      13.66242335       32       0.05993843       0.07564279       0.08348662
O        0.93460485       4.70511546       0.69472879       33       0.05993843      -0.07564279      -0.08348662
O        1.74509191       0.36293797       7.87330486       34      -0.05993843       0.07564279      -0.08348662
O        4.42478867       2.17108874       6.48384728       35      -0.05993843      -0.07564279       0.08348662
O        1.74509191       2.17108874       0.69472879       36      -0.05993843      -0.07564279      -0.08348662
O        4.42478867       0.36293797      13.66242335       37      -0.05993843       0.07564279       0.08348662
O        3.61430161       4.70511546       6.48384728       38       0.05993843      -0.07564279       0.08348662
O        0.93460485       2.89696468       7.87330486       39       0.05993843       0.07564279      -0.08348662
40
Lattice="5.388138538536282 -2.2797742886702988e-42 1.6077285843951517e-77 2.129899209150344e-42 5.058498189191914 -3.2362142812221875e-35 -2.042659182790162e-78 -9.600979050921553e-35 14.30753381856785" Properties=species:S:1:pos:R:3:spacegroup_kinds:I:1:forces:R:3 spacegroup="P 1" unit_cell=conventional occupancy="_JSON {\"0\": {\"In\": 1}, \"1\": {\"In\": 1}, \"2\": {\"In\": 1}, \"3\": {\"In\": 1}, \"4\": {\"In\": 1}, \"5\": {\"In\": 1}, \"6\": {\"In\": 1}, \"7\": {\"In\": 1}, \"8\": {\"In\": 1}, \"9\": {\"In\": 1}, \"10\": {\"In\": 1}, \"11\": {\"In\": 1}, \"12\": {\"In\": 1}, \"13\": {\"In\": 1}, \"14\": {\"In\": 1}, \"15\": {\"In\": 1}, \"16\": {\"O\": 1}, \"17\": {\"O\": 1}, \"18\": {\"O\": 1}, \"19\": {\"O\": 1}, \"20\": {\"O\": 1}, \"21\": {\"O\": 1}, \"22\": {\"O\": 1}, \"23\": {\"O\": 1}, \"24\": {\"O\": 1}, \"25\": {\"O\": 1}, \"26\": {\"O\": 1}, \"27\": {\"O\": 1}, \"28\": {\"O\": 1}, \"29\": {\"O\": 1}, \"30\": {\"O\": 1}, \"31\": {\"O\": 1}, \"32\": {\"O\": 1}, \"33\": {\"O\": 1}, \"34\": {\"O\": 1}, \"35\": {\"O\": 1}, \"36\": {\"O\": 1}, \"37\": {\"O\": 1}, \"38\": {\"O\": 1}, \"39\": {\"O\": 1}}" n_minim_iter=2 energy=-45133.81358053081 stress="-0.40624500758000553 1.8571449010554624e-13 -1.2458062346134684e-13 1.8571449010554624e-13 -0.41216945845134145 1.7356185225196923e-13 -1.2458062346134684e-13 1.7356185225196923e-13 -0.4065108225556714" free_energy=-45133.81358053081 pbc="T T T"
In       2.82993308       3.61714427       7.99384593        0      -0.11857815       0.04602515      -0.17506987
In       0.13586381       3.97060302       6.31368789        1      -0.11857815      -0.04602515       0.17506987
In       2.55820546       1.08789517      13.46745480        2       0.11857815       0.04602515       0.17506987
In       5.25227473       1.44135392       0.84007902        3       0.11857815      -0.04602515      -0.17506987
In       2.55820546       1.44135392       6.31368789        4       0.11857815      -0.04602515       0.17506987
In       5.25227473       1.08789517       7.99384593        5       0.11857815       0.04602515      -0.17506987
In       2.82993308       3.97060302       0.84007902        6      -0.11857815      -0.04602515      -0.17506987
In       0.13586381       3.61714427      13.46745480        7      -0.11857815       0.04602515       0.17506987
In       2.78888326       3.24987798      11.68490884        8       0.10204226      -0.41001357       0.55795140
In       5.48295253       4.33786930       2.62262497        9       0.10204226       0.41001357      -0.55795140
In       2.59925528       0.72062889       9.77639188       10      -0.10204226      -0.41001357      -0.55795140
In      -0.09481399       1.80862021       4.53114194       11      -0.10204226       0.41001357       0.55795140
In       2.59925528       1.80862021       2.62262497       12      -0.10204226       0.41001357      -0.55795140
In      -0.09481399       0.72062889      11.68490884       13      -0.10204226      -0.41001357       0.55795140
In       2.78888326       4.33786930       4.53114194       14       0.10204226       0.41001357       0.55795140
In       5.48295253       3.24987798       9.77639188       15       0.10204226      -0.41001357      -0.55795140
O        4.71861689       3.84207381      11.51964879       16      -0.20032531      -0.00169430      -0.04100709
O        2.02454762       3.74567347       2.78788503       17      -0.20032531       0.00169430       0.04100709
O        0.66952165       1.31282472       9.94165194       18       0.20032531      -0.00169430       0.04100709
O        3.36359092       1.21642438       4.36588188       19       0.20032531       0.00169430      -0.04100709
O        0.66952165       1.21642438       2.78788503       20       0.20032531       0.00169430       0.04100709
O        3.36359092       1.31282472      11.51964879       21       0.20032531      -0.00169430      -0.04100709
O        4.71861689       3.74567347       4.36588188       22      -0.20032531       0.00169430      -0.04100709
O        2.02454762       3.84207381       9.94165194       23      -0.20032531      -0.00169430       0.04100709
O        3.78197075       2.17646359       9.00585653       24      -0.30752728      -0.00349678       0.09782901
O        1.08790148       5.41128369       5.30167729       25      -0.30752728       0.00349678      -0.09782901
O        1.60616779      -0.35278550      12.45544420       26       0.30752728      -0.00349678      -0.09782901
O        4.30023706       2.88203460       1.85208962       27       0.30752728       0.00349678       0.09782901
O        1.60616779       2.88203460       5.30167729       28       0.30752728       0.00349678      -0.09782901
O        4.30023706      -0.35278550       9.00585653       29       0.30752728      -0.00349678       0.09782901
O        3.78197075       5.41128369       1.85208962       30      -0.30752728       0.00349678       0.09782901
O        1.08790148       2.17646359      12.45544420       31      -0.30752728      -0.00349678      -0.09782901
O        3.63374661       2.89157765      13.61528851       32       0.10713587       0.10395829       0.07806847
O        0.93967734       4.69616963       0.69224531       33       0.10713587      -0.10395829      -0.07806847
O        1.75439193       0.36232856       7.84601222       34      -0.10713587       0.10395829      -0.07806847
O        4.44846120       2.16692054       6.46152160       35      -0.10713587      -0.10395829       0.07806847
O        1.75439193       2.16692054       0.69224531       36      -0.10713587      -0.10395829      -0.07806847
O        4.44846120       0.36232856      13.61528851       37      -0.10713587       0.10395829       0.07806847
O        3.63374661       4.69616963       6.46152160       38       0.10713587      -0.10395829       0.07806847
O        0.93967734       2.89157765       7.84601222       39       0.10713587       0.10395829      -0.07806847
40
Lattice="5.389708398374171 -2.2827881939137683e-42 1.867845598416671e-77 2.1387659982582615e-42 5.084734590298318 -3.794444297733698e-35 -1.8290297693884377e-78 -1.1240169945431642e-34 14.229563426680949" Properties=species:S:1:pos:R:3:spacegroup_kinds:I:1:forces:R:3 spacegroup="P 1" unit_cell=conventional occupancy="_JSON {\"0\": {\"In\": 1}, \"1\": {\"In\": 1}, \"2\": {\"In\": 1}, \"3\": {\"In\": 1}, \"4\": {\"In\": 1}, \"5\": {\"In\": 1}, \"6\": {\"In\": 1}, \"7\": {\"In\": 1}, \"8\": {\"In\": 1}, \"9\": {\"In\": 1}, \"10\": {\"In\": 1}, \"11\": {\"In\": 1}, \"12\": {\"In\": 1}, \"13\": {\"In\": 1}, \"14\": {\"In\": 1}, \"15\": {\"In\": 1}, \"16\": {\"O\": 1}, \"17\": {\"O\": 1}, \"18\": {\"O\": 1}, \"19\": {\"O\": 1}, \"20\": {\"O\": 1}, \"21\": {\"O\": 1}, \"22\": {\"O\": 1}, \"23\": {\"O\": 1}, \"24\": {\"O\": 1}, \"25\": {\"O\": 1}, \"26\": {\"O\": 1}, \"27\": {\"O\": 1}, \"28\": {\"O\": 1}, \"29\": {\"O\": 1}, \"30\": {\"O\": 1}, \"31\": {\"O\": 1}, \"32\": {\"O\": 1}, \"33\": {\"O\": 1}, \"34\": {\"O\": 1}, \"35\": {\"O\": 1}, \"36\": {\"O\": 1}, \"37\": {\"O\": 1}, \"38\": {\"O\": 1}, \"39\": {\"O\": 1}}" n_minim_iter=3 energy=-45133.83379447782 stress="-0.4043570412340736 6.611244530401928e-13 2.8433232350881544e-13 6.611244530401928e-13 -0.3978137217355524 6.344408065175775e-13 2.8433232350881544e-13 6.344408065175775e-13 -0.4108458730797434" free_energy=-45133.83379447782 pbc="T T T"
In       2.83022624       3.63616570       7.94941892        0      -0.16442977      -0.00076397      -0.18358691
In       0.13537204       3.99093618       6.28014451        1      -0.16442977       0.00076397       0.18358691
In       2.55948216       1.09379841      13.39492622        2       0.16442977      -0.00076397       0.18358691
In       5.25433636       1.44856889       0.83463720        3       0.16442977       0.00076397      -0.18358691
In       2.55948216       1.44856889       6.28014451        4       0.16442977       0.00076397       0.18358691
In       5.25433636       1.09379841       7.94941892        5       0.16442977      -0.00076397      -0.18358691
In       2.83022624       3.99093618       0.83463720        6      -0.16442977       0.00076397      -0.18358691
In       0.13537204       3.63616570      13.39492622        7      -0.16442977      -0.00076397       0.18358691
In       2.79018424       3.26459321      11.62401118        8       0.07951285      -0.50609523       0.44008385
In       5.48503844       4.36250867       2.60555224        9       0.07951285       0.50609523      -0.44008385
In       2.59952415       0.72222592       9.72033396       10      -0.07951285      -0.50609523      -0.44008385
In      -0.09533005       1.82014138       4.50922947       11      -0.07951285       0.50609523       0.44008385
In       2.59952415       1.82014138       2.60555224       12      -0.07951285       0.50609523      -0.44008385
In      -0.09533005       0.72222592      11.62401118       13      -0.07951285      -0.50609523       0.44008385
In       2.79018424       4.36250867       4.50922947       14       0.07951285       0.50609523       0.44008385
In       5.48503844       3.26459321       9.72033396       15       0.07951285      -0.50609523      -0.44008385
O        4.71903779       3.86204178      11.45666649       16      -0.18301102       0.10115899      -0.04722165
O        2.02418359       3.76506010       2.77289694       17      -0.18301102      -0.10115899       0.04722165
O        0.67067061       1.31967449       9.88767865       18       0.18301102       0.10115899       0.04722165
O        3.36552481       1.22269281       4.34188478       19       0.18301102      -0.10115899      -0.04722165
O        0.67067061       1.22269281       2.77289694       20       0.18301102      -0.10115899       0.04722165
O        3.36552481       1.31967449      11.45666649       21       0.18301102       0.10115899      -0.04722165
O        4.71903779       3.76506010       4.34188478       22      -0.18301102      -0.10115899      -0.04722165
O        2.02418359       3.86204178       9.88767865       23      -0.18301102       0.10115899       0.04722165
O        3.78151558       2.18774629       8.95724631       24      -0.31217723       0.02694221       0.10007629
O        1.08666138       5.43935559       5.27231712       25      -0.31217723      -0.02694221      -0.10007629
O        1.60819281      -0.35462100      12.38709883       26       0.31217723       0.02694221      -0.10007629
O        4.30304701       2.89698830       1.84246459       27       0.31217723      -0.02694221       0.10007629
O        1.60819281       2.89698830       5.27231712       28       0.31217723      -0.02694221      -0.10007629
O        4.30304701      -0.35462100       8.95724631       29       0.31217723       0.02694221       0.10007629
O        3.78151558       5.43935559       1.84246459       30      -0.31217723      -0.02694221       0.10007629
O        1.08666138       2.18774629      12.38709883       31      -0.31217723       0.02694221      -0.10007629
O        3.63531516       2.90707763      13.54148131       32       0.11639036       0.03257485       0.08354799
O        0.94046096       4.72002425       0.68808211       33       0.11639036      -0.03257485      -0.08354799
O        1.75439324       0.36471034       7.80286383       34      -0.11639036       0.03257485      -0.08354799
O        4.44924744       2.17765696       6.42669960       35      -0.11639036      -0.03257485       0.08354799
O        1.75439324       2.17765696       0.68808211       36      -0.11639036      -0.03257485      -0.08354799
O        4.44924744       0.36471034      13.54148131       37      -0.11639036       0.03257485       0.08354799
O        3.63531516       4.72002425       6.42669960       38       0.11639036      -0.03257485       0.08354799
O        0.94046096       2.90707763       7.80286383       39       0.11639036       0.03257485      -0.08354799
40
Lattice="5.387830511420548 -2.2817679576159522e-42 1.9372047955007826e-77 2.1382706478207277e-42 5.083050818358882 -3.9461083499580456e-35 -1.798245020130966e-78 -1.1658510447198927e-34 14.2392382493049" Properties=species:S:1:pos:R:3:spacegroup_kinds:I:1:forces:R:3 spacegroup="P 1" unit_cell=conventional occupancy="_JSON {\"0\": {\"In\": 1}, \"1\": {\"In\": 1}, \"2\": {\"In\": 1}, \"3\": {\"In\": 1}, \"4\": {\"In\": 1}, \"5\": {\"In\": 1}, \"6\": {\"In\": 1}, \"7\": {\"In\": 1}, \"8\": {\"In\": 1}, \"9\": {\"In\": 1}, \"10\": {\"In\": 1}, \"11\": {\"In\": 1}, \"12\": {\"In\": 1}, \"13\": {\"In\": 1}, \"14\": {\"In\": 1}, \"15\": {\"In\": 1}, \"16\": {\"O\": 1}, \"17\": {\"O\": 1}, \"18\": {\"O\": 1}, \"19\": {\"O\": 1}, \"20\": {\"O\": 1}, \"21\": {\"O\": 1}, \"22\": {\"O\": 1}, \"23\": {\"O\": 1}, \"24\": {\"O\": 1}, \"25\": {\"O\": 1}, \"26\": {\"O\": 1}, \"27\": {\"O\": 1}, \"28\": {\"O\": 1}, \"29\": {\"O\": 1}, \"30\": {\"O\": 1}, \"31\": {\"O\": 1}, \"32\": {\"O\": 1}, \"33\": {\"O\": 1}, \"34\": {\"O\": 1}, \"35\": {\"O\": 1}, \"36\": {\"O\": 1}, \"37\": {\"O\": 1}, \"38\": {\"O\": 1}, \"39\": {\"O\": 1}}" n_minim_iter=4 energy=-45133.90531865438 stress="-0.3923327574479711 5.201161598644886e-13 9.36365216383707e-13 5.201161598644886e-13 -0.39383054724325095 5.180771495963136e-13 9.36365216383707e-13 5.180771495963136e-13 -0.393457768729321" free_energy=-45133.90531865438 pbc="T T T"
In       2.82603908       3.63587686       7.95034547        0      -0.00055566      -0.03962983       0.04263228
In       0.13212382       3.98869936       6.28889278        1      -0.00055566       0.03962983      -0.04263228
In       2.56179144       1.09435145      13.40851190        2       0.00055566      -0.03962983      -0.04263228
In       5.25570669       1.44717396       0.83072635        3       0.00055566       0.03962983       0.04263228
In       2.56179144       1.44717396       6.28889278        4       0.00055566       0.03962983      -0.04263228
In       5.25570669       1.09435145       7.95034547        5       0.00055566      -0.03962983       0.04263228
In       2.82603908       3.98869936       0.83072635        6      -0.00055566       0.03962983       0.04263228
In       0.13212382       3.63587686      13.40851190        7      -0.00055566      -0.03962983      -0.04263228
In       2.79158491       3.25197336      11.64517896        8      -0.13784313      -0.14769897      -0.24038349
In       5.48550017       4.37260287       2.59405929        9      -0.13784313       0.14769897       0.24038349
In       2.59624560       0.71044795       9.71367841       10       0.13784313      -0.14769897       0.24038349
In      -0.09766966       1.83107746       4.52555983       11       0.13784313       0.14769897      -0.24038349
In       2.59624560       1.83107746       2.59405929       12       0.13784313       0.14769897       0.24038349
In      -0.09766966       0.71044795      11.64517896       13       0.13784313      -0.14769897      -0.24038349
In       2.79158491       4.37260287       4.52555983       14      -0.13784313       0.14769897      -0.24038349
In       5.48550017       3.25197336       9.71367841       15      -0.13784313      -0.14769897       0.24038349
O        4.71254186       3.86167586      11.46336707       16       0.01281786      -0.09632676      -0.20366289
O        2.01862661       3.76290036       2.77587118       17       0.01281786       0.09632676       0.20366289
O        0.67528865       1.32015045       9.89549030       18      -0.01281786      -0.09632676       0.20366288
O        3.36920390       1.22137495       4.34374795       19      -0.01281786       0.09632676      -0.20366289
O        0.67528865       1.22137495       2.77587118       20      -0.01281786       0.09632676       0.20366289
O        3.36920390       1.32015045      11.46336707       21      -0.01281786      -0.09632676      -0.20366289
O        4.71254186       3.76290036       4.34374795       22       0.01281786       0.09632676      -0.20366288
O        2.01862661       3.86167586       9.89549030       23       0.01281786      -0.09632676       0.20366289
O        3.77220664       2.18720624       8.96577285       24      -0.20292488      -0.01978559       0.03811276
O        1.07829138       5.43736999       5.27346540       25      -0.20292488       0.01978559      -0.03811276
O        1.61562387      -0.35431917      12.39308453       26       0.20292488      -0.01978559      -0.03811276
O        4.30953913       2.89584458       1.84615372       27       0.20292488       0.01978559       0.03811276
O        1.61562387       2.89584458       5.27346540       28       0.20292488       0.01978559      -0.03811276
O        4.30953913      -0.35431917       8.96577285       29       0.20292488      -0.01978559       0.03811276
O        3.77220664       5.43736999       1.84615372       30      -0.20292488       0.01978559       0.03811276
O        1.07829138       2.18720624      12.39308453       31      -0.20292488      -0.01978559      -0.03811276
O        3.63678645       2.90816829      13.55271612       32       0.06943823      -0.09095478       0.11799809
O        0.94287120       4.71640794       0.68652213       33       0.06943823       0.09095478      -0.11799809
O        1.75104406       0.36664288       7.80614125       34      -0.06943823      -0.09095478      -0.11799809
O        4.44495932       2.17488253       6.43309700       35      -0.06943823       0.09095478       0.11799809
O        1.75104406       2.17488253       0.68652213       36      -0.06943823       0.09095478      -0.11799809
O        4.44495932       0.36664288      13.55271612       37      -0.06943823      -0.09095478       0.11799809
O        3.63678645       4.71640794       6.43309700       38       0.06943823       0.09095478       0.11799809
O        0.94287120       2.90816829       7.80614125       39       0.06943823      -0.09095478      -0.11799809
40
Lattice="5.380988074284148 -2.2794795908933713e-42 1.978118276343545e-77 2.1429255531125095e-42 5.095365774061044 -4.018275726779084e-35 -1.7377836803425897e-78 -1.1906130274107133e-34 14.222886310475138" Properties=species:S:1:pos:R:3:spacegroup_kinds:I:1:forces:R:3 spacegroup="P 1" unit_cell=conventional occupancy="_JSON {\"0\": {\"In\": 1}, \"1\": {\"In\": 1}, \"2\": {\"In\": 1}, \"3\": {\"In\": 1}, \"4\": {\"In\": 1}, \"5\": {\"In\": 1}, \"6\": {\"In\": 1}, \"7\": {\"In\": 1}, \"8\": {\"In\": 1}, \"9\": {\"In\": 1}, \"10\": {\"In\": 1}, \"11\": {\"In\": 1}, \"12\": {\"In\": 1}, \"13\": {\"In\": 1}, \"14\": {\"In\": 1}, \"15\": {\"In\": 1}, \"16\": {\"O\": 1}, \"17\": {\"O\": 1}, \"18\": {\"O\": 1}, \"19\": {\"O\": 1}, \"20\": {\"O\": 1}, \"21\": {\"O\": 1}, \"22\": {\"O\": 1}, \"23\": {\"O\": 1}, \"24\": {\"O\": 1}, \"25\": {\"O\": 1}, \"26\": {\"O\": 1}, \"27\": {\"O\": 1}, \"28\": {\"O\": 1}, \"29\": {\"O\": 1}, \"30\": {\"O\": 1}, \"31\": {\"O\": 1}, \"32\": {\"O\": 1}, \"33\": {\"O\": 1}, \"34\": {\"O\": 1}, \"35\": {\"O\": 1}, \"36\": {\"O\": 1}, \"37\": {\"O\": 1}, \"38\": {\"O\": 1}, \"39\": {\"O\": 1}}" n_minim_iter=5 energy=-45133.943063759 stress="-0.38787114397567557 1.0048408865458723e-12 -7.017127716512833e-13 1.0048408865458723e-12 -0.38714526655387177 9.784863514264977e-13 -7.017127716512833e-13 9.784863514264977e-13 -0.38675366453618965" free_energy=-45133.943063759 pbc="T T T"
In       2.82097007       3.64358191       7.94064510        0       0.05420877       0.06557289       0.09041569
In       0.13047603       3.99946676       6.28224121        1       0.05420877      -0.06557288      -0.09041569
In       2.56001801       1.09589902      13.39368437        2      -0.05420877       0.06557289      -0.09041569
In       5.25051205       1.45178387       0.82920194        3      -0.05420877      -0.06557288       0.09041569
In       2.56001801       1.45178387       6.28224121        4      -0.05420877      -0.06557289      -0.09041569
In       5.25051205       1.09589902       7.94064510        5      -0.05420877       0.06557289       0.09041569
In       2.82097007       3.99946676       0.82920194        6       0.05420877      -0.06557289       0.09041569
In       0.13047603       3.64358191      13.39368437        7       0.05420877       0.06557288      -0.09041569
In       2.78338188       3.24737094      11.62888939        8       0.07557426      -0.17832263      -0.07041195
In       5.47387592       4.39567772       2.59399692        9       0.07557426       0.17832263       0.07041195
In       2.59760619       0.69968806       9.70544007       10      -0.07557426      -0.17832263       0.07041195
In      -0.09288785       1.84799483       4.51744624       11      -0.07557426       0.17832263      -0.07041195
In       2.59760619       1.84799483       2.59399692       12      -0.07557426       0.17832263       0.07041195
In      -0.09288785       0.69968806      11.62888939       13      -0.07557426      -0.17832263      -0.07041195
In       2.78338188       4.39567772       4.51744624       14       0.07557426       0.17832263      -0.07041195
In       5.47387592       3.24737094       9.70544007       15       0.07557426      -0.17832263       0.07041195
O        4.70476409       3.86761613      11.44128856       16      -0.05847723      -0.05010946       0.18320147
O        2.01427005       3.77543253       2.78159775       17      -0.05847723       0.05010946      -0.18320147
O        0.67622399       1.31993324       9.89304090       18       0.05847723      -0.05010946      -0.18320147
O        3.36671803       1.22774965       4.32984541       19       0.05847723       0.05010946       0.18320147
O        0.67622399       1.22774965       2.78159775       20       0.05847723       0.05010946      -0.18320147
O        3.36671803       1.31993324      11.44128856       21       0.05847723      -0.05010946       0.18320147
O        4.70476409       3.77543253       4.32984541       22      -0.05847723       0.05010946       0.18320147
O        2.01427005       3.86761613       9.89304090       23      -0.05847723      -0.05010946      -0.18320147
O        3.75473122       2.19180815       8.95825442       24       0.02054645      -0.07477958       0.03140053
O        1.06423718       5.45124051       5.26463189       25       0.02054646       0.07477958      -0.03140053
O        1.62625686      -0.35587474      12.37607504       26      -0.02054645      -0.07477958      -0.03140053
O        4.31675089       2.90355762       1.84681127       27      -0.02054645       0.07477958       0.03140053
O        1.62625686       2.90355762       5.26463189       28      -0.02054645       0.07477958      -0.03140053
O        4.31675089      -0.35587474       8.95825442       29      -0.02054646      -0.07477958       0.03140053
O        3.75473122       5.45124051       1.84681127       30       0.02054646       0.07477958       0.03140053
O        1.06423718       2.19180815      12.37607504       31       0.02054645      -0.07477958      -0.03140053
O        3.63641259       2.91239489      13.54305248       32      -0.05161317      -0.19180038      -0.09978380
O        0.94591855       4.73065377       0.67983383       33      -0.05161317       0.19180038       0.09978380
O        1.74457549       0.36471200       7.79127699       34       0.05161317      -0.19180038       0.09978380
O        4.43506952       2.18297088       6.43160932       35       0.05161317       0.19180038      -0.09978380
O        1.74457549       2.18297088       0.67983383       36       0.05161317       0.19180038       0.09978380
O        4.43506952       0.36471200      13.54305248       37       0.05161317      -0.19180038      -0.09978380
O        3.63641259       4.73065377       6.43160932       38      -0.05161317       0.19180038      -0.09978380
O        0.94591855       2.91239489       7.79127699       39      -0.05161317      -0.19180038       0.09978380
40