80
Lattice="11.758812762970885 0.0 0.0 6.452317444010323 9.830426094342354 0.0 6.452317444010323 3.4829815090918417 9.192720870539437" Properties=species:S:1:pos:R:3:initial_magmoms:R:1:forces:R:3 uid=supercell-002.xyz_R3c type=Bulk energy=-90301.43475395914 stress="0.0018851000844794946 -0.0008461383901812275 -0.0005674049575732332 -0.0008461383901812275 0.002976985646920029 -0.00034026124556365433 -0.0005674049575732332 -0.00034026124556365433 0.003188265133158868" virial="-2.043471211743105e-06 8.182525317212349e-07 5.58174377499385e-07 8.182525317212349e-07 -3.1097052393502893e-06 3.4389071554915676e-07 5.58174377499385e-07 3.4389071554915676e-07 -3.3248529483245103e-06" pbc="T T T"
In      10.56035509       5.70622635       3.94006911      10.00000000       0.09551043      -0.00447175      -0.00355681
In      16.45034502       5.70622635       3.94006911      10.00000000      -0.00111161       0.00056164       0.00162557
In      13.79709736      10.62143940       3.94006911      10.00000000       0.00159579      -0.00006325       0.00025134
In      19.67650374      10.62143940       3.94006911      10.00000000       0.00404959       0.00249864       0.00096052
In      13.79709736       7.44771711       8.53642955      10.00000000       0.00099249       0.00061076      -0.00110579
In      19.67650374       7.44771711       8.53642955      10.00000000       0.00117993       0.00238403       0.00379494
In      17.02325608      12.36293015       8.53642955      10.00000000       0.00339700       0.00221825       0.00014301
In      22.90266246      12.36293015       8.53642955      10.00000000       0.00254375       0.00138762       0.00095824
In       7.92664710       4.27882935       2.95447155      10.00000000      -0.01735165      -0.01267160      -0.00907891
In      13.80605348       4.27882935       2.95447155      10.00000000      -0.00772239       0.00028567       0.00181599
In      11.15280582       9.19404240       2.95447155      10.00000000      -0.00129670      -0.00389266      -0.00100809
In      17.03221221       9.19404240       2.95447155      10.00000000      -0.00301456      -0.00131090      -0.00100720
In      11.15280582       6.02032010       7.55083198      10.00000000      -0.00130203      -0.00232834      -0.00168783
In      17.03221221       6.02032010       7.55083198      10.00000000      -0.00302217      -0.00155896      -0.00109945
In      14.37896455      10.93553315       7.55083198      10.00000000      -0.00277797      -0.00171459      -0.00102609
In      20.25837093      10.93553315       7.55083198      10.00000000      -0.00322954      -0.00117484      -0.00105113
In       4.40507673       2.37787445       1.64188889      10.00000000       0.00247540       0.00176514       0.00181411
In      10.28448311       2.37787445       1.64188889      10.00000000       0.00437706       0.00013120       0.00052474
In       7.63123545       7.29308750       1.64188889      10.00000000      -0.00026100       0.00463245      -0.00513226
In      13.51064183       7.29308750       1.64188889      10.00000000      -0.00024485      -0.00078084       0.00410500
In       7.63123545       4.11936520       6.23824933      10.00000000      -0.00101878      -0.00033574       0.00486618
In      13.51064183       4.11936520       6.23824933      10.00000000      -0.00099129       0.00363888      -0.00422128
In      10.85739417       9.03457825       6.23824933      10.00000000       0.00437572       0.00156354       0.00033719
In      16.73680055       9.03457825       6.23824933      10.00000000       0.00247418       0.00177354       0.00182379
In       1.76078518       0.95047746       0.65629133      10.00000000      -0.00270825      -0.00074271      -0.00051974
In       7.64019156       0.95047746       0.65629133      10.00000000      -0.00336240      -0.00162512      -0.00104283
In       4.98694390       5.86569050       0.65629133      10.00000000      -0.00269437      -0.00198950      -0.00085359
In      10.86635028       5.86569050       0.65629133      10.00000000      -0.00014878       0.00009645       0.00010507
In       4.98694390       2.69196821       5.25265176      10.00000000      -0.00345152      -0.00100529      -0.00129500
In      10.86635028       2.69196821       5.25265176      10.00000000       0.00291318      -0.00016319      -0.00200144
In       8.21310263       7.60718126       5.25265176      10.00000000      -0.00771254       0.00502588       0.00522752
In      14.09250901       7.60718126       5.25265176      10.00000000      -0.00247737      -0.00159316      -0.00110108
O        6.02263415       2.30932705       0.21474656       4.00000000      -0.00007999       0.00959329      -0.01355330
O       11.90204053       2.30932705       0.21474656       4.00000000      -0.00025042       0.00937706      -0.01361841
O        9.24879287       7.22454010       0.21474656       4.00000000      -0.00023009       0.00927818      -0.01335319
O       15.12819925       7.22454010       0.21474656       4.00000000       0.00013313       0.00915455      -0.01368656
O        9.24879287       4.05081780       4.81110699       4.00000000      -0.00689292       0.00412689      -0.01190474
O       15.12819925       4.05081780       4.81110699       4.00000000       0.00318870       0.00861738      -0.01326652
O       12.47495159       8.96603085       4.81110699       4.00000000      -0.00050660       0.00906098      -0.01326119
O       18.35435798       8.96603085       4.81110699       4.00000000       0.00063552       0.00853837      -0.01415290
O        7.09636398       5.12094207       1.14909010       4.00000000      -0.00769805       0.01537667       0.00062249
O       12.97577036       5.12094207       1.14909010       4.00000000      -0.00741054       0.01479551       0.00022536
O       10.32252270      10.03615511       1.14909010       4.00000000      -0.00846141       0.01482455       0.00007317
O       16.20192908      10.03615511       1.14909010       4.00000000      -0.00766721       0.01458785      -0.00013196
O       10.32252270       6.86243282       5.74545054       4.00000000      -0.01156765       0.01851838       0.00520383
O       16.20192908       6.86243282       5.74545054       4.00000000      -0.00753349       0.01462769      -0.00010291
O       13.54868142      11.77764587       5.74545054       4.00000000      -0.00706284       0.01542988      -0.00016449
O       19.42808780      11.77764587       5.74545054       4.00000000      -0.00785938       0.01329247       0.00072154
O        8.17506304       2.18091283       2.51292678       4.00000000       0.00805731      -0.00513815      -0.01331119
O       14.05446942       2.18091283       2.51292678       4.00000000       0.00775719      -0.00571690      -0.01392759
O       11.40122176       7.09612588       2.51292678       4.00000000      -0.00073238      -0.01635379      -0.00355699
O       17.28062814       7.09612588       2.51292678       4.00000000       0.00981543      -0.00558746      -0.01335894
O       11.40122176       3.92240358       7.10928721       4.00000000       0.00717368      -0.00444577      -0.01423150
O       17.28062814       3.92240358       7.10928721       4.00000000       0.00814506      -0.00545706      -0.01337246
O       14.62738048       8.83761663       7.10928721       4.00000000       0.00785277      -0.00500849      -0.01359713
O       20.50678687       8.83761663       7.10928721       4.00000000       0.00813527      -0.00557287      -0.01414418
O        4.15666079       4.47579097       2.08343366       4.00000000      -0.00726223       0.00531437       0.01341607
O       10.03606717       4.47579097       2.08343366       4.00000000      -0.01360379       0.00410245       0.01167918
O        7.38281951       9.39100402       2.08343366       4.00000000      -0.00809157       0.00411910       0.01444372
O       13.26222589       9.39100402       2.08343366       4.00000000      -0.00682722       0.00669230       0.01309354
O        7.38281951       6.21728172       6.67979410       4.00000000      -0.00727711       0.00513474       0.01308982
O       13.26222589       6.21728172       6.67979410       4.00000000      -0.00854616       0.00511547       0.01307093
O       10.60897823      11.13249477       6.67979410       4.00000000      -0.00789162       0.00537092       0.01381742
O       16.48838462      11.13249477       6.67979410       4.00000000      -0.00855361       0.00553509       0.01356576
O        6.30908968       4.34737676       4.38161388       4.00000000       0.00047271      -0.00882160       0.01364254
O       12.18849606       4.34737676       4.38161388       4.00000000      -0.02802537       0.01114465       0.00860732
O        9.53524840       9.26258981       4.38161388       4.00000000      -0.00069596      -0.01111004       0.01365445
O       15.41465478       9.26258981       4.38161388       4.00000000       0.00016783      -0.00916980       0.01349873
O        9.53524840       6.08886751       8.97797431       4.00000000       0.00008127      -0.00959678       0.01356206
O       15.41465478       6.08886751       8.97797431       4.00000000       0.00027012      -0.00925135       0.01404985
O       12.76140712      11.00408056       8.97797431       4.00000000       0.00004230      -0.00916879       0.01416837
O       18.64081350      11.00408056       8.97797431       4.00000000       0.00024608      -0.00932281       0.01256635
O        5.23535984       1.53576173       3.44727032       4.00000000       0.00808802      -0.01421437      -0.00012714
O       11.11476623       1.53576173       3.44727032       4.00000000       0.00773104      -0.01510936      -0.00018568
O        8.46151857       6.45097478       3.44727032       4.00000000      -0.00656119      -0.01118986      -0.00102902
O       14.34092495       6.45097478       3.44727032       4.00000000       0.00746583      -0.01385111      -0.00025110
O        8.46151857       3.27725249       8.04363076       4.00000000       0.00790869      -0.01468584      -0.00051477
O       14.34092495       3.27725249       8.04363076       4.00000000       0.00798334      -0.01482753       0.00065295
O       11.68767729       8.19246553       8.04363076       4.00000000       0.00792187      -0.01451972       0.00019546
O       17.56708367       8.19246553       8.04363076       4.00000000       0.00803089      -0.01476059      -0.00038171
