40
Lattice="8.358825201595627 6.551420097441047e-10 1.1281257243577328e-14 -2.7862750678162196 7.8807759768499945 -1.1347578002287424e-09 -2.786275066889718 -3.9403879877698422 6.824952198242715" Properties=species:S:1:pos:R:3:spacegroup_kinds:I:1:forces:R:3 spacegroup="P 1" unit_cell=conventional occupancy="_JSON {\"0\": {\"In\": 1}, \"1\": {\"In\": 1}, \"2\": {\"In\": 1}, \"3\": {\"In\": 1}, \"4\": {\"In\": 1}, \"5\": {\"In\": 1}, \"6\": {\"In\": 1}, \"7\": {\"In\": 1}, \"8\": {\"In\": 1}, \"9\": {\"In\": 1}, \"10\": {\"In\": 1}, \"11\": {\"In\": 1}, \"12\": {\"In\": 1}, \"13\": {\"In\": 1}, \"14\": {\"In\": 1}, \"15\": {\"In\": 1}, \"16\": {\"O\": 1}, \"17\": {\"O\": 1}, \"18\": {\"O\": 1}, \"19\": {\"O\": 1}, \"20\": {\"O\": 1}, \"21\": {\"O\": 1}, \"22\": {\"O\": 1}, \"23\": {\"O\": 1}, \"24\": {\"O\": 1}, \"25\": {\"O\": 1}, \"26\": {\"O\": 1}, \"27\": {\"O\": 1}, \"28\": {\"O\": 1}, \"29\": {\"O\": 1}, \"30\": {\"O\": 1}, \"31\": {\"O\": 1}, \"32\": {\"O\": 1}, \"33\": {\"O\": 1}, \"34\": {\"O\": 1}, \"35\": {\"O\": 1}, \"36\": {\"O\": 1}, \"37\": {\"O\": 1}, \"38\": {\"O\": 1}, \"39\": {\"O\": 1}}" n_minim_iter=5 energy=-45141.109400128335 stress="-0.271261170493508 7.401123035718271e-14 1.584703641716476e-13 7.401123035718271e-14 -0.2712611704934953 -4.353527702872857e-14 1.584703641716476e-13 -4.353527702872857e-14 -0.2712611704934629" free_energy=-45141.109400128335 pbc="T T T"
In      -3.98076642       2.81482693       5.36200504        0      -0.00054961       0.00038863      -0.00067313
In       6.76704148       1.12556106       1.46294715        1       0.00054961      -0.00038863       0.00067313
In       1.19449135      -0.84463293       4.87542325        2       0.00054961      -0.00038863       0.00067313
In      -1.39313753      -1.97019399       3.41247610        3       0.00000000       0.00000000       0.00000000
In      -1.19449135       3.79992393       3.16918520        4      -0.00054961       0.00038863       0.00067313
In       4.37805878      -2.67436286       5.11871415        5      -0.00054961      -0.00077726       0.00000000
In      -1.19449135       1.26602513       5.11871415        6      -0.00054961      -0.00077726      -0.00000000
In      -1.59178372       6.61475085       1.70623805        7       0.00054961       0.00077726       0.00000000
In       3.98076641       0.14046407       3.65576699        8       0.00054961      -0.00038863      -0.00067313
In      -1.39313754       3.94038799      -0.00000000        9      -0.00000000       0.00000000       0.00000000
In       3.98076641       6.05104605       0.24329089       10       0.00054961      -0.00038863      -0.00067313
In      -1.19449135      -2.11065806       6.58166130       11      -0.00054961       0.00038863       0.00067313
In       3.98076641       2.67436286       1.70623805       12       0.00054961       0.00077726      -0.00000000
In       1.59178372       4.78502092       1.94952894       13      -0.00054961       0.00038863      -0.00067313
In       4.17941260       0.00000000      -0.00000000       14      -0.00000000       0.00000000      -0.00000000
In       1.39313753       1.97019400       3.41247610       15      -0.00000000      -0.00000000       0.00000000
O        0.79253791       3.93122855       3.75719197       16       0.00494006      -0.00132955       0.00298128
O       -1.99373716       3.25840342       4.95428851       17       0.00494006       0.00324664      -0.00033922
O       -0.38743752       2.12257805       0.09664356       18       0.00345414       0.00429734      -0.00215909
O       -0.79253791      -0.69114401       1.88652829       19      -0.00494006       0.00191709       0.00264206
O        3.73663125       4.68732919       1.78988473       20       0.00141427      -0.00316364       0.00480115
O        1.83591888       2.76377294       1.54181242       21      -0.00141427      -0.00573974      -0.00033922
O        1.83591888       5.86394424       0.24807231       22      -0.00141427       0.00257610       0.00514037
O       -2.13033162       5.56833556       3.50911966       23      -0.00290020      -0.00468904      -0.00215909
O        3.17371258       1.81780994       6.72830863       24      -0.00345414      -0.00429734       0.00215909
O        4.91660668      -1.62794757       3.31583253       25       0.00290020       0.00468904       0.00215909
O        5.95998765       3.11517880       1.62259136       26      -0.00345414       0.00027884      -0.00480115
O        3.44221852       2.22501299       3.66054841       27      -0.00290020       0.00047469       0.00514037
O        0.65594345       4.02781542       6.48023632       28      -0.00290020       0.00421435      -0.00298128
O        2.13033162      -0.08742743       0.34471588       29       0.00290020      -0.00421435       0.00298128
O       -3.17371259       0.82520919       5.20236083       30       0.00345414      -0.00027884       0.00480115
O        4.78001222       0.68198457       1.87066368       31      -0.00494006      -0.00324664       0.00033922
O        0.95035619       1.17661505       5.28313978       32       0.00141427       0.00573974       0.00033922
O        3.17371258      -0.99260075       5.29900439       33      -0.00345414       0.00401850       0.00264206
O        1.99373715       0.00915944       3.06776022       34      -0.00494006       0.00132955      -0.00298128
O        0.95035619      -1.92355624       6.57687988       35       0.00141427      -0.00257610      -0.00514037
O       -0.65594345       1.71537500       3.16440378       36       0.00290020      -0.00047469      -0.00514037
O       -0.95035619      -0.74694119       5.03506746       37      -0.00141427       0.00316364      -0.00480115
O       -0.38743752       4.93298874       1.52594780       38       0.00345414      -0.00401850      -0.00264206
O        3.57881298       4.63153200       4.93842390       39       0.00494006      -0.00191709      -0.00264206
