40
Lattice="8.986044171045593 7.043007656207683e-10 2.1717019937306863e-15 -2.995348057679218 8.47212369228282 -1.2198930266996233e-09 -2.9953480566831905 -4.236061845437103 7.337074342334195" Properties=species:S:1:pos:R:3:spacegroup_kinds:I:1:forces:R:3 spacegroup="P 1" unit_cell=conventional occupancy="_JSON {\"0\": {\"In\": 1}, \"1\": {\"In\": 1}, \"2\": {\"In\": 1}, \"3\": {\"In\": 1}, \"4\": {\"In\": 1}, \"5\": {\"In\": 1}, \"6\": {\"In\": 1}, \"7\": {\"In\": 1}, \"8\": {\"In\": 1}, \"9\": {\"In\": 1}, \"10\": {\"In\": 1}, \"11\": {\"In\": 1}, \"12\": {\"In\": 1}, \"13\": {\"In\": 1}, \"14\": {\"In\": 1}, \"15\": {\"In\": 1}, \"16\": {\"O\": 1}, \"17\": {\"O\": 1}, \"18\": {\"O\": 1}, \"19\": {\"O\": 1}, \"20\": {\"O\": 1}, \"21\": {\"O\": 1}, \"22\": {\"O\": 1}, \"23\": {\"O\": 1}, \"24\": {\"O\": 1}, \"25\": {\"O\": 1}, \"26\": {\"O\": 1}, \"27\": {\"O\": 1}, \"28\": {\"O\": 1}, \"29\": {\"O\": 1}, \"30\": {\"O\": 1}, \"31\": {\"O\": 1}, \"32\": {\"O\": 1}, \"33\": {\"O\": 1}, \"34\": {\"O\": 1}, \"35\": {\"O\": 1}, \"36\": {\"O\": 1}, \"37\": {\"O\": 1}, \"38\": {\"O\": 1}, \"39\": {\"O\": 1}}" n_minim_iter=1 energy=-45151.75014707173 stress="0.022551550380248562 -3.050252678428572e-14 -8.91688843543735e-14 -3.050252678428572e-14 0.02255155038049432 -1.2949601136226426e-13 -8.91688843543735e-14 -1.2949601136226426e-13 0.02255155038032592" free_energy=-45151.75014707173 pbc="T T T"
In      -4.29048417       3.03383045       5.75086303        0       0.01859352      -0.01314761       0.02277232
In       7.28583222       1.20223140       1.58621130        1      -0.01859352       0.01314761      -0.02277232
In       1.29513610      -0.91579952       5.25474847        2      -0.01859352       0.01314761      -0.02277232
In      -1.49767403      -2.11803092       3.66853717        3      -0.00000000      -0.00000000      -0.00000000
In      -1.29513611       4.09284591       3.42047989        4       0.01859352      -0.01314761      -0.02277232
In       4.69556001      -2.89061451       5.50280575        5       0.01859352       0.02629521      -0.00000000
In      -1.29513611       1.34544734       5.50280575        6       0.01859352       0.02629521       0.00000000
In      -1.70021195       7.12667636       1.83426858        7      -0.01859352      -0.02629521      -0.00000000
In       4.29048416       0.14321594       3.91659445        8      -0.01859352       0.01314761       0.02277232
In      -1.49767403       4.23606185      -0.00000000        9       0.00000000      -0.00000000       0.00000000
In       4.29048416       6.49730871       0.24805728       10      -0.01859352       0.01314761       0.02277232
In      -1.29513611      -2.26124686       7.08901706       11       0.01859352      -0.01314761      -0.02277232
In       4.29048416       2.89061451       1.83426858       12      -0.01859352      -0.02629521       0.00000000
In       1.70021195       5.15186137       2.08232586       13       0.01859352      -0.01314761       0.02277232
In       4.49302208       0.00000000      -0.00000000       14      -0.00000000      -0.00000000      -0.00000000
In       1.49767403       2.11803093       3.66853717       15       0.00000000      -0.00000000       0.00000000
O        0.88257770       4.23641639       3.99261179       16       0.02193206       0.01411791      -0.05249768
O       -2.11277036       3.45752598       5.34046140       17       0.02193206      -0.05252328       0.01402237
O       -0.43948383       2.27433372       0.05273615       18      -0.02889824      -0.01658083      -0.04823179
O       -0.88257770      -0.77818133       1.99599885       19      -0.02193206      -0.03840537      -0.03847531
O        3.96404353       5.04469041       1.94326270       20      -0.05683011       0.01055873       0.00975648
O        2.02665258       2.95746126       1.67192423       21       0.05683011      -0.00316999       0.01402237
O        2.02665258       6.32329100       0.27133847       22       0.05683011       0.01372872      -0.00426589
O       -2.29075701       6.01033086       3.72127332       23       0.00599981       0.03277247      -0.04823179
O        3.43483188       1.96172813       7.28433819       24       0.02889824       0.01658083       0.04823179
O        5.28610506      -1.77426901       3.61580102       25      -0.00599981      -0.03277247       0.04823179
O        6.43017994       3.30086863       1.72527446       26       0.02889824      -0.05006037      -0.00975648
O        3.69993911       2.33558273       3.93987564       27       0.00599981      -0.05815619      -0.00426589
O        0.70459105       4.36227196       7.01299971       28       0.00599981       0.02538372       0.05249768
O        2.29075701      -0.12621011       0.32407462       29      -0.00599981      -0.02538372      -0.05249768
O       -3.43483189       0.93519322       5.61179987       30      -0.02889824       0.05006037       0.00975648
O        5.10811841       0.77853587       1.99661294       31      -0.02193206       0.05252328      -0.01402237
O        0.96869548       1.27860059       5.66515011       32      -0.05683011       0.00316999      -0.01402237
O        3.43483188      -1.02653491       5.66453603       33       0.02889824       0.03347954      -0.03847531
O        2.11277035      -0.00035454       3.34446254       34      -0.02193206      -0.01411791       0.05249768
O        0.96869548      -2.08722915       7.06573587       35      -0.05683011      -0.01372872       0.00426589
O       -0.70459105       1.90047912       3.39719869       36      -0.00599981       0.05815619       0.00426589
O       -0.96869548      -0.80862856       5.39381164       37       0.05683011      -0.01055873      -0.00975648
O       -0.43948383       5.26259676       1.67253831       38      -0.02889824      -0.03347954       0.03847531
O        3.87792576       5.01424318       5.34107548       39       0.02193206       0.03840537       0.03847531
40
Lattice="8.986044171045592 7.043007656207685e-10 2.171701993730686e-15 -2.9953480576792177 8.472123692282818 -1.219893026699623e-09 -2.99534805668319 -4.236061845437102 7.337074342334197" Properties=species:S:1:pos:R:3:spacegroup_kinds:I:1:forces:R:3 spacegroup="P 1" unit_cell=conventional occupancy="_JSON {\"0\": {\"In\": 1}, \"1\": {\"In\": 1}, \"2\": {\"In\": 1}, \"3\": {\"In\": 1}, \"4\": {\"In\": 1}, \"5\": {\"In\": 1}, \"6\": {\"In\": 1}, \"7\": {\"In\": 1}, \"8\": {\"In\": 1}, \"9\": {\"In\": 1}, \"10\": {\"In\": 1}, \"11\": {\"In\": 1}, \"12\": {\"In\": 1}, \"13\": {\"In\": 1}, \"14\": {\"In\": 1}, \"15\": {\"In\": 1}, \"16\": {\"O\": 1}, \"17\": {\"O\": 1}, \"18\": {\"O\": 1}, \"19\": {\"O\": 1}, \"20\": {\"O\": 1}, \"21\": {\"O\": 1}, \"22\": {\"O\": 1}, \"23\": {\"O\": 1}, \"24\": {\"O\": 1}, \"25\": {\"O\": 1}, \"26\": {\"O\": 1}, \"27\": {\"O\": 1}, \"28\": {\"O\": 1}, \"29\": {\"O\": 1}, \"30\": {\"O\": 1}, \"31\": {\"O\": 1}, \"32\": {\"O\": 1}, \"33\": {\"O\": 1}, \"34\": {\"O\": 1}, \"35\": {\"O\": 1}, \"36\": {\"O\": 1}, \"37\": {\"O\": 1}, \"38\": {\"O\": 1}, \"39\": {\"O\": 1}}" n_minim_iter=2 energy=-45151.75452573857 stress="0.022047005566810468 4.532775058328281e-14 1.2232931384887235e-13 4.532775058328281e-14 0.022047005566671083 2.1929853892771717e-13 1.2232931384887235e-13 2.1929853892771717e-13 0.02204700556660357" free_energy=-45151.75452573857 pbc="T T T"
In      -4.28915606       3.03289133       5.75248963        0      -0.00135559       0.00095854      -0.00166025
In       7.28450411       1.20317052       1.58458471        1       0.00135559      -0.00095854       0.00166025
In       1.29380800      -0.91486041       5.25312188        2       0.00135559      -0.00095854       0.00166025
In      -1.49767403      -2.11803092       3.66853717        3      -0.00000000       0.00000000       0.00000000
In      -1.29380800       4.09190680       3.41885329        4      -0.00135559       0.00095854       0.00166025
In       4.69688812      -2.88873628       5.50280575        5      -0.00135559      -0.00191709      -0.00000000
In      -1.29380800       1.34732557       5.50280575        6      -0.00135559      -0.00191709      -0.00000000
In      -1.70154006       7.12479813       1.83426858        7       0.00135559       0.00191709       0.00000000
In       4.28915605       0.14415506       3.91822104        8       0.00135559      -0.00095854      -0.00166025
In      -1.49767403       4.23606185      -0.00000000        9      -0.00000000       0.00000000       0.00000000
In       4.28915605       6.49824782       0.24968387       10       0.00135559      -0.00095854      -0.00166025
In      -1.29380800      -2.26218597       7.08739046       11      -0.00135559       0.00095854       0.00166025
In       4.28915605       2.88873628       1.83426858       12       0.00135559       0.00191709      -0.00000000
In       1.70154006       5.15092226       2.08395246       13      -0.00135559       0.00095854      -0.00166025
In       4.49302208       0.00000000      -0.00000000       14      -0.00000000       0.00000000      -0.00000000
In       1.49767403       2.11803093       3.66853717       15       0.00000000       0.00000000      -0.00000000
O        0.88414428       4.23742481       3.98886196       16       0.02406638       0.01134734      -0.00944579
O       -2.11120378       3.45377431       5.34146300       17       0.02406638      -0.01385397      -0.00510419
O       -0.44154799       2.27314938       0.04929102       18       0.00565886      -0.00083788      -0.02764871
O       -0.88414428      -0.78092457       1.99325062       19      -0.02406638      -0.00250663      -0.01454998
O        3.95998424       5.04544461       1.94395959       20      -0.02108377      -0.01345636       0.01309873
O        2.03071187       2.95723483       1.67292583       21       0.02108377      -0.01807201      -0.00510419
O        2.03071187       6.32427162       0.27103376       22       0.02108377       0.00461565       0.01820291
O       -2.29032845       6.01267175       3.71782819       23       0.00267625      -0.00505593      -0.02764871
O        3.43689604       1.96291247       7.28778331       24      -0.00565886       0.00083788       0.02764871
O        5.28567650      -1.77660990       3.61924614       25      -0.00267625       0.00505593       0.02764871
O        6.43224410       3.29729289       1.72457757       26      -0.00565886      -0.02436342      -0.01309873
O        3.70036766       2.33142872       3.93957094       27       0.00267625      -0.02141652       0.01820291
O        0.70501961       4.36408508       7.01674955       28       0.00267625       0.02647245       0.00944579
O        2.29032845      -0.12802323       0.32032479       29      -0.00267625      -0.02647245      -0.00944579
O       -3.43689605       0.93876896       5.61249676       30       0.00565886       0.02436342       0.01309873
O        5.10655184       0.78228754       1.99561134       31      -0.02406638       0.01385397       0.00510419
O        0.96463618       1.27882702       5.66414851       32      -0.02108377       0.01807201       0.00510419
O        3.43689604      -1.02414351       5.66178779       33      -0.00565886       0.02352554      -0.01454998
O        2.11120378      -0.00136296       3.34821238       34      -0.02406638      -0.01134734       0.00944579
O        0.96463618      -2.08820977       7.06604057       35      -0.02108377      -0.00461565      -0.01820291
O       -0.70501961       1.90463313       3.39750340       36      -0.00267625       0.02141652      -0.01820292
O       -0.96463619      -0.80938276       5.39311474       37       0.02108377       0.01345636      -0.01309873
O       -0.44154799       5.26020536       1.67528655       38       0.00565886      -0.02352554       0.01454998
O        3.87949233       5.01698642       5.34382372       39       0.02406638       0.00250663       0.01454998
40
Lattice="8.98604417104559 7.043007656207685e-10 2.171701993730685e-15 -2.9953480576792164 8.472123692282816 -1.2198930266996224e-09 -2.9953480566831887 -4.236061845437101 7.337074342334195" Properties=species:S:1:pos:R:3:spacegroup_kinds:I:1:forces:R:3 spacegroup="P 1" unit_cell=conventional occupancy="_JSON {\"0\": {\"In\": 1}, \"1\": {\"In\": 1}, \"2\": {\"In\": 1}, \"3\": {\"In\": 1}, \"4\": {\"In\": 1}, \"5\": {\"In\": 1}, \"6\": {\"In\": 1}, \"7\": {\"In\": 1}, \"8\": {\"In\": 1}, \"9\": {\"In\": 1}, \"10\": {\"In\": 1}, \"11\": {\"In\": 1}, \"12\": {\"In\": 1}, \"13\": {\"In\": 1}, \"14\": {\"In\": 1}, \"15\": {\"In\": 1}, \"16\": {\"O\": 1}, \"17\": {\"O\": 1}, \"18\": {\"O\": 1}, \"19\": {\"O\": 1}, \"20\": {\"O\": 1}, \"21\": {\"O\": 1}, \"22\": {\"O\": 1}, \"23\": {\"O\": 1}, \"24\": {\"O\": 1}, \"25\": {\"O\": 1}, \"26\": {\"O\": 1}, \"27\": {\"O\": 1}, \"28\": {\"O\": 1}, \"29\": {\"O\": 1}, \"30\": {\"O\": 1}, \"31\": {\"O\": 1}, \"32\": {\"O\": 1}, \"33\": {\"O\": 1}, \"34\": {\"O\": 1}, \"35\": {\"O\": 1}, \"36\": {\"O\": 1}, \"37\": {\"O\": 1}, \"38\": {\"O\": 1}, \"39\": {\"O\": 1}}" n_minim_iter=3 energy=-45151.7552228538 stress="0.021810026629358957 -6.946264011745847e-14 1.1640272248501874e-13 -6.946264011745847e-14 0.02181002662930248 1.4080779982975299e-13 1.1640272248501874e-13 1.4080779982975299e-13 0.021810026629299387" free_energy=-45151.7552228538 pbc="T T T"
In      -4.28868750       3.03256001       5.75306349        0      -0.00808467       0.00571672      -0.00990165
In       7.28403555       1.20350184       1.58401085        1       0.00808467      -0.00571672       0.00990165
In       1.29333944      -0.91452909       5.25254802        2       0.00808467      -0.00571672       0.00990165
In      -1.49767403      -2.11803092       3.66853717        3       0.00000000       0.00000000       0.00000000
In      -1.29333944       4.09157548       3.41827943        4      -0.00808467       0.00571672       0.00990165
In       4.69735667      -2.88807364       5.50280575        5      -0.00808467      -0.01143344      -0.00000000
In      -1.29333944       1.34798821       5.50280575        6      -0.00808467      -0.01143344      -0.00000000
In      -1.70200862       7.12413549       1.83426858        7       0.00808467       0.01143344      -0.00000000
In       4.28868750       0.14448637       3.91879491        8       0.00808467      -0.00571672      -0.00990165
In      -1.49767403       4.23606185      -0.00000000        9      -0.00000000       0.00000000       0.00000000
In       4.28868750       6.49857914       0.25025773       10       0.00808467      -0.00571672      -0.00990165
In      -1.29333944      -2.26251729       7.08681660       11      -0.00808467       0.00571672       0.00990165
In       4.28868750       2.88807364       1.83426858       12       0.00808467       0.01143344       0.00000000
In       1.70200861       5.15059094       2.08452632       13      -0.00808467       0.00571672      -0.00990165
In       4.49302208       0.00000000      -0.00000000       14       0.00000000       0.00000000      -0.00000000
In       1.49767403       2.11803093       3.66853717       15      -0.00000000       0.00000000       0.00000000
O        0.88521322       4.23802954       3.98727203       16       0.02334311       0.00746132       0.00780406
O       -2.11013484       3.45209503       5.34173425       17       0.02334311       0.00302785      -0.01036372
O       -0.44220478       2.27269037       0.04744870       18       0.01767032       0.00703912      -0.01731144
O       -0.88521322      -0.78199913       1.99193195       19      -0.02334311       0.01048917      -0.00255966
O        3.95804468       5.04545550       1.94448324       20      -0.00492635      -0.02048393       0.01475177
O        2.03265143       2.95678679       1.67319708       21       0.00492635      -0.02301738      -0.01036372
O        2.03265143       6.32473056       0.27128616       22       0.00492635       0.00253344       0.02511549
O       -2.29011463       6.01344397       3.71598587       23      -0.00074644      -0.01900611      -0.01731144
O        3.43755283       1.96337148       7.28962563       24      -0.01767032      -0.00703912       0.01731144
O        5.28546268      -1.77738212       3.62108846       25       0.00074644       0.01900611       0.01731144
O        6.43290089       3.29546789       1.72405392       26      -0.01767032      -0.01147258      -0.01475177
O        3.70058149       2.32944711       3.93982333       27      -0.00074644      -0.00548909       0.02511549
O        0.70523343       4.36529446       7.01833948       28      -0.00074644       0.02449520      -0.00780406
O        2.29011462      -0.12923261       0.31873486       29       0.00074644      -0.02449520       0.00780406
O       -3.43755283       0.94059396       5.61302041       30       0.01767032       0.01147258       0.01475177
O        5.10548289       0.78396682       1.99534008       31      -0.02334311      -0.00302785       0.01036372
O        0.96269663       1.27927506       5.66387725       32      -0.00492635       0.02301738       0.01036372
O        3.43755283      -1.02277752       5.66046912       33      -0.01767032       0.01851170      -0.00255966
O        2.11013484      -0.00196769       3.34980230       34      -0.02334311      -0.00746132      -0.00780406
O        0.96269663      -2.08866871       7.06578818       35      -0.00492635      -0.00253344      -0.02511549
O       -0.70523344       1.90661474       3.39725101       36       0.00074644       0.00548909      -0.02511549
O       -0.96269663      -0.80939365       5.39259109       37       0.00492635       0.02048393      -0.01475177
O       -0.44220478       5.25883937       1.67660522       38       0.01767032      -0.01851170       0.00255966
O        3.88056127       5.01806098       5.34514239       39       0.02334311      -0.01048917       0.00255966
40
Lattice="8.98604417104559 7.043007656207685e-10 2.1717019937306796e-15 -2.995348057679216 8.472123692282814 -1.2198930266996222e-09 -2.9953480566831883 -4.2360618454371 7.337074342334195" Properties=species:S:1:pos:R:3:spacegroup_kinds:I:1:forces:R:3 spacegroup="P 1" unit_cell=conventional occupancy="_JSON {\"0\": {\"In\": 1}, \"1\": {\"In\": 1}, \"2\": {\"In\": 1}, \"3\": {\"In\": 1}, \"4\": {\"In\": 1}, \"5\": {\"In\": 1}, \"6\": {\"In\": 1}, \"7\": {\"In\": 1}, \"8\": {\"In\": 1}, \"9\": {\"In\": 1}, \"10\": {\"In\": 1}, \"11\": {\"In\": 1}, \"12\": {\"In\": 1}, \"13\": {\"In\": 1}, \"14\": {\"In\": 1}, \"15\": {\"In\": 1}, \"16\": {\"O\": 1}, \"17\": {\"O\": 1}, \"18\": {\"O\": 1}, \"19\": {\"O\": 1}, \"20\": {\"O\": 1}, \"21\": {\"O\": 1}, \"22\": {\"O\": 1}, \"23\": {\"O\": 1}, \"24\": {\"O\": 1}, \"25\": {\"O\": 1}, \"26\": {\"O\": 1}, \"27\": {\"O\": 1}, \"28\": {\"O\": 1}, \"29\": {\"O\": 1}, \"30\": {\"O\": 1}, \"31\": {\"O\": 1}, \"32\": {\"O\": 1}, \"33\": {\"O\": 1}, \"34\": {\"O\": 1}, \"35\": {\"O\": 1}, \"36\": {\"O\": 1}, \"37\": {\"O\": 1}, \"38\": {\"O\": 1}, \"39\": {\"O\": 1}}" n_minim_iter=4 energy=-45151.755923131524 stress="0.02148962794634904 -7.485556397135365e-15 -4.559398806171479e-14 -7.485556397135365e-15 0.021489627946245114 -1.0768103511532826e-13 -4.559398806171479e-14 -1.0768103511532826e-13 0.02148962794639828" free_energy=-45151.755923131524 pbc="T T T"
In      -4.28851314       3.03243672       5.75327704        0      -0.00860224       0.00608270      -0.01053555
In       7.28386119       1.20362513       1.58379729        1       0.00860224      -0.00608270       0.01053555
In       1.29316508      -0.91440579       5.25233446        2       0.00860224      -0.00608270       0.01053555
In      -1.49767403      -2.11803092       3.66853717        3       0.00000000       0.00000000       0.00000000
In      -1.29316508       4.09145218       3.41806588        4      -0.00860224       0.00608270       0.01053555
In       4.69753104      -2.88782705       5.50280575        5      -0.00860224      -0.01216541       0.00000000
In      -1.29316508       1.34823480       5.50280575        6      -0.00860224      -0.01216541      -0.00000000
In      -1.70218298       7.12388890       1.83426858        7       0.00860224       0.01216541      -0.00000000
In       4.28851313       0.14460967       3.91900846        8       0.00860224      -0.00608270      -0.01053555
In      -1.49767403       4.23606185      -0.00000000        9      -0.00000000      -0.00000000       0.00000000
In       4.28851313       6.49870244       0.25047129       10       0.00860224      -0.00608270      -0.01053555
In      -1.29316508      -2.26264059       7.08660305       11      -0.00860224       0.00608270       0.01053555
In       4.28851313       2.88782705       1.83426858       12       0.00860224       0.01216541      -0.00000000
In       1.70218298       5.15046764       2.08473987       13      -0.00860224       0.00608270      -0.01053555
In       4.49302208       0.00000000      -0.00000000       14       0.00000000       0.00000000      -0.00000000
In       1.49767403       2.11803093       3.66853717       15       0.00000000       0.00000000       0.00000000
O        0.88798247       4.23925675       3.98557817       16       0.01668650      -0.00491611       0.02251444
O       -2.10736559       3.45001450       5.34151839       17       0.01668650       0.02195613      -0.00699974
O       -0.44208621       2.27248416       0.04398642       18       0.02162765       0.01846221      -0.00094809
O       -0.88798247      -0.78285244       1.99002222       19      -0.01668650       0.01704002       0.01551470
O        3.95516006       5.04430987       1.94603580       20       0.01513827      -0.01758740       0.01646279
O        2.03553605       2.95486942       1.67298122       21      -0.01513827      -0.02305089      -0.00699974
O        2.03553605       6.32550230       0.27305458       22      -0.01513827       0.00546349       0.02346253
O       -2.28988068       6.01340092       3.71252359       23      -0.01019712      -0.02654481      -0.00094809
O        3.43743426       1.96357769       7.29308791       24      -0.02162765      -0.01846221       0.00094809
O        5.28522874      -1.77733907       3.62455074       25       0.01019712       0.02654481       0.00094809
O        6.43278232       3.29236637       1.72250137       26      -0.02162765       0.00841003      -0.01646279
O        3.70081543       2.32647021       3.94159175       27      -0.01019712       0.01245134       0.02346253
O        0.70546737       4.36831441       7.02003333       28      -0.01019712       0.01409348      -0.02251444
O        2.28988068      -0.13225256       0.31704100       29       0.01019712      -0.01409348       0.02251444
O       -3.43743427       0.94369548       5.61457297       30       0.02162765      -0.00841003       0.01646279
O        5.10271364       0.78604735       1.99555595       31      -0.01668650      -0.02195613       0.00699974
O        0.95981200       1.28119243       5.66409312       32       0.01513827       0.02305089       0.00699974
O        3.43743426      -1.01988220       5.65855939       33      -0.02162765       0.01005218       0.01551470
O        2.10736558      -0.00319490       3.35149616       34      -0.01668650       0.00491611      -0.02251444
O        0.95981200      -2.08944045       7.06401976       35       0.01513827      -0.00546349      -0.02346253
O       -0.70546738       1.90959164       3.39548259       36       0.01019712      -0.01245134      -0.02346253
O       -0.95981200      -0.80824802       5.39103854       37      -0.01513827       0.01758740      -0.01646279
O       -0.44208621       5.25594405       1.67851494       38       0.02162765      -0.01005218      -0.01551470
O        3.88333053       5.01891430       5.34705211       39       0.01668650      -0.01704002      -0.01551470
40
Lattice="8.986044171045588 7.043007656207685e-10 2.1717019937306776e-15 -2.9953480576792164 8.472123692282812 -1.2198930266996224e-09 -2.9953480566831887 -4.236061845437099 7.337074342334195" Properties=species:S:1:pos:R:3:spacegroup_kinds:I:1:forces:R:3 spacegroup="P 1" unit_cell=conventional occupancy="_JSON {\"0\": {\"In\": 1}, \"1\": {\"In\": 1}, \"2\": {\"In\": 1}, \"3\": {\"In\": 1}, \"4\": {\"In\": 1}, \"5\": {\"In\": 1}, \"6\": {\"In\": 1}, \"7\": {\"In\": 1}, \"8\": {\"In\": 1}, \"9\": {\"In\": 1}, \"10\": {\"In\": 1}, \"11\": {\"In\": 1}, \"12\": {\"In\": 1}, \"13\": {\"In\": 1}, \"14\": {\"In\": 1}, \"15\": {\"In\": 1}, \"16\": {\"O\": 1}, \"17\": {\"O\": 1}, \"18\": {\"O\": 1}, \"19\": {\"O\": 1}, \"20\": {\"O\": 1}, \"21\": {\"O\": 1}, \"22\": {\"O\": 1}, \"23\": {\"O\": 1}, \"24\": {\"O\": 1}, \"25\": {\"O\": 1}, \"26\": {\"O\": 1}, \"27\": {\"O\": 1}, \"28\": {\"O\": 1}, \"29\": {\"O\": 1}, \"30\": {\"O\": 1}, \"31\": {\"O\": 1}, \"32\": {\"O\": 1}, \"33\": {\"O\": 1}, \"34\": {\"O\": 1}, \"35\": {\"O\": 1}, \"36\": {\"O\": 1}, \"37\": {\"O\": 1}, \"38\": {\"O\": 1}, \"39\": {\"O\": 1}}" n_minim_iter=5 energy=-45151.75687107006 stress="0.021565586747070924 7.676911479151272e-14 2.2820497264768984e-15 7.676911479151272e-14 0.02156558674703477 4.50968921799991e-15 2.2820497264768984e-15 4.50968921799991e-15 0.021565586747073807" free_energy=-45151.75687107006 pbc="T T T"
In      -4.28939277       3.03305872       5.75219971        0       0.00898877      -0.00635602       0.01100895
In       7.28474083       1.20300313       1.58487462        1      -0.00898877       0.00635602      -0.01100895
In       1.29404471      -0.91502779       5.25341180        2      -0.00898877       0.00635602      -0.01100895
In      -1.49767403      -2.11803092       3.66853717        3      -0.00000000       0.00000000      -0.00000000
In      -1.29404472       4.09207418       3.41914321        4       0.00898877      -0.00635602      -0.01100895
In       4.69665140      -2.88907104       5.50280575        5       0.00898877       0.01271204      -0.00000000
In      -1.29404472       1.34699080       5.50280575        6       0.00898877       0.01271204      -0.00000000
In      -1.70130335       7.12513289       1.83426858        7      -0.00898877      -0.01271204       0.00000000
In       4.28939277       0.14398767       3.91793113        8      -0.00898877       0.00635602       0.01100895
In      -1.49767403       4.23606185      -0.00000000        9       0.00000000       0.00000000      -0.00000000
In       4.28939277       6.49808044       0.24939396       10      -0.00898877       0.00635602       0.01100895
In      -1.29404472      -2.26201859       7.08768038       11       0.00898877      -0.00635602      -0.01100895
In       4.28939277       2.88907105       1.83426858       12      -0.00898877      -0.01271204      -0.00000000
In       1.70130334       5.15108964       2.08366254       13       0.00898877      -0.00635602       0.01100895
In       4.49302208       0.00000000      -0.00000000       14      -0.00000000       0.00000000      -0.00000000
In       1.49767403       2.11803093       3.66853717       15      -0.00000000       0.00000000       0.00000000
O        0.89031537       4.23961790       3.98693374       16       0.00640953      -0.01371477       0.00133058
O       -2.10503269       3.45100788       5.34052784       17       0.00640953       0.00800970       0.01121205
O       -0.44003151       2.27367426       0.04265515       18      -0.00324228       0.01483456      -0.00060896
O       -0.89031537      -0.78149792       1.99038724       19      -0.00640953      -0.00570507       0.01254263
O        3.95531899       5.04218673       1.94773209       20       0.00541511       0.00535349       0.01315158
O        2.03537712       2.95233881       1.67199067       21      -0.00541511      -0.00871286       0.01121205
O        2.03537712       6.32590976       0.27574142       22      -0.00541511       0.01406635       0.00193953
O       -2.29031782       6.01106704       3.71119232       23      -0.01506692      -0.00188800      -0.00060896
O        3.43537957       1.96238759       7.29441919       24       0.00324228      -0.01483456       0.00060896
O        5.28566588      -1.77500519       3.62588202       25       0.01506692       0.00188800       0.00060896
O        6.43072762       3.29180850       1.72080507       26       0.00324228       0.00688991      -0.01315158
O        3.70037829       2.32648423       3.94427859       27      -0.01506692       0.00041663       0.00193953
O        0.70503023       4.37063427       7.01867777       28      -0.01506692       0.00147137      -0.00133058
O        2.29031782      -0.13457242       0.31839657       29       0.01506692      -0.00147137       0.00133058
O       -3.43537957       0.94425335       5.61626926       30      -0.00324228      -0.00688991       0.01315158
O        5.10038074       0.78505397       1.99654650       31      -0.00640953      -0.00800970      -0.01121205
O        0.95997094       1.28372304       5.66508367       32       0.00541511       0.00871286      -0.01121205
O        3.43537957      -1.01813423       5.65892441       33       0.00324228       0.00794465       0.01254263
O        2.10503268      -0.00355605       3.35014060       34      -0.00640953       0.01371477      -0.00133058
O        0.95997094      -2.08984791       7.06133292       35       0.00541511      -0.01406635      -0.00193953
O       -0.70503024       1.90957762       3.39279574       36       0.01506692      -0.00041663      -0.00193953
O       -0.95997094      -0.80612488       5.38934224       37      -0.00541511      -0.00535349      -0.01315158
O       -0.44003151       5.25419608       1.67814992       38      -0.00324228      -0.00794465      -0.01254263
O        3.88566343       5.01755977       5.34668709       39       0.00640953       0.00570507      -0.01254263
40