40
Lattice="8.186428908789953 6.41627622479176e-10 1.76216187803854e-14 -2.7288096368682497 7.7182391932620735 -1.1113507930748995e-09 -2.7288096359608653 -3.8591195959894007 6.684191214590558" Properties=species:S:1:pos:R:3:spacegroup_kinds:I:1:forces:R:3 spacegroup="P 1" unit_cell=conventional occupancy="_JSON {\"0\": {\"In\": 1}, \"1\": {\"In\": 1}, \"2\": {\"In\": 1}, \"3\": {\"In\": 1}, \"4\": {\"In\": 1}, \"5\": {\"In\": 1}, \"6\": {\"In\": 1}, \"7\": {\"In\": 1}, \"8\": {\"In\": 1}, \"9\": {\"In\": 1}, \"10\": {\"In\": 1}, \"11\": {\"In\": 1}, \"12\": {\"In\": 1}, \"13\": {\"In\": 1}, \"14\": {\"In\": 1}, \"15\": {\"In\": 1}, \"16\": {\"O\": 1}, \"17\": {\"O\": 1}, \"18\": {\"O\": 1}, \"19\": {\"O\": 1}, \"20\": {\"O\": 1}, \"21\": {\"O\": 1}, \"22\": {\"O\": 1}, \"23\": {\"O\": 1}, \"24\": {\"O\": 1}, \"25\": {\"O\": 1}, \"26\": {\"O\": 1}, \"27\": {\"O\": 1}, \"28\": {\"O\": 1}, \"29\": {\"O\": 1}, \"30\": {\"O\": 1}, \"31\": {\"O\": 1}, \"32\": {\"O\": 1}, \"33\": {\"O\": 1}, \"34\": {\"O\": 1}, \"35\": {\"O\": 1}, \"36\": {\"O\": 1}, \"37\": {\"O\": 1}, \"38\": {\"O\": 1}, \"39\": {\"O\": 1}}" n_minim_iter=1 energy=-45131.82758004234 stress="-0.4188745522788195 5.1044465425589354e-14 5.6394752300554695e-14 5.1044465425589354e-14 -0.41887455227903675 -4.993566033353394e-15 5.6394752300554695e-14 -4.993566033353394e-15 -0.4188745522791627" free_energy=-45131.82758004234 pbc="T T T"
In      -3.89442697       2.75377572       5.25660736        0      -0.02218804       0.01568932      -0.02717469
In       6.62323660       1.10534388       1.42758385        1       0.02218804      -0.01568932       0.02717469
In       1.16561733      -0.82421592       4.76967945        2       0.02218804      -0.01568932       0.02717469
In      -1.36440482      -1.92955980       3.34209561        3      -0.00000000      -0.00000000      -0.00000000
In      -1.16561733       3.71855562       3.09863165        4      -0.02218804       0.01568932       0.02717469
In       4.29200194      -2.61321174       5.01314341        5      -0.02218804      -0.03137863       0.00000000
In      -1.16561733       1.24590786       5.01314341        6      -0.02218804      -0.03137863       0.00000000
In      -1.56319231       6.47233134       1.67104780        7       0.02218804       0.03137863      -0.00000000
In       3.89442697       0.14056398       3.58555956        8       0.02218804      -0.01568932      -0.02717469
In      -1.36440482       3.85911960      -0.00000000        9       0.00000000      -0.00000000      -0.00000000
In       3.89442697       5.92924338       0.24346395       10       0.02218804      -0.01568932      -0.02717469
In      -1.16561733      -2.07012378       6.44072726       11      -0.02218804       0.01568932       0.02717469
In       3.89442697       2.61321174       1.67104780       12       0.02218804       0.03137863      -0.00000000
In       1.56319230       4.68333552       1.91451176       13      -0.02218804       0.01568932      -0.02717469
In       4.09321445       0.00000000      -0.00000000       14      -0.00000000      -0.00000000       0.00000000
In       1.36440482       1.92955980       3.34209560       15       0.00000000      -0.00000000      -0.00000000
O        0.77579170       3.84927312       3.68814453       16      -0.00353533       0.01807496       0.15039752
O       -1.95301794       3.19895010       4.84864624       17      -0.00353533       0.12121059      -0.09085213
O       -0.37309989       2.08177933       0.09945156       18       0.13014124       0.02668699       0.07286755
O       -0.77579170      -0.67001597       1.85259956       19       0.00353533       0.13928555       0.05954539
O        3.66700505       4.58655396       1.75314800       20       0.11545689      -0.09721545      -0.01332216
O        1.79061421       2.70456607       1.50655063       21      -0.11545689      -0.03707039      -0.09085213
O        1.79061421       5.74110748       0.24659736       22      -0.11545689      -0.06014506       0.07752997
O       -2.08708700       5.44651490       3.44154717       23       0.01821968      -0.13159400       0.07286755
O        3.10190952       1.77734027       6.58473965       24      -0.13014124      -0.02668699      -0.07286755
O        4.81589664      -1.58739530       3.24264404       25      -0.01821968       0.13159400      -0.07286755
O        5.83071916       3.05657704       1.58894760       26      -0.13014124       0.07644865       0.01332216
O        3.37053227       2.18676963       3.58869297       27       0.01821968       0.12890215       0.07752997
O        0.64172263       3.94407427       6.33814228       28       0.01821968       0.00269185      -0.15039752
O        2.08708700      -0.08495467       0.34604893       29      -0.01821968      -0.00269185       0.15039752
O       -3.10190952       0.80254256       5.09524361       30       0.13014124      -0.07644865      -0.01332216
O        4.68182757       0.66016950       1.83554497       31       0.00353533      -0.12121059       0.09085213
O        0.93819542       1.15455353       5.17764058       32       0.11545689       0.03707039       0.09085213
O        3.10190952      -0.97479771       5.19469517       33      -0.13014124      -0.04976165       0.05954539
O        1.95301794       0.00984648       2.99604668       34       0.00353533      -0.01807496      -0.15039752
O        0.93819542      -1.88198788       6.43759385       35       0.11545689       0.06014506      -0.07752997
O       -0.64172264       1.67234997       3.09549824       36      -0.01821968      -0.12890215      -0.07752997
O       -0.93819542      -0.72743436       4.93104321       37      -0.11545689       0.09721545       0.01332216
O       -0.37309989       4.83391731       1.48949604       38       0.13014124       0.04976165      -0.05954539
O        3.50460133       4.52913557       4.83159165       39      -0.00353533      -0.13928555      -0.05954539
40
Lattice="8.186428908789953 6.416276224791762e-10 1.7621618780385406e-14 -2.7288096368682506 7.718239193262075 -1.1113507930748997e-09 -2.7288096359608662 -3.8591195959894016 6.684191214590559" Properties=species:S:1:pos:R:3:spacegroup_kinds:I:1:forces:R:3 spacegroup="P 1" unit_cell=conventional occupancy="_JSON {\"0\": {\"In\": 1}, \"1\": {\"In\": 1}, \"2\": {\"In\": 1}, \"3\": {\"In\": 1}, \"4\": {\"In\": 1}, \"5\": {\"In\": 1}, \"6\": {\"In\": 1}, \"7\": {\"In\": 1}, \"8\": {\"In\": 1}, \"9\": {\"In\": 1}, \"10\": {\"In\": 1}, \"11\": {\"In\": 1}, \"12\": {\"In\": 1}, \"13\": {\"In\": 1}, \"14\": {\"In\": 1}, \"15\": {\"In\": 1}, \"16\": {\"O\": 1}, \"17\": {\"O\": 1}, \"18\": {\"O\": 1}, \"19\": {\"O\": 1}, \"20\": {\"O\": 1}, \"21\": {\"O\": 1}, \"22\": {\"O\": 1}, \"23\": {\"O\": 1}, \"24\": {\"O\": 1}, \"25\": {\"O\": 1}, \"26\": {\"O\": 1}, \"27\": {\"O\": 1}, \"28\": {\"O\": 1}, \"29\": {\"O\": 1}, \"30\": {\"O\": 1}, \"31\": {\"O\": 1}, \"32\": {\"O\": 1}, \"33\": {\"O\": 1}, \"34\": {\"O\": 1}, \"35\": {\"O\": 1}, \"36\": {\"O\": 1}, \"37\": {\"O\": 1}, \"38\": {\"O\": 1}, \"39\": {\"O\": 1}}" n_minim_iter=2 energy=-45131.83338655948 stress="-0.4182646544641 -5.025268710949853e-14 6.777617128244916e-14 -5.025268710949853e-14 -0.41826465446433747 1.5148306949442467e-13 6.777617128244916e-14 1.5148306949442467e-13 -0.41826465446410843" free_energy=-45131.83338655948 pbc="T T T"
In      -3.89474394       2.75399985       5.25621915        0       0.02887596      -0.02041839       0.03536569
In       6.62355357       1.10511975       1.42797206        1      -0.02887596       0.02041839      -0.03536569
In       1.16593430      -0.82444005       4.77006766        2      -0.02887596       0.02041839      -0.03536569
In      -1.36440482      -1.92955980       3.34209561        3       0.00000000       0.00000000      -0.00000000
In      -1.16593431       3.71877975       3.09901986        4       0.02887596      -0.02041839      -0.03536569
In       4.29168497      -2.61366000       5.01314341        5       0.02887596       0.04083678      -0.00000000
In      -1.16593431       1.24545959       5.01314341        6       0.02887596       0.04083678      -0.00000000
In      -1.56287533       6.47277960       1.67104780        7      -0.02887596      -0.04083678       0.00000000
In       3.89474394       0.14033985       3.58517135        8      -0.02887596       0.02041839       0.03536569
In      -1.36440482       3.85911960      -0.00000000        9       0.00000000       0.00000000       0.00000000
In       3.89474394       5.92901924       0.24307574       10      -0.02887596       0.02041839       0.03536569
In      -1.16593431      -2.06989964       6.44111547       11       0.02887596      -0.02041839      -0.03536569
In       3.89474394       2.61366001       1.67104780       12      -0.02887596      -0.04083678       0.00000000
In       1.56287533       4.68355965       1.91412355       13       0.02887596      -0.02041839       0.03536569
In       4.09321445       0.00000000      -0.00000000       14      -0.00000000       0.00000000       0.00000000
In       1.36440482       1.92955980       3.34209560       15      -0.00000000      -0.00000000      -0.00000000
O        0.77574119       3.84953134       3.69029307       16      -0.02113992      -0.01510374       0.07537053
O       -1.95306845       3.20068168       4.84734835       17      -0.02113992       0.07282466      -0.02460504
O       -0.37124073       2.08216057       0.10049253       18       0.04737317       0.02437860       0.05930601
O       -0.77574119      -0.66802618       1.85345021       19       0.02113992       0.05772092       0.05076549
O        3.66865444       4.58516517       1.75295768       20       0.07570639      -0.02348058      -0.00854052
O        1.78896483       2.70403649       1.50525275       21      -0.07570639      -0.00434398      -0.02460504
O        1.78896483       5.74024827       0.24770493       22      -0.07570639      -0.01913660       0.01606452
O       -2.08682672       5.44463498       3.44258813       23      -0.00719331      -0.05279005       0.05930601
O        3.10005036       1.77695903       6.58369868       24      -0.04737317      -0.02437860      -0.05930601
O        4.81563636      -1.58551538       3.24160308       25       0.00719331       0.05279005      -0.05930601
O        5.82886000       3.05766917       1.58913792       26      -0.04737317       0.06354981       0.00854052
O        3.37079255       2.18861109       3.58980054       27      -0.00719331       0.07775553       0.01606452
O        0.64198291       3.94411272       6.33599375       28      -0.00719331      -0.02496549      -0.07537053
O        2.08682672      -0.08499312       0.34819746       29       0.00719331       0.02496549       0.07537053
O       -3.10005036       0.80145043       5.09505329       30       0.04737317      -0.06354981      -0.00854052
O        4.68187808       0.65843792       1.83684286       31       0.02113992      -0.07282466       0.02460504
O        0.93984480       1.15508311       5.17893846       32       0.07570639       0.00434398       0.02460504
O        3.10005036      -0.97550859       5.19554582       33      -0.04737317      -0.03917121       0.05076549
O        1.95306844       0.00958826       2.99389814       34       0.02113992       0.01510374      -0.07537053
O        0.93984480      -1.88112867       6.43648628       35       0.07570639       0.01913660      -0.01606452
O       -0.64198292       1.67050851       3.09439067       36       0.00719331      -0.07775553      -0.01606452
O       -0.93984481      -0.72604557       4.93123353       37      -0.07570639       0.02348058       0.00854052
O       -0.37124073       4.83462819       1.48864539       38       0.04737317       0.03917121      -0.05076549
O        3.50455083       4.52714578       4.83074100       39      -0.02113992      -0.05772092      -0.05076549
40
Lattice="8.186428908789962 6.416276224791769e-10 1.7621618780385438e-14 -2.7288096368682537 7.718239193262083 -1.1113507930749011e-09 -2.7288096359608693 -3.8591195959894056 6.684191214590567" Properties=species:S:1:pos:R:3:spacegroup_kinds:I:1:forces:R:3 spacegroup="P 1" unit_cell=conventional occupancy="_JSON {\"0\": {\"In\": 1}, \"1\": {\"In\": 1}, \"2\": {\"In\": 1}, \"3\": {\"In\": 1}, \"4\": {\"In\": 1}, \"5\": {\"In\": 1}, \"6\": {\"In\": 1}, \"7\": {\"In\": 1}, \"8\": {\"In\": 1}, \"9\": {\"In\": 1}, \"10\": {\"In\": 1}, \"11\": {\"In\": 1}, \"12\": {\"In\": 1}, \"13\": {\"In\": 1}, \"14\": {\"In\": 1}, \"15\": {\"In\": 1}, \"16\": {\"O\": 1}, \"17\": {\"O\": 1}, \"18\": {\"O\": 1}, \"19\": {\"O\": 1}, \"20\": {\"O\": 1}, \"21\": {\"O\": 1}, \"22\": {\"O\": 1}, \"23\": {\"O\": 1}, \"24\": {\"O\": 1}, \"25\": {\"O\": 1}, \"26\": {\"O\": 1}, \"27\": {\"O\": 1}, \"28\": {\"O\": 1}, \"29\": {\"O\": 1}, \"30\": {\"O\": 1}, \"31\": {\"O\": 1}, \"32\": {\"O\": 1}, \"33\": {\"O\": 1}, \"34\": {\"O\": 1}, \"35\": {\"O\": 1}, \"36\": {\"O\": 1}, \"37\": {\"O\": 1}, \"38\": {\"O\": 1}, \"39\": {\"O\": 1}}" n_minim_iter=3 energy=-45131.83773931605 stress="-0.4175825994324477 3.73686768743586e-14 -8.558145703403482e-15 3.73686768743586e-14 -0.41758259943288656 -1.755332044083781e-13 -8.558145703403482e-15 -1.755332044083781e-13 -0.41758259943264225" free_energy=-45131.83773931605 pbc="T T T"
In      -3.89415394       2.75358266       5.25694176        0       0.05607574      -0.03965154       0.06867848
In       6.62296357       1.10553694       1.42724945        1      -0.05607574       0.03965154      -0.06867848
In       1.16534430      -0.82402285       4.76934506        2      -0.05607574       0.03965154      -0.06867848
In      -1.36440482      -1.92955980       3.34209561        3       0.00000000      -0.00000000       0.00000000
In      -1.16534430       3.71836255       3.09829725        4       0.05607574      -0.03965154      -0.06867847
In       4.29227497      -2.61282561       5.01314341        5       0.05607574       0.07930307       0.00000000
In      -1.16534430       1.24629399       5.01314341        6       0.05607574       0.07930307      -0.00000000
In      -1.56346534       6.47194521       1.67104780        7      -0.05607574      -0.07930307       0.00000000
In       3.89415393       0.14075705       3.58589396        8      -0.05607574       0.03965154       0.06867848
In      -1.36440482       3.85911960      -0.00000000        9       0.00000000      -0.00000000      -0.00000000
In       3.89415393       5.92943644       0.24379835       10      -0.05607574       0.03965154       0.06867848
In      -1.16534430      -2.07031684       6.44039286       11       0.05607574      -0.03965154      -0.06867847
In       3.89415393       2.61282561       1.67104780       12      -0.05607574      -0.07930307       0.00000000
In       1.56346534       4.68314245       1.91484615       13       0.05607574      -0.03965154       0.06867848
In       4.09321445       0.00000000      -0.00000000       14       0.00000000       0.00000000      -0.00000000
In       1.36440482       1.92955980       3.34209560       15      -0.00000000       0.00000000      -0.00000000
O        0.77519071       3.84926150       3.69308154       16      -0.02229322      -0.02491997       0.01539510
O       -1.95361893       3.20323148       4.84618780       17      -0.02229322       0.02579253       0.01388378
O       -0.36927464       2.08293090       0.10241412       18      -0.00660842       0.01470170       0.03309366
O       -0.77519071      -0.66574621       1.85507813       19       0.02229322       0.00087256       0.02927888
O        3.67124191       4.58399463       1.75266401       20       0.03174850       0.01823408      -0.00381479
O        1.78637736       2.70370556       1.50409219       21      -0.03174850       0.01242074       0.01388378
O        1.78637736       5.73940867       0.24857181       22      -0.03174850       0.00581334      -0.01769857
O       -2.08689763       5.44252457       3.44450973       23      -0.01606370       0.00132991       0.03309366
O        3.09808428       1.77618870       6.58177709       24       0.00660842      -0.01470170      -0.03309366
O        4.81570726      -1.58340497       3.23968148       25       0.01606370      -0.00132991      -0.03309366
O        5.82689391       3.05971848       1.58943160       26       0.00660842       0.03601080       0.00381479
O        3.37072164       2.19133045       3.59066742       27      -0.01606370       0.02799500      -0.01769857
O        0.64191201       3.94350378       6.33320528       28      -0.01606370      -0.02932491      -0.01539510
O        2.08689763      -0.08438418       0.35098593       29       0.01606370       0.02932491       0.01539510
O       -3.09808428       0.79940112       5.09475961       30      -0.00660842      -0.03601080      -0.00381479
O        4.68242856       0.65588812       1.83800341       31       0.02229322      -0.02579253      -0.01388378
O        0.94243227       1.15541404       5.18009902       32       0.03174850      -0.01242074      -0.01388378
O        3.09808428      -0.97678758       5.19717374       33       0.00660842      -0.02130910       0.02927888
O        1.95361892       0.00985810       2.99110967       34       0.02229322       0.02491997      -0.01539510
O        0.94243227      -1.88028907       6.43561940       35       0.03174850      -0.00581334       0.01769857
O       -0.64191201       1.66778916       3.09352379       36       0.01606370      -0.02799500       0.01769857
O       -0.94243228      -0.72487503       4.93152720       37      -0.03174850      -0.01823408       0.00381479
O       -0.36927464       4.83590718       1.48701747       38      -0.00660842       0.02130910      -0.02927888
O        3.50400035       4.52486581       4.82911308       39      -0.02229322      -0.00087256      -0.02927888
40
Lattice="8.186428908789967 6.416276224791773e-10 1.7621618780385463e-14 -2.7288096368682555 7.718239193262088 -1.111350793074902e-09 -2.728809635960871 -3.859119595989408 6.684191214590571" Properties=species:S:1:pos:R:3:spacegroup_kinds:I:1:forces:R:3 spacegroup="P 1" unit_cell=conventional occupancy="_JSON {\"0\": {\"In\": 1}, \"1\": {\"In\": 1}, \"2\": {\"In\": 1}, \"3\": {\"In\": 1}, \"4\": {\"In\": 1}, \"5\": {\"In\": 1}, \"6\": {\"In\": 1}, \"7\": {\"In\": 1}, \"8\": {\"In\": 1}, \"9\": {\"In\": 1}, \"10\": {\"In\": 1}, \"11\": {\"In\": 1}, \"12\": {\"In\": 1}, \"13\": {\"In\": 1}, \"14\": {\"In\": 1}, \"15\": {\"In\": 1}, \"16\": {\"O\": 1}, \"17\": {\"O\": 1}, \"18\": {\"O\": 1}, \"19\": {\"O\": 1}, \"20\": {\"O\": 1}, \"21\": {\"O\": 1}, \"22\": {\"O\": 1}, \"23\": {\"O\": 1}, \"24\": {\"O\": 1}, \"25\": {\"O\": 1}, \"26\": {\"O\": 1}, \"27\": {\"O\": 1}, \"28\": {\"O\": 1}, \"29\": {\"O\": 1}, \"30\": {\"O\": 1}, \"31\": {\"O\": 1}, \"32\": {\"O\": 1}, \"33\": {\"O\": 1}, \"34\": {\"O\": 1}, \"35\": {\"O\": 1}, \"36\": {\"O\": 1}, \"37\": {\"O\": 1}, \"38\": {\"O\": 1}, \"39\": {\"O\": 1}}" n_minim_iter=4 energy=-45131.84123413674 stress="-0.41689914751089174 -2.3344316594331038e-14 -5.610716748056657e-14 -2.3344316594331038e-14 -0.41689914751080165 -3.367712876915841e-14 -5.610716748056657e-14 -3.367712876915841e-14 -0.4168991475105989" free_energy=-45131.84123413674 pbc="T T T"
In      -3.89260823       2.75248968       5.25883486        0       0.05331159      -0.03769699       0.06529310
In       6.62141786       1.10662992       1.42535635        1      -0.05331159       0.03769699      -0.06529310
In       1.16379859      -0.82292987       4.76745196        2      -0.05331159       0.03769699      -0.06529310
In      -1.36440482      -1.92955980       3.34209561        3      -0.00000000      -0.00000000      -0.00000000
In      -1.16379859       3.71726957       3.09640416        4       0.05331159      -0.03769699      -0.06529310
In       4.29382068      -2.61063965       5.01314341        5       0.05331159       0.07539398      -0.00000000
In      -1.16379859       1.24847995       5.01314341        6       0.05331159       0.07539398      -0.00000000
In      -1.56501105       6.46975925       1.67104780        7      -0.05331159      -0.07539398       0.00000000
In       3.89260823       0.14185003       3.58778705        8      -0.05331159       0.03769699       0.06529310
In      -1.36440482       3.85911960      -0.00000000        9      -0.00000000      -0.00000000       0.00000000
In       3.89260823       5.93052942       0.24569145       10      -0.05331159       0.03769699       0.06529310
In      -1.16379859      -2.07140982       6.43849976       11       0.05331159      -0.03769699      -0.06529310
In       3.89260823       2.61063965       1.67104780       12      -0.05331159      -0.07539398       0.00000000
In       1.56501104       4.68204947       1.91673925       13       0.05331159      -0.03769699       0.06529310
In       4.09321445       0.00000000      -0.00000000       14       0.00000000       0.00000000       0.00000000
In       1.36440482       1.92955980       3.34209560       15      -0.00000000       0.00000000      -0.00000000
O        0.77431686       3.84863952       3.69611162       16      -0.00657945      -0.01260426      -0.01895894
O       -1.95449277       3.20616660       4.84521141       17      -0.00657945      -0.01011679       0.02039508
O       -0.36738508       2.08391199       0.10482220       18      -0.02361477       0.00192899      -0.00046883
O       -0.77431687      -0.66343308       1.85713182       19       0.00657945      -0.02272106       0.00143614
O        3.67430044       4.58307180       1.75230961       20      -0.00734505       0.02245037       0.00190497
O        1.78331883       2.70355106       1.50311581       21       0.00734505       0.00957543       0.02039508
O        1.78331883       5.73864034       0.24919380       22       0.00734505       0.01287494      -0.01849011
O       -2.08719276       5.44041605       3.44691781       23      -0.00969026       0.02162122      -0.00046883
O        3.09619472       1.77520761       6.57936901       24       0.02361477      -0.00192899       0.00046883
O        4.81600239      -1.58129645       3.23727340       25       0.00969026      -0.02162122       0.00046883
O        5.82500435       3.06229448       1.58978599       26       0.02361477       0.00055848      -0.00190497
O        3.37042651       2.19447017       3.59128941       27      -0.00969026      -0.01121663      -0.01849011
O        0.64161688       3.94247258       6.33017520       28      -0.00969026      -0.01040459       0.01895894
O        2.08719275      -0.08335298       0.35401601       29       0.00969026       0.01040459      -0.01895894
O       -3.09619472       0.79682512       5.09440522       30      -0.02361477      -0.00055848       0.00190497
O        4.68330241       0.65295300       1.83897980       31       0.00657945       0.01011679      -0.02039508
O        0.94549081       1.15556854       5.18107540       32      -0.00734505      -0.00957543      -0.02039508
O        3.09619472      -0.97838249       5.19922743       33       0.02361477       0.00137052       0.00143614
O        1.95449277       0.01048008       2.98807959       34       0.00657945       0.01260426       0.01895894
O        0.94549081      -1.87952074       6.43499740       35      -0.00734505      -0.01287494       0.01849011
O       -0.64161688       1.66464943       3.09290180       36       0.00969026       0.01121663       0.01849011
O       -0.94549081      -0.72395220       4.93188160       37       0.00734505      -0.02245037      -0.00190497
O       -0.36738508       4.83750210       1.48496378       38      -0.02361477      -0.00137052      -0.00143614
O        3.50312650       4.52255268       4.82705939       39      -0.00657945       0.02272106      -0.00143614
40
Lattice="8.18642890878997 6.416276224791776e-10 1.7621618780385457e-14 -2.728809636868257 7.718239193262091 -1.1113507930749024e-09 -2.7288096359608724 -3.8591195959894096 6.684191214590575" Properties=species:S:1:pos:R:3:spacegroup_kinds:I:1:forces:R:3 spacegroup="P 1" unit_cell=conventional occupancy="_JSON {\"0\": {\"In\": 1}, \"1\": {\"In\": 1}, \"2\": {\"In\": 1}, \"3\": {\"In\": 1}, \"4\": {\"In\": 1}, \"5\": {\"In\": 1}, \"6\": {\"In\": 1}, \"7\": {\"In\": 1}, \"8\": {\"In\": 1}, \"9\": {\"In\": 1}, \"10\": {\"In\": 1}, \"11\": {\"In\": 1}, \"12\": {\"In\": 1}, \"13\": {\"In\": 1}, \"14\": {\"In\": 1}, \"15\": {\"In\": 1}, \"16\": {\"O\": 1}, \"17\": {\"O\": 1}, \"18\": {\"O\": 1}, \"19\": {\"O\": 1}, \"20\": {\"O\": 1}, \"21\": {\"O\": 1}, \"22\": {\"O\": 1}, \"23\": {\"O\": 1}, \"24\": {\"O\": 1}, \"25\": {\"O\": 1}, \"26\": {\"O\": 1}, \"27\": {\"O\": 1}, \"28\": {\"O\": 1}, \"29\": {\"O\": 1}, \"30\": {\"O\": 1}, \"31\": {\"O\": 1}, \"32\": {\"O\": 1}, \"33\": {\"O\": 1}, \"34\": {\"O\": 1}, \"35\": {\"O\": 1}, \"36\": {\"O\": 1}, \"37\": {\"O\": 1}, \"38\": {\"O\": 1}, \"39\": {\"O\": 1}}" n_minim_iter=5 energy=-45131.84290117708 stress="-0.4165415828349416 7.807901575208541e-14 -1.7059063604876967e-13 7.807901575208541e-14 -0.4165415828348662 1.4633493319219207e-13 -1.7059063604876967e-13 1.4633493319219207e-13 -0.41654158283480935" free_energy=-45131.84290117708 pbc="T T T"
In      -3.89096910       2.75133064       5.26084237        0       0.02903380      -0.02052999       0.03555899
In       6.61977873       1.10778896       1.42334884        1      -0.02903380       0.02052999      -0.03555899
In       1.16215946      -0.82177084       4.76544445        2      -0.02903380       0.02052999      -0.03555899
In      -1.36440482      -1.92955980       3.34209561        3      -0.00000000      -0.00000000      -0.00000000
In      -1.16215947       3.71611054       3.09439664        4       0.02903380      -0.02052999      -0.03555899
In       4.29545981      -2.60832157       5.01314341        5       0.02903380       0.04105999      -0.00000000
In      -1.16215947       1.25079802       5.01314341        6       0.02903380       0.04105999      -0.00000000
In      -1.56665017       6.46744117       1.67104780        7      -0.02903380      -0.04105999       0.00000000
In       3.89096910       0.14300906       3.58979457        8      -0.02903380       0.02052999       0.03555899
In      -1.36440482       3.85911960      -0.00000000        9       0.00000000      -0.00000000      -0.00000000
In       3.89096910       5.93168846       0.24769896       10      -0.02903380       0.02052999       0.03555899
In      -1.16215947      -2.07256886       6.43649225       11       0.02903380      -0.02052999      -0.03555899
In       3.89096910       2.60832158       1.67104780       12      -0.02903380      -0.04105999       0.00000000
In       1.56665017       4.68089044       1.91874676       13       0.02903380      -0.02052999       0.03555899
In       4.09321445       0.00000000      -0.00000000       14       0.00000000      -0.00000000      -0.00000000
In       1.36440482       1.92955980       3.34209560       15      -0.00000000       0.00000000       0.00000000
O        0.77380368       3.84822816       3.69785294       16       0.01279383       0.00613072      -0.01721376
O       -1.95500596       3.20788031       4.84469700       17       0.01279383      -0.01797291       0.00329752
O       -0.36632828       2.08451555       0.10623063       18      -0.00690032      -0.00404704      -0.02082278
O       -0.77380368      -0.66213073       1.85835873       19      -0.01279383      -0.01184219      -0.01391623
O        3.67608721       4.58258261       1.75212810       20      -0.02120963      -0.00017985       0.00690655
O        1.78153206       2.70346366       1.50260140       21       0.02120963      -0.00607117       0.00329752
O        1.78153206       5.73823855       0.24952670       22       0.02120963       0.00589132       0.00360903
O       -2.08740953       5.43921849       3.44832624       23       0.00151548       0.00785469      -0.02082278
O        3.09513791       1.77460405       6.57796058       24       0.00690032       0.00404704       0.02082278
O        4.81621917      -1.58009889       3.23586497       25      -0.00151548      -0.00785469       0.02082278
O        5.82394755       3.06381600       1.58996750       26       0.00690032      -0.02005658      -0.00690655
O        3.37020974       2.19628868       3.59162231       27       0.00151548      -0.02196040       0.00360903
O        0.64140010       3.94185162       6.32843387       28       0.00151548       0.01410571       0.01721376
O        2.08740953      -0.08273202       0.35575734       29      -0.00151548      -0.01410571      -0.01721376
O       -3.09513791       0.79530360       5.09422371       30      -0.00690032       0.02005658       0.00690655
O        4.68381559       0.65123929       1.83949421       31      -0.01279383       0.01797291      -0.00329752
O        0.94727758       1.15565594       5.18158981       32      -0.02120963       0.00607117      -0.00329752
O        3.09513791      -0.97930045       5.20045434       33       0.00690032       0.01600954      -0.01391623
O        1.95500596       0.01089144       2.98633827       34      -0.01279383      -0.00613072       0.01721376
O        0.94727758      -1.87911895       6.43466451       35      -0.02120963      -0.00589132      -0.00360903
O       -0.64140011       1.66283092       3.09256890       36      -0.00151548       0.02196040      -0.00360903
O       -0.94727758      -0.72346301       4.93206311       37       0.02120963       0.00017985      -0.00690655
O       -0.36632828       4.83842005       1.48373687       38      -0.00690032      -0.01600954       0.01391623
O        3.50261331       4.52125033       4.82583247       39       0.01279383       0.01184219       0.01391623
40