40
Lattice="9.600575447105935 7.524699538449144e-10 3.378419358086759e-14 -3.2001918164114134 9.051509335671417 -1.3033392477449772e-09 -3.2001918153472895 -4.525754667083227 7.838837028152323" Properties=species:S:1:pos:R:3:spacegroup_kinds:I:1:forces:R:3 spacegroup="P 1" unit_cell=conventional occupancy="_JSON {\"0\": {\"In\": 1}, \"1\": {\"In\": 1}, \"2\": {\"In\": 1}, \"3\": {\"In\": 1}, \"4\": {\"In\": 1}, \"5\": {\"In\": 1}, \"6\": {\"In\": 1}, \"7\": {\"In\": 1}, \"8\": {\"In\": 1}, \"9\": {\"In\": 1}, \"10\": {\"In\": 1}, \"11\": {\"In\": 1}, \"12\": {\"In\": 1}, \"13\": {\"In\": 1}, \"14\": {\"In\": 1}, \"15\": {\"In\": 1}, \"16\": {\"O\": 1}, \"17\": {\"O\": 1}, \"18\": {\"O\": 1}, \"19\": {\"O\": 1}, \"20\": {\"O\": 1}, \"21\": {\"O\": 1}, \"22\": {\"O\": 1}, \"23\": {\"O\": 1}, \"24\": {\"O\": 1}, \"25\": {\"O\": 1}, \"26\": {\"O\": 1}, \"27\": {\"O\": 1}, \"28\": {\"O\": 1}, \"29\": {\"O\": 1}, \"30\": {\"O\": 1}, \"31\": {\"O\": 1}, \"32\": {\"O\": 1}, \"33\": {\"O\": 1}, \"34\": {\"O\": 1}, \"35\": {\"O\": 1}, \"36\": {\"O\": 1}, \"37\": {\"O\": 1}, \"38\": {\"O\": 1}, \"39\": {\"O\": 1}}" n_minim_iter=1 energy=-45142.39612655238 stress="0.10964644348429528 1.321936857181915e-14 2.1625667387272236e-14 1.321936857181915e-14 0.1096464434843771 -4.2101291228526e-14 2.1625667387272236e-14 -4.2101291228526e-14 0.10964644348432505" free_energy=-45142.39612655238 pbc="T T T"
In      -4.54343531       3.21269392       6.19370645        0       0.03801167      -0.02687831       0.04655459
In       7.74362712       1.31306076       1.64513057        1      -0.03801167       0.02687831      -0.04655459
In       1.34324349      -0.94981658       5.56454909        2      -0.03801167       0.02687831      -0.04655459
In      -1.60009591      -2.26287733       3.91941851        3      -0.00000000       0.00000000       0.00000000
In      -1.34324349       4.34413258       3.60483983        4       0.03801167      -0.02687831      -0.04655459
In       5.05714014      -3.03107182       5.87912777        5       0.03801167       0.05375661      -0.00000000
In      -1.34324349       1.49468284       5.87912777        6       0.03801167       0.05375661      -0.00000000
In      -1.85694833       7.55682650       1.95970925        7      -0.03801167      -0.05375661       0.00000000
In       4.54343530       0.18162209       4.23399719        8      -0.03801167       0.02687831       0.04655459
In      -1.60009591       4.52575467      -0.00000000        9      -0.00000000      -0.00000000       0.00000000
In       4.54343530       6.97025409       0.31457868       10      -0.03801167       0.02687831       0.04655459
In      -1.34324349      -2.44449942       7.52425834       11       0.03801167      -0.02687831      -0.04655459
In       4.54343530       3.03107183       1.95970925       12      -0.03801167      -0.05375661       0.00000000
In       1.85694832       5.47557125       2.27428794       13       0.03801167      -0.02687831       0.04655459
In       4.80028772       0.00000000      -0.00000000       14       0.00000000       0.00000000      -0.00000000
In       1.60009591       2.26287734       3.91941851       15      -0.00000000      -0.00000000       0.00000000
O        1.14067551       4.55247915       4.21356823       16       0.02904304       0.01955619      -0.06869366
O       -2.05951631       3.63569489       5.70890883       17       0.02904304      -0.06926855       0.01741067
O       -0.43373516       2.48609402      -0.13876107       18      -0.03718825      -0.02243596      -0.06370576
O       -1.14067551      -0.86333530       2.08364004       19      -0.02904304      -0.04971236      -0.05128299
O        4.11427145       5.30897623       2.22240110       20      -0.07498803       0.01293182       0.01242277
O        2.28611218       2.99270963       1.78949032       21       0.07498803      -0.00429252       0.01741067
O        2.28611218       6.84202127       0.43291078       22       0.07498803       0.01722434      -0.00498790
O       -2.48849030       6.36886343       3.78065744       23       0.00875674       0.04254007      -0.06370576
O        3.63392697       2.03966066       7.97759809       24       0.03718825       0.02243596       0.06370576
O        5.68868212      -1.84310876       4.05817958       25      -0.00875674      -0.04254007       0.06370576
O        6.83411879       3.38575373       1.69701740       26       0.03718825      -0.06638879      -0.01242277
O        3.91189333       2.35259101       4.35232929       27       0.00875674      -0.07644084      -0.00498790
O        0.71170151       4.85580957       7.54468731       28       0.00875674       0.03390077       0.06869366
O        2.48849030      -0.33005490       0.29414971       29      -0.00875674      -0.03390077      -0.06869366
O       -3.63392698       1.14000094       6.14181962       30      -0.03718825       0.06638879       0.01242277
O        5.25970812       0.89005978       2.12992819       31      -0.02904304       0.06926855      -0.01741067
O        0.91407963       1.53304504       6.04934670       32      -0.07498803       0.00429252      -0.01741067
O        3.63392697      -0.89965971       6.00305855       33       0.03718825       0.04395283      -0.05128299
O        2.05951630      -0.02672447       3.62526880       34      -0.02904304      -0.01955619       0.06869366
O        0.91407963      -2.31626660       7.40592624       35      -0.07498803      -0.01722434       0.00498790
O       -0.71170152       2.17316366       3.48650773       36      -0.00875674       0.07644084       0.00498790
O       -0.91407963      -0.78322156       5.61643592       37       0.07498803      -0.01293182      -0.01242277
O       -0.43373516       5.42541439       1.83577847       38      -0.03718825      -0.04395283       0.05128299
O        4.34086732       5.38908997       5.75519699       39       0.02904304       0.04971236       0.05128299
40
Lattice="9.600575447105935 7.524699538449146e-10 3.378419358086759e-14 -3.2001918164114143 9.051509335671417 -1.3033392477449772e-09 -3.2001918153472904 -4.525754667083227 7.838837028152325" Properties=species:S:1:pos:R:3:spacegroup_kinds:I:1:forces:R:3 spacegroup="P 1" unit_cell=conventional occupancy="_JSON {\"0\": {\"In\": 1}, \"1\": {\"In\": 1}, \"2\": {\"In\": 1}, \"3\": {\"In\": 1}, \"4\": {\"In\": 1}, \"5\": {\"In\": 1}, \"6\": {\"In\": 1}, \"7\": {\"In\": 1}, \"8\": {\"In\": 1}, \"9\": {\"In\": 1}, \"10\": {\"In\": 1}, \"11\": {\"In\": 1}, \"12\": {\"In\": 1}, \"13\": {\"In\": 1}, \"14\": {\"In\": 1}, \"15\": {\"In\": 1}, \"16\": {\"O\": 1}, \"17\": {\"O\": 1}, \"18\": {\"O\": 1}, \"19\": {\"O\": 1}, \"20\": {\"O\": 1}, \"21\": {\"O\": 1}, \"22\": {\"O\": 1}, \"23\": {\"O\": 1}, \"24\": {\"O\": 1}, \"25\": {\"O\": 1}, \"26\": {\"O\": 1}, \"27\": {\"O\": 1}, \"28\": {\"O\": 1}, \"29\": {\"O\": 1}, \"30\": {\"O\": 1}, \"31\": {\"O\": 1}, \"32\": {\"O\": 1}, \"33\": {\"O\": 1}, \"34\": {\"O\": 1}, \"35\": {\"O\": 1}, \"36\": {\"O\": 1}, \"37\": {\"O\": 1}, \"38\": {\"O\": 1}, \"39\": {\"O\": 1}}" n_minim_iter=2 energy=-45142.40619787532 stress="0.10858757541307221 1.1372738862373497e-14 5.725240699314353e-15 1.1372738862373497e-14 0.10858757541307476 9.764279198615785e-14 5.725240699314353e-15 9.764279198615785e-14 0.10858757541300629" free_energy=-45142.40619787532 pbc="T T T"
In      -4.54072019       3.21077404       6.19703178        0       0.01663722      -0.01176429       0.02037635
In       7.74091200       1.31498064       1.64180524        1      -0.01663722       0.01176429      -0.02037635
In       1.34052837      -0.94789670       5.56122376        2      -0.01663722       0.01176429      -0.02037635
In      -1.60009591      -2.26287733       3.91941851        3       0.00000000       0.00000000       0.00000000
In      -1.34052837       4.34221270       3.60151450        4       0.01663722      -0.01176429      -0.02037635
In       5.05985526      -3.02723207       5.87912777        5       0.01663722       0.02352858      -0.00000000
In      -1.34052837       1.49852260       5.87912777        6       0.01663722       0.02352858      -0.00000000
In      -1.85966345       7.55298674       1.95970925        7      -0.01663722      -0.02352858       0.00000000
In       4.54072018       0.18354197       4.23732252        8      -0.01663722       0.01176429       0.02037635
In      -1.60009591       4.52575467      -0.00000000        9       0.00000000      -0.00000000       0.00000000
In       4.54072018       6.97217397       0.31790401       10      -0.01663722       0.01176429       0.02037635
In      -1.34052837      -2.44641930       7.52093302       11       0.01663722      -0.01176429      -0.02037635
In       4.54072018       3.02723207       1.95970925       12      -0.01663722      -0.02352858       0.00000000
In       1.85966344       5.47365137       2.27761326       13       0.01663722      -0.01176429       0.02037635
In       4.80028772       0.00000000      -0.00000000       14      -0.00000000       0.00000000      -0.00000000
In       1.60009591       2.26287734       3.91941851       15       0.00000000       0.00000000      -0.00000000
O        1.14275001       4.55387602       4.20866153       16       0.02588236       0.00281414      -0.02694806
O       -2.05744180       3.63074714       5.71015245       17       0.02588236      -0.02474478       0.01103692
O       -0.43639147       2.48449145      -0.14331148       18      -0.01204895       0.00207671      -0.03541926
O       -1.14275001      -0.86688618       2.07997697       19      -0.02588236      -0.02193064      -0.01591115
O        4.10891516       5.30989993       2.22328845       20      -0.03195705       0.00148132       0.01950811
O        2.29146847       2.99240303       1.79073394       21       0.03195705      -0.01615386       0.01103692
O        2.29146847       6.84325158       0.43255450       22       0.03195705       0.01763518       0.00847120
O       -2.48786482       6.37190201       3.77610703       23      -0.00597426       0.01066762      -0.03541926
O        3.63658328       2.04126322       7.98214851       24       0.01204895      -0.00207671       0.03541926
O        5.68805663      -1.84614733       4.06272999       25       0.00597426      -0.01066762       0.03541926
O        6.83677509       3.38101168       1.69613006       26       0.01204895      -0.02963562      -0.01950811
O        3.91251881       2.34713095       4.35197302       27      -0.00597426      -0.03600779       0.00847120
O        0.71232699       4.85823105       7.54959400       28      -0.00597426       0.02534017       0.02694806
O        2.48786482      -0.33247638       0.28924302       29       0.00597426      -0.02534017      -0.02694806
O       -3.63658328       1.14474300       6.14270696       30      -0.01204895       0.02963562       0.01950811
O        5.25763362       0.89500754       2.12868457       31      -0.02588236       0.02474478      -0.01103692
O        0.90872334       1.53335165       6.04810308       32      -0.03195705       0.01615386      -0.01103692
O        3.63658328      -0.89652022       5.99939548       33       0.01204895       0.03171233      -0.01591115
O        2.05744180      -0.02812135       3.63017549       34      -0.02588236      -0.00281414       0.02694806
O        0.90872334      -2.31749691       7.40628252       35      -0.03195705      -0.01763518      -0.00847120
O       -0.71232700       2.17862372       3.48686401       36       0.00597426       0.03600779      -0.00847120
O       -0.90872335      -0.78414526       5.61554858       37       0.03195705      -0.00148132      -0.01950811
O       -0.43639147       5.42227490       1.83944154       38      -0.01204895      -0.03171233       0.01591115
O        4.34294183       5.39264086       5.75886006       39       0.02588236       0.02193064       0.01591115
40
Lattice="9.600575447105935 7.524699538449146e-10 3.378419358086759e-14 -3.2001918164114143 9.051509335671417 -1.3033392477449772e-09 -3.2001918153472904 -4.525754667083227 7.838837028152325" Properties=species:S:1:pos:R:3:spacegroup_kinds:I:1:forces:R:3 spacegroup="P 1" unit_cell=conventional occupancy="_JSON {\"0\": {\"In\": 1}, \"1\": {\"In\": 1}, \"2\": {\"In\": 1}, \"3\": {\"In\": 1}, \"4\": {\"In\": 1}, \"5\": {\"In\": 1}, \"6\": {\"In\": 1}, \"7\": {\"In\": 1}, \"8\": {\"In\": 1}, \"9\": {\"In\": 1}, \"10\": {\"In\": 1}, \"11\": {\"In\": 1}, \"12\": {\"In\": 1}, \"13\": {\"In\": 1}, \"14\": {\"In\": 1}, \"15\": {\"In\": 1}, \"16\": {\"O\": 1}, \"17\": {\"O\": 1}, \"18\": {\"O\": 1}, \"19\": {\"O\": 1}, \"20\": {\"O\": 1}, \"21\": {\"O\": 1}, \"22\": {\"O\": 1}, \"23\": {\"O\": 1}, \"24\": {\"O\": 1}, \"25\": {\"O\": 1}, \"26\": {\"O\": 1}, \"27\": {\"O\": 1}, \"28\": {\"O\": 1}, \"29\": {\"O\": 1}, \"30\": {\"O\": 1}, \"31\": {\"O\": 1}, \"32\": {\"O\": 1}, \"33\": {\"O\": 1}, \"34\": {\"O\": 1}, \"35\": {\"O\": 1}, \"36\": {\"O\": 1}, \"37\": {\"O\": 1}, \"38\": {\"O\": 1}, \"39\": {\"O\": 1}}" n_minim_iter=3 energy=-45142.408824058555 stress="0.10767423464799715 1.3498068230092523e-13 -8.57810656093196e-14 1.3498068230092523e-13 0.107674234648058 1.3812990694828636e-14 -8.57810656093196e-14 1.3812990694828636e-14 0.1076742346482915" free_energy=-45142.408824058555 pbc="T T T"
In      -4.53850677       3.20920892       6.19974264        0      -0.00145933       0.00103190      -0.00178731
In       7.73869859       1.31654575       1.63909438        1       0.00145933      -0.00103190       0.00178731
In       1.33831496      -0.94633158       5.55851289        2       0.00145933      -0.00103190       0.00178731
In      -1.60009591      -2.26287733       3.91941851        3       0.00000000       0.00000000       0.00000000
In      -1.33831496       4.34064758       3.59880363        4      -0.00145933       0.00103190       0.00178731
In       5.06206867      -3.02410183       5.87912777        5      -0.00145933      -0.00206381      -0.00000000
In      -1.33831496       1.50165284       5.87912777        6      -0.00145933      -0.00206381       0.00000000
In      -1.86187686       7.54985650       1.95970925        7       0.00145933       0.00206381       0.00000000
In       4.53850677       0.18510709       4.24003339        8       0.00145933      -0.00103190      -0.00178731
In      -1.60009591       4.52575467      -0.00000000        9       0.00000000       0.00000000      -0.00000000
In       4.53850677       6.97373909       0.32061487       10       0.00145933      -0.00103190      -0.00178731
In      -1.33831496      -2.44798442       7.51822215       11      -0.00145933       0.00103190       0.00178731
In       4.53850677       3.02410183       1.95970925       12       0.00145933       0.00206381       0.00000000
In       1.86187686       5.47208625       2.28032413       13      -0.00145933       0.00103190      -0.00178731
In       4.80028772       0.00000000      -0.00000000       14      -0.00000000       0.00000000       0.00000000
In       1.60009591       2.26287734       3.91941851       15      -0.00000000      -0.00000000       0.00000000
O        1.14477994       4.55486700       4.20474172       16       0.02227447      -0.01025878       0.00735179
O       -2.05541188       3.62685699       5.71125415       17       0.02227447       0.01149623       0.00520847
O       -0.43844819       2.48349100      -0.14721489       18       0.00859150       0.02117155      -0.01154968
O       -1.14477994      -0.86978536       2.07715884       19      -0.02227447       0.00123745       0.01256026
O        4.10457085       5.31054547       2.22437373       20       0.00341392      -0.00790566       0.02410993
O        2.29581278       2.99178591       1.79183564       21      -0.00341392      -0.02483265       0.00520847
O        2.29581278       6.84451423       0.43253809       22      -0.00341392       0.01692699       0.01890147
O       -2.48760716       6.37417459       3.77220362       23      -0.01709689      -0.01515733      -0.01154968
O        3.63864000       2.04226368       7.98605192       24      -0.00859150      -0.02117155       0.01154968
O        5.68779897      -1.84841991       4.06663340       25       0.01709689       0.01515733       0.01154968
O        6.83883182       3.37713100       1.69504477       26      -0.00859150       0.00058346      -0.02410993
O        3.91277647       2.34261421       4.35195661       27      -0.01709689      -0.00242365       0.01890147
O        0.71258465       4.86047522       7.55351382       28      -0.01709689       0.01758098      -0.00735179
O        2.48760716      -0.33472054       0.28532320       29       0.01709689      -0.01758098       0.00735179
O       -3.63864000       1.14862367       6.14379225       30       0.00859150      -0.00058346       0.02410993
O        5.25560369       0.89889769       2.12758287       31      -0.02227447      -0.01149623      -0.00520847
O        0.90437903       1.53396877       6.04700139       32       0.00341392       0.02483265      -0.00520847
O        3.63864000      -0.89364000       5.99657736       33      -0.00859150       0.02058809       0.01256026
O        2.05541187      -0.02911232       3.63409530       34      -0.02227447       0.01025878      -0.00735179
O        0.90437903      -2.31875956       7.40629893       35       0.00341392      -0.01692699      -0.01890147
O       -0.71258466       2.18314046       3.48688041       36       0.01709689       0.00242365      -0.01890147
O       -0.90437903      -0.78479080       5.61446329       37      -0.00341392       0.00790566      -0.02410993
O       -0.43844819       5.41939467       1.84225966       38       0.00859150      -0.02058809      -0.01256026
O        4.34497176       5.39554003       5.76167818       39       0.02227447      -0.00123745      -0.01256026
40
Lattice="9.600575447105907 7.524699538449123e-10 3.3784193580867483e-14 -3.200191816411405 9.051509335671389 -1.3033392477449732e-09 -3.200191815347281 -4.525754667083213 7.838837028152302" Properties=species:S:1:pos:R:3:spacegroup_kinds:I:1:forces:R:3 spacegroup="P 1" unit_cell=conventional occupancy="_JSON {\"0\": {\"In\": 1}, \"1\": {\"In\": 1}, \"2\": {\"In\": 1}, \"3\": {\"In\": 1}, \"4\": {\"In\": 1}, \"5\": {\"In\": 1}, \"6\": {\"In\": 1}, \"7\": {\"In\": 1}, \"8\": {\"In\": 1}, \"9\": {\"In\": 1}, \"10\": {\"In\": 1}, \"11\": {\"In\": 1}, \"12\": {\"In\": 1}, \"13\": {\"In\": 1}, \"14\": {\"In\": 1}, \"15\": {\"In\": 1}, \"16\": {\"O\": 1}, \"17\": {\"O\": 1}, \"18\": {\"O\": 1}, \"19\": {\"O\": 1}, \"20\": {\"O\": 1}, \"21\": {\"O\": 1}, \"22\": {\"O\": 1}, \"23\": {\"O\": 1}, \"24\": {\"O\": 1}, \"25\": {\"O\": 1}, \"26\": {\"O\": 1}, \"27\": {\"O\": 1}, \"28\": {\"O\": 1}, \"29\": {\"O\": 1}, \"30\": {\"O\": 1}, \"31\": {\"O\": 1}, \"32\": {\"O\": 1}, \"33\": {\"O\": 1}, \"34\": {\"O\": 1}, \"35\": {\"O\": 1}, \"36\": {\"O\": 1}, \"37\": {\"O\": 1}, \"38\": {\"O\": 1}, \"39\": {\"O\": 1}}" n_minim_iter=4 energy=-45142.411862504756 stress="0.10711427105419666 -1.5388784639867527e-15 -3.2109949224989418e-15 -1.5388784639867527e-15 0.10711427105419082 -5.606601840397065e-14 -3.2109949224989418e-15 -5.606601840397065e-14 0.10711427105416992" free_energy=-45142.411862504756 pbc="T T T"
In      -4.53757489       3.20854997       6.20088397        0      -0.00911881       0.00644797      -0.01116822
In       7.73776670       1.31720470       1.63795305        1       0.00911881      -0.00644797       0.01116822
In       1.33738307      -0.94567263       5.55737157        2       0.00911881      -0.00644797       0.01116822
In      -1.60009591      -2.26287733       3.91941851        3       0.00000000      -0.00000000       0.00000000
In      -1.33738307       4.33998864       3.59766231        4      -0.00911881       0.00644797       0.01116822
In       5.06300056      -3.02278394       5.87912777        5      -0.00911881      -0.01289595      -0.00000000
In      -1.33738307       1.50297073       5.87912777        6      -0.00911881      -0.01289595       0.00000000
In      -1.86280875       7.54853861       1.95970925        7       0.00911881       0.01289595      -0.00000000
In       4.53757488       0.18576603       4.24117471        8       0.00911881      -0.00644797      -0.01116822
In      -1.60009591       4.52575467      -0.00000000        9       0.00000000       0.00000000       0.00000000
In       4.53757488       6.97439803       0.32175620       10       0.00911881      -0.00644797      -0.01116822
In      -1.33738307      -2.44864336       7.51708082       11      -0.00911881       0.00644797       0.01116822
In       4.53757488       3.02278394       1.95970925       12       0.00911881       0.01289595      -0.00000000
In       1.86280875       5.47142731       2.28146546       13      -0.00911881       0.00644797      -0.01116822
In       4.80028772       0.00000000      -0.00000000       14      -0.00000000      -0.00000000       0.00000000
In       1.60009591       2.26287734       3.91941851       15      -0.00000000       0.00000000      -0.00000000
O        1.15274041       4.55239435       4.20452523       16       0.01284341       0.01341332       0.01003035
O       -2.04745140       3.62790583       5.71350377       17       0.01284341       0.00197988      -0.01663145
O       -0.43713707       2.48924165      -0.15310904       18       0.01879398      -0.00222781      -0.00934352
O       -1.15274042      -0.87120916       2.07919198       19      -0.01284341       0.01539319      -0.00660110
O        4.10290621       5.30856629       2.23230102       20      -0.00241449      -0.02078767       0.00274242
O        2.29747741       2.98393108       1.79408525       21       0.00241449      -0.01276884      -0.01663145
O        2.29747741       6.85038987       0.43821576       22       0.00241449      -0.00801884       0.01937386
O       -2.49259189       6.37102157       3.76630947       23       0.00836506      -0.01697653      -0.00934352
O        3.63732888       2.03651303       7.99194607       24      -0.01879398       0.00222781       0.00934352
O        5.69278370      -1.84526690       4.07252755       25      -0.00836506       0.01697653       0.00934352
O        6.83752070       3.37490184       1.68711749       26      -0.01879398      -0.00920563      -0.00274242
O        3.90779174       2.33908623       4.35763428       27       0.00836506       0.00039654       0.01937386
O        0.70759993       4.86715621       7.55373030       28       0.00836506       0.01657999      -0.01003035
O        2.49259188      -0.34140153       0.28510672       29      -0.00836506      -0.01657999       0.01003035
O       -3.63732889       1.15085283       6.15171953       30       0.01879398       0.00920563       0.00274242
O        5.24764321       0.89784884       2.12533325       31      -0.01284341      -0.00197988       0.01663145
O        0.90271440       1.54182359       6.04475177       32      -0.00241449       0.01276884       0.01663145
O        3.63732888      -0.88566019       5.99861049       33      -0.01879398       0.00697782      -0.00660110
O        2.04745140      -0.02663968       3.63431179       34      -0.01284341      -0.01341332      -0.01003035
O        0.90271440      -2.32463520       7.40062126       35      -0.00241449       0.00801884      -0.01937386
O       -0.70759993       2.18666844       3.48120275       36      -0.00836506      -0.00039654      -0.01937386
O       -0.90271440      -0.78281161       5.60653600       37       0.00241449       0.02078767      -0.00274242
O       -0.43713707       5.41141486       1.84022653       38       0.01879398      -0.00697782       0.00660110
O        4.35293223       5.39696383       5.75964504       39       0.01284341      -0.01539319       0.00660110
40
Lattice="9.600575447105893 7.524699538449109e-10 3.3784193580867395e-14 -3.2001918164114 9.051509335671376 -1.3033392477449714e-09 -3.200191815347276 -4.5257546670832065 7.83883702815229" Properties=species:S:1:pos:R:3:spacegroup_kinds:I:1:forces:R:3 spacegroup="P 1" unit_cell=conventional occupancy="_JSON {\"0\": {\"In\": 1}, \"1\": {\"In\": 1}, \"2\": {\"In\": 1}, \"3\": {\"In\": 1}, \"4\": {\"In\": 1}, \"5\": {\"In\": 1}, \"6\": {\"In\": 1}, \"7\": {\"In\": 1}, \"8\": {\"In\": 1}, \"9\": {\"In\": 1}, \"10\": {\"In\": 1}, \"11\": {\"In\": 1}, \"12\": {\"In\": 1}, \"13\": {\"In\": 1}, \"14\": {\"In\": 1}, \"15\": {\"In\": 1}, \"16\": {\"O\": 1}, \"17\": {\"O\": 1}, \"18\": {\"O\": 1}, \"19\": {\"O\": 1}, \"20\": {\"O\": 1}, \"21\": {\"O\": 1}, \"22\": {\"O\": 1}, \"23\": {\"O\": 1}, \"24\": {\"O\": 1}, \"25\": {\"O\": 1}, \"26\": {\"O\": 1}, \"27\": {\"O\": 1}, \"28\": {\"O\": 1}, \"29\": {\"O\": 1}, \"30\": {\"O\": 1}, \"31\": {\"O\": 1}, \"32\": {\"O\": 1}, \"33\": {\"O\": 1}, \"34\": {\"O\": 1}, \"35\": {\"O\": 1}, \"36\": {\"O\": 1}, \"37\": {\"O\": 1}, \"38\": {\"O\": 1}, \"39\": {\"O\": 1}}" n_minim_iter=5 energy=-45142.412496892124 stress="0.10701775352080783 -5.5240146565733566e-14 -8.52635969455676e-14 -5.5240146565733566e-14 0.10701775352092836 6.880951953295762e-14 -8.52635969455676e-14 6.880951953295762e-14 0.10701775352076558" free_energy=-45142.412496892124 pbc="T T T"
In      -4.53768311       3.20862650       6.20075142        0      -0.00882997       0.00624373      -0.01081446
In       7.73787492       1.31712817       1.63808560        1       0.00882997      -0.00624373       0.01081446
In       1.33749129      -0.94574916       5.55750411        2       0.00882997      -0.00624373       0.01081446
In      -1.60009591      -2.26287733       3.91941851        3       0.00000000       0.00000000       0.00000000
In      -1.33749130       4.34006517       3.59779486        4      -0.00882997       0.00624373       0.01081446
In       5.06289234      -3.02293699       5.87912777        5      -0.00882997      -0.01248747      -0.00000000
In      -1.33749130       1.50281768       5.87912777        6      -0.00882997      -0.01248747       0.00000000
In      -1.86270052       7.54869166       1.95970925        7       0.00882997       0.01248747      -0.00000000
In       4.53768311       0.18568951       4.24104217        8       0.00882997      -0.00624373      -0.01081446
In      -1.60009591       4.52575467      -0.00000000        9       0.00000000      -0.00000000       0.00000000
In       4.53768311       6.97432151       0.32162365       10       0.00882997      -0.00624373      -0.01081446
In      -1.33749130      -2.44856683       7.51721337       11      -0.00882997       0.00624373       0.01081446
In       4.53768311       3.02293700       1.95970925       12       0.00882997       0.01248747      -0.00000000
In       1.86270052       5.47150383       2.28133291       13      -0.00882997       0.00624373      -0.01081446
In       4.80028772       0.00000000      -0.00000000       14      -0.00000000      -0.00000000       0.00000000
In       1.60009591       2.26287734       3.91941851       15      -0.00000000      -0.00000000      -0.00000000
O        1.15627397       4.55138022       4.20524690       16       0.00930326       0.02456582       0.00411105
O       -2.04391785       3.62903787       5.71402119       17       0.00930326      -0.00872264      -0.02333015
O       -0.43584805       2.49196081      -0.15534060       18       0.01803818      -0.01489916      -0.01263209
O       -1.15627397      -0.87109124       2.08043107       19      -0.00930326       0.01584318      -0.01921910
O        4.10279566       5.30715998       2.23577166       20      -0.01132487      -0.02313633      -0.00658701
O        2.29758797       2.98022227       1.79460268       21       0.01132487      -0.00586365      -0.02333015
O        2.29758797       6.85269238       0.44116898       22       0.01132487      -0.01727268       0.01674314
O       -2.49472587       6.36889988       3.76407792       23       0.02005979      -0.01204017      -0.01263209
O        3.63603986       2.03379386       7.99417762       24      -0.01803818       0.01489916       0.01263209
O        5.69491768      -1.84314521       4.07475910       25      -0.02005979       0.01204017       0.01263209
O        6.83623168       3.37432884       1.68364685       26      -0.01803818      -0.01838929       0.00658701
O        3.90565776       2.33821450       4.36058749       27       0.02005979      -0.00491963       0.01674314
O        0.70546595       4.87014963       7.55300864       28       0.02005979       0.01695980      -0.00411105
O        2.49472586      -0.34439496       0.28582838       29      -0.02005979      -0.01695980       0.00411105
O       -3.63603986       1.15142583       6.15519017       30       0.01803818       0.01838929      -0.00658701
O        5.24410966       0.89671680       2.12481583       31      -0.00930326       0.00872264       0.02333015
O        0.90260385       1.54553240       6.04423434       32      -0.01132487       0.00586365       0.02333015
O        3.63603986      -0.88236803       5.99984958       33      -0.01803818       0.00349013      -0.01921910
O        2.04391784      -0.02562555       3.63359012       34      -0.00930326      -0.02456582      -0.00411105
O        0.90260385      -2.32693771       7.39766805       35      -0.01132487       0.01727268      -0.01674314
O       -0.70546595       2.18754017       3.47824953       36      -0.02005979       0.00491963      -0.01674314
O       -0.90260385      -0.78140531       5.60306536       37       0.01132487       0.02313633       0.00658701
O       -0.43584805       5.40812270       1.83898744       38       0.01803818      -0.00349013       0.01921910
O        4.35646579       5.39684592       5.75840595       39       0.00930326      -0.01584318       0.01921910
40