40
Lattice="9.058515398877296 7.099789786029621e-10 6.561889243812285e-15 -3.019505133628479 8.5404502211352 -1.2297322165282157e-09 -3.0195051326244187 -4.270225109857613 7.396246852079335" Properties=species:S:1:pos:R:3:spacegroup_kinds:I:1:forces:R:3 spacegroup="P 1" unit_cell=conventional occupancy="_JSON {\"0\": {\"In\": 1}, \"1\": {\"In\": 1}, \"2\": {\"In\": 1}, \"3\": {\"In\": 1}, \"4\": {\"In\": 1}, \"5\": {\"In\": 1}, \"6\": {\"In\": 1}, \"7\": {\"In\": 1}, \"8\": {\"In\": 1}, \"9\": {\"In\": 1}, \"10\": {\"In\": 1}, \"11\": {\"In\": 1}, \"12\": {\"In\": 1}, \"13\": {\"In\": 1}, \"14\": {\"In\": 1}, \"15\": {\"In\": 1}, \"16\": {\"O\": 1}, \"17\": {\"O\": 1}, \"18\": {\"O\": 1}, \"19\": {\"O\": 1}, \"20\": {\"O\": 1}, \"21\": {\"O\": 1}, \"22\": {\"O\": 1}, \"23\": {\"O\": 1}, \"24\": {\"O\": 1}, \"25\": {\"O\": 1}, \"26\": {\"O\": 1}, \"27\": {\"O\": 1}, \"28\": {\"O\": 1}, \"29\": {\"O\": 1}, \"30\": {\"O\": 1}, \"31\": {\"O\": 1}, \"32\": {\"O\": 1}, \"33\": {\"O\": 1}, \"34\": {\"O\": 1}, \"35\": {\"O\": 1}, \"36\": {\"O\": 1}, \"37\": {\"O\": 1}, \"38\": {\"O\": 1}, \"39\": {\"O\": 1}}" n_minim_iter=7 energy=-45151.33805739742 stress="0.039603401174078644 3.909284638557385e-14 1.1720044349224436e-13 3.909284638557385e-14 0.03960340117398141 -1.1504980530843987e-13 1.1720044349224436e-13 -1.1504980530843987e-13 0.039603401173997306" free_energy=-45151.33805739742 pbc="T T T"
In      -4.31838793       3.05356139       5.80544680        0       0.00399685      -0.00282620       0.00489512
In       7.33789306       1.21666372       1.59080004        1      -0.00399685       0.00282620      -0.00489512
In       1.29888280      -0.91844883       5.28892347        2      -0.00399685       0.00282620      -0.00489512
In      -1.50975257      -2.13511255       3.69812342        3      -0.00000000      -0.00000000      -0.00000000
In      -1.29888280       4.12111767       3.43986176        4       0.00399685      -0.00282620      -0.00489512
In       4.74012747      -2.90445395       5.54718514        5       0.00399685       0.00565240      -0.00000000
In      -1.29888280       1.36577117       5.54718514        6       0.00399685       0.00565240      -0.00000000
In      -1.72062234       7.17467906       1.84906171        7      -0.00399685      -0.00565240       0.00000000
In       4.31838793       0.14910745       3.95638509        8      -0.00399685       0.00282620       0.00489512
In      -1.50975257       4.27022511      -0.00000000        9      -0.00000000       0.00000000       0.00000000
In       4.31838793       6.55444511       0.25826166       10      -0.00399685       0.00282620       0.00489512
In      -1.29888280      -2.28422000       7.13798518       11       0.00399685      -0.00282620      -0.00489512
In       4.31838793       2.90445395       1.84906171       12      -0.00399685      -0.00565240       0.00000000
In       1.72062233       5.18867395       2.10732338       13       0.00399685      -0.00282620       0.00489512
In       4.52925770       0.00000000      -0.00000000       14       0.00000000       0.00000000       0.00000000
In       1.50975256       2.13511256       3.69812342       15       0.00000000       0.00000000      -0.00000000
O        0.91591086       4.27526919       4.01525367       16      -0.00037305       0.00214712       0.00230634
O       -2.10359427       3.47478964       5.38425172       17      -0.00037305       0.00092379      -0.00301263
O       -0.43988453       2.29836921       0.02562483       18       0.00277094      -0.00129934       0.00083794
O       -0.91591087      -0.79039139       2.00325853       19       0.00037305       0.00307091      -0.00070629
O        3.97726118       5.07541101       1.97763370       20       0.00099531      -0.00258713      -0.00154423
O        2.06174908       2.96013704       1.68612829       21      -0.00099531       0.00004378      -0.00301263
O        2.06174908       6.38549909       0.29150540       22      -0.00099531      -0.00263091       0.00146840
O       -2.31355145       6.05394171       3.72374826       23       0.00214868      -0.00217935       0.00083794
O        3.45938966       1.97185591       7.37062201       24      -0.00277094       0.00129934      -0.00083794
O        5.33305657      -1.78371660       3.67249859       25      -0.00214868       0.00217935      -0.00083794
O        6.47889479       3.30648892       1.72048972       26      -0.00277094       0.00007601       0.00154423
O        3.72545882       2.33300229       3.98962883       27       0.00214868       0.00181535       0.00146840
O        0.70595369       4.42373133       7.07911661       28       0.00214868       0.00036400      -0.00230634
O        2.31355144      -0.15350622       0.31713024       29      -0.00214868      -0.00036400       0.00230634
O       -3.45938966       0.96373620       5.67575712       30       0.00277094      -0.00007601      -0.00154423
O        5.12309940       0.79543547       2.01199513       31       0.00037305      -0.00092379       0.00301263
O        0.95775605       1.31008808       5.71011856       32       0.00099531      -0.00004378       0.00301263
O        3.45938966      -1.00811971       5.70138196       33      -0.00277094      -0.00137535      -0.00070629
O        2.10359427      -0.00504407       3.38099318       34       0.00037305      -0.00214712      -0.00230634
O        0.95775605      -2.11527397       7.10474144       35       0.00099531       0.00263091      -0.00146840
O       -0.70595369       1.93722282       3.40661802       36      -0.00214868      -0.00181535      -0.00146840
O       -0.95775605      -0.80518590       5.41861315       37      -0.00099531       0.00258713       0.00154423
O       -0.43988453       5.27834482       1.69486489       38       0.00277094       0.00137535       0.00070629
O        3.93541600       5.06061651       5.39298831       39      -0.00037305      -0.00307091       0.00070629
