40
Lattice="8.524389358517114 6.68116102109025e-10 9.209293658611551e-15 -2.8414631201356126 8.036871360953155 -1.1572310831756671e-09 -2.8414631191907604 -4.018435679808447 6.960134766304527" Properties=species:S:1:pos:R:3:spacegroup_kinds:I:1:forces:R:3 spacegroup="P 1" unit_cell=conventional occupancy="_JSON {\"0\": {\"In\": 1}, \"1\": {\"In\": 1}, \"2\": {\"In\": 1}, \"3\": {\"In\": 1}, \"4\": {\"In\": 1}, \"5\": {\"In\": 1}, \"6\": {\"In\": 1}, \"7\": {\"In\": 1}, \"8\": {\"In\": 1}, \"9\": {\"In\": 1}, \"10\": {\"In\": 1}, \"11\": {\"In\": 1}, \"12\": {\"In\": 1}, \"13\": {\"In\": 1}, \"14\": {\"In\": 1}, \"15\": {\"In\": 1}, \"16\": {\"O\": 1}, \"17\": {\"O\": 1}, \"18\": {\"O\": 1}, \"19\": {\"O\": 1}, \"20\": {\"O\": 1}, \"21\": {\"O\": 1}, \"22\": {\"O\": 1}, \"23\": {\"O\": 1}, \"24\": {\"O\": 1}, \"25\": {\"O\": 1}, \"26\": {\"O\": 1}, \"27\": {\"O\": 1}, \"28\": {\"O\": 1}, \"29\": {\"O\": 1}, \"30\": {\"O\": 1}, \"31\": {\"O\": 1}, \"32\": {\"O\": 1}, \"33\": {\"O\": 1}, \"34\": {\"O\": 1}, \"35\": {\"O\": 1}, \"36\": {\"O\": 1}, \"37\": {\"O\": 1}, \"38\": {\"O\": 1}, \"39\": {\"O\": 1}}" n_minim_iter=4 energy=-45146.984026543 stress="-0.1648180138578845 8.054676239075096e-14 -1.072885417568001e-13 8.054676239075096e-14 -0.16481801385759406 -3.7036087921663547e-14 -1.072885417568001e-13 -3.7036087921663547e-14 -0.16481801385768738" free_energy=-45146.984026543 pbc="T T T"
In      -4.06518990       2.87452335       5.46138166        0      -0.00410538       0.00290295      -0.00502805
In       6.90665302       1.14391234       1.49875310        1       0.00410538      -0.00290295       0.00502805
In       1.22372678      -0.86530550       4.97882048        2       0.00410538      -0.00290295       0.00502805
In      -1.42073156      -2.00921784       3.48006738        3       0.00000000       0.00000000      -0.00000000
In      -1.22372678       3.87913227       3.23878679        4      -0.00410538       0.00290295       0.00502805
In       4.45919945      -2.73521993       5.22010107        5      -0.00410538      -0.00580589       0.00000000
In      -1.22372678       1.28321575       5.22010107        6      -0.00410538      -0.00580589      -0.00000000
In      -1.61773634       6.75365562       1.74003369        7       0.00410538       0.00580589      -0.00000000
In       4.06518990       0.13930342       3.72134797        8       0.00410538      -0.00290295      -0.00502805
In      -1.42073156       4.01843568      -0.00000000        9      -0.00000000       0.00000000       0.00000000
In       4.06518990       6.16695694       0.24128059       10       0.00410538      -0.00290295      -0.00502805
In      -1.22372678      -2.14852125       6.71885417       11      -0.00410538       0.00290295       0.00502805
In       4.06518990       2.73521994       1.74003369       12       0.00410538       0.00580589       0.00000000
In       1.61773633       4.88374119       1.98131428       13      -0.00410538       0.00290295      -0.00502805
In       4.26219468       0.00000000      -0.00000000       14       0.00000000      -0.00000000       0.00000000
In       1.42073156       2.00921784       3.48006738       15      -0.00000000       0.00000000      -0.00000000
O        0.81312426       4.01159812       3.81781057       16      -0.00117402      -0.00072682      -0.00099050
O       -2.02833886       3.30973972       5.05715098       17      -0.00117402      -0.00049439       0.00112470
O       -0.40357005       2.16085468       0.08694348       18      -0.00154271      -0.00023369       0.00067315
O       -0.81312426      -0.71553352       1.91482678       19       0.00117402      -0.00122121       0.00013420
O        3.79656549       4.78416604       1.82788330       20      -0.00007477       0.00160985      -0.00053895
O        1.88636075       2.81830749       1.57708360       21       0.00007477       0.00127167       0.00112470
O        1.88636075       5.98429424       0.25079970       22       0.00007477       0.00033818      -0.00166365
O       -2.17179668       5.68785812       3.56701086       23      -0.00029391       0.00153238       0.00067315
O        3.24503317       1.85758100       6.87319128       24       0.00154271       0.00023369      -0.00067315
O        5.01325980      -1.66942244       3.39312390       25       0.00029391      -0.00153238      -0.00067315
O        6.08649629       3.16494045       1.65218408       26       0.00154271       0.00046612       0.00053895
O        3.51112956       2.25441081       3.73086709       27      -0.00029391      -0.00018322      -0.00166365
O        0.66966644       4.11303812       6.62239157       28      -0.00029391      -0.00134915       0.00099050
O        2.17179668      -0.09460243       0.33774319       29       0.00029391       0.00134915      -0.00099050
O       -3.24503317       0.85349524       5.30795069       30      -0.00154271      -0.00046612      -0.00053895
O        4.86980198       0.70869596       1.90298378       31       0.00117402       0.00049439      -0.00112470
O        0.95510237       1.20012820       5.38305117       32      -0.00007477      -0.00127167      -0.00112470
O        3.24503317      -1.00408576       5.39489417       33       0.00154271      -0.00069981       0.00013420
O        2.02833886       0.00683756       3.14232419       34       0.00117402       0.00072682       0.00099050
O        0.95510237      -1.96585856       6.70933506       35      -0.00007477      -0.00033818       0.00166365
O       -0.66966644       1.76402488       3.22926767       36       0.00029391       0.00018322       0.00166365
O       -0.95510237      -0.76573036       5.13225146       37       0.00007477      -0.00160985       0.00053895
O       -0.40357005       5.02252145       1.56524059       38      -0.00154271       0.00069981      -0.00013420
O        3.65458738       4.73396920       5.04530798       39      -0.00117402       0.00122121      -0.00013420
