40
Lattice="9.470822035269324 7.422974205570793e-10 1.7328360563483012e-14 -3.1569406791229535 8.929176645819126 -1.2857170591352277e-09 -3.156940678073201 -4.464588322167253 7.732893811015219" Properties=species:S:1:pos:R:3:spacegroup_kinds:I:1:forces:R:3 spacegroup="P 1" unit_cell=conventional occupancy="_JSON {\"0\": {\"In\": 1}, \"1\": {\"In\": 1}, \"2\": {\"In\": 1}, \"3\": {\"In\": 1}, \"4\": {\"In\": 1}, \"5\": {\"In\": 1}, \"6\": {\"In\": 1}, \"7\": {\"In\": 1}, \"8\": {\"In\": 1}, \"9\": {\"In\": 1}, \"10\": {\"In\": 1}, \"11\": {\"In\": 1}, \"12\": {\"In\": 1}, \"13\": {\"In\": 1}, \"14\": {\"In\": 1}, \"15\": {\"In\": 1}, \"16\": {\"O\": 1}, \"17\": {\"O\": 1}, \"18\": {\"O\": 1}, \"19\": {\"O\": 1}, \"20\": {\"O\": 1}, \"21\": {\"O\": 1}, \"22\": {\"O\": 1}, \"23\": {\"O\": 1}, \"24\": {\"O\": 1}, \"25\": {\"O\": 1}, \"26\": {\"O\": 1}, \"27\": {\"O\": 1}, \"28\": {\"O\": 1}, \"29\": {\"O\": 1}, \"30\": {\"O\": 1}, \"31\": {\"O\": 1}, \"32\": {\"O\": 1}, \"33\": {\"O\": 1}, \"34\": {\"O\": 1}, \"35\": {\"O\": 1}, \"36\": {\"O\": 1}, \"37\": {\"O\": 1}, \"38\": {\"O\": 1}, \"39\": {\"O\": 1}}" n_minim_iter=1 energy=-45145.19036987638 stress="0.10108318248623706 8.747563287363719e-15 8.724363781818483e-14 8.747563287363719e-15 0.10108318248599539 8.82222953353126e-14 8.724363781818483e-14 8.82222953353126e-14 0.10108318248612039" free_energy=-45145.19036987638 pbc="T T T"
In      -4.48871170       3.17399848       6.10181409        0       0.03306052      -0.02337732       0.04049070
In       7.64565237       1.29058985       1.63107972        1      -0.03306052       0.02337732      -0.04049070
In       1.33177101      -0.94170431       5.49752662        2      -0.03306052       0.02337732      -0.04049070
In      -1.57847034      -2.23229416       3.86644690        3       0.00000000      -0.00000000      -0.00000000
In      -1.33177102       4.29014556       3.56430317        4       0.03306052      -0.02337732      -0.04049070
In       4.98211034      -2.99955571       5.79967036        5       0.03306052       0.04675463      -0.00000000
In      -1.33177102       1.46503261       5.79967036        6       0.03306052       0.04675463      -0.00000000
In      -1.82516966       7.46414404       1.93322345        7      -0.03306052      -0.04675463       0.00000000
In       4.48871169       0.17444277       4.16859063        8      -0.03306052       0.02337732       0.04049070
In      -1.57847034       4.46458832      -0.00000000        9      -0.00000000       0.00000000      -0.00000000
In       4.48871169       6.87132525       0.30214373       10      -0.03306052       0.02337732       0.04049070
In      -1.33177102      -2.40673692       7.43075008       11       0.03306052      -0.02337732      -0.04049070
In       4.48871169       2.99955572       1.93322345       12      -0.03306052      -0.04675463       0.00000000
In       1.82516966       5.40629264       2.23536718       13       0.03306052      -0.02337732       0.04049070
In       4.73541102       0.00000000      -0.00000000       14      -0.00000000       0.00000000      -0.00000000
In       1.57847034       2.23229416       3.86644690       15      -0.00000000      -0.00000000      -0.00000000
O        1.06449811       4.48425940       4.16938602       16       0.03407350       0.01825232      -0.05876146
O       -2.09244257       3.60095868       5.63116515       17       0.03407350      -0.06001508       0.01357376
O       -0.44085907       2.43311279      -0.07896024       18      -0.02801647      -0.01611084      -0.06247062
O       -1.06449811      -0.84395857       2.06765736       19      -0.03407350      -0.04176276      -0.04518770
O        4.09249726       5.26295918       2.14661760       20      -0.06794059       0.00569533       0.01728292
O        2.22138409       3.00474837       1.76471824       21       0.06794059      -0.01211978       0.01357376
O        2.22138409       6.72279913       0.38189936       22       0.06794059       0.01781511       0.00370916
O       -2.44091376       6.30149080       3.78748666       23       0.00585062       0.03178446      -0.06247062
O        3.59779974       2.03147554       7.81185405       24       0.02801647       0.01611084       0.06247062
O        5.59785444      -1.83690248       3.94540714       25      -0.00585062      -0.03178446       0.06247062
O        6.75474042       3.38046899       1.71982930       26       0.02801647      -0.06215656      -0.01728292
O        3.87296760       2.36160843       4.24834626       27       0.00585062      -0.06999338       0.00370916
O        0.71602692       4.73066574       7.42995469       28       0.00585062       0.03820891       0.05876146
O        2.44091376      -0.26607741       0.30293912       29      -0.00585062      -0.03820891      -0.05876146
O       -3.59779975       1.08411934       6.01306451       30      -0.02801647       0.06215656       0.01728292
O        5.24938324       0.86362964       2.10172866       31      -0.03407350       0.06001508      -0.01357376
O        0.93555658       1.45983995       5.96817556       32      -0.06794059       0.01211978      -0.01357376
O        3.59779974      -0.94735619       5.93410427       33       0.02801647       0.04604573      -0.04518770
O        2.09244257      -0.01967107       3.56350778       34      -0.03407350      -0.01825232       0.05876146
O        0.93555658      -2.25821080       7.35099445       35      -0.06794059      -0.01781511      -0.00370916
O       -0.71602692       2.10297989       3.48454754       36      -0.00585062       0.06999338      -0.00370916
O       -0.93555658      -0.79837085       5.58627620       37       0.06794059      -0.00569533      -0.01728292
O       -0.44085907       5.41194452       1.79878954       38      -0.02801647      -0.04604573       0.04518770
O        4.22143879       5.30854690       5.66523644       39       0.03407350       0.04176276       0.04518770
40
Lattice="9.470822035269322 7.422974205570797e-10 1.732836056348301e-14 -3.1569406791229544 8.929176645819126 -1.2857170591352277e-09 -3.1569406780732017 -4.464588322167253 7.732893811015222" Properties=species:S:1:pos:R:3:spacegroup_kinds:I:1:forces:R:3 spacegroup="P 1" unit_cell=conventional occupancy="_JSON {\"0\": {\"In\": 1}, \"1\": {\"In\": 1}, \"2\": {\"In\": 1}, \"3\": {\"In\": 1}, \"4\": {\"In\": 1}, \"5\": {\"In\": 1}, \"6\": {\"In\": 1}, \"7\": {\"In\": 1}, \"8\": {\"In\": 1}, \"9\": {\"In\": 1}, \"10\": {\"In\": 1}, \"11\": {\"In\": 1}, \"12\": {\"In\": 1}, \"13\": {\"In\": 1}, \"14\": {\"In\": 1}, \"15\": {\"In\": 1}, \"16\": {\"O\": 1}, \"17\": {\"O\": 1}, \"18\": {\"O\": 1}, \"19\": {\"O\": 1}, \"20\": {\"O\": 1}, \"21\": {\"O\": 1}, \"22\": {\"O\": 1}, \"23\": {\"O\": 1}, \"24\": {\"O\": 1}, \"25\": {\"O\": 1}, \"26\": {\"O\": 1}, \"27\": {\"O\": 1}, \"28\": {\"O\": 1}, \"29\": {\"O\": 1}, \"30\": {\"O\": 1}, \"31\": {\"O\": 1}, \"32\": {\"O\": 1}, \"33\": {\"O\": 1}, \"34\": {\"O\": 1}, \"35\": {\"O\": 1}, \"36\": {\"O\": 1}, \"37\": {\"O\": 1}, \"38\": {\"O\": 1}, \"39\": {\"O\": 1}}" n_minim_iter=2 energy=-45145.20172946578 stress="0.09943396498475662 -1.4801479777021343e-13 7.304542158327218e-14 -1.4801479777021343e-13 0.0994339649849903 -2.02873012395625e-14 7.304542158327218e-14 -2.02873012395625e-14 0.09943396498492739" free_energy=-45145.20172946578 pbc="T T T"
In      -4.48393729       3.17062247       6.10766151        0      -0.00472432       0.00334060      -0.00578609
In       7.64087797       1.29396586       1.62523229        1       0.00472432      -0.00334060       0.00578609
In       1.32699661      -0.93832830       5.49167920        2       0.00472432      -0.00334060       0.00578609
In      -1.57847034      -2.23229416       3.86644690        3      -0.00000000       0.00000000       0.00000000
In      -1.32699661       4.28676955       3.55845574        4      -0.00472432       0.00334060       0.00578609
In       4.98688474      -2.99280368       5.79967036        5      -0.00472432      -0.00668120       0.00000000
In      -1.32699661       1.47178464       5.79967036        6      -0.00472432      -0.00668120       0.00000000
In      -1.82994407       7.45739201       1.93322345        7       0.00472432       0.00668120      -0.00000000
In       4.48393729       0.17781878       4.17443806        8       0.00472432      -0.00334060      -0.00578609
In      -1.57847034       4.46458832      -0.00000000        9      -0.00000000       0.00000000       0.00000000
In       4.48393729       6.87470126       0.30799115       10       0.00472432      -0.00334060      -0.00578609
In      -1.32699661      -2.41011294       7.42490265       11      -0.00472432       0.00334060       0.00578609
In       4.48393729       2.99280369       1.93322345       12       0.00472432       0.00668120      -0.00000000
In       1.82994406       5.40291663       2.24121461       13      -0.00472432       0.00334060      -0.00578609
In       4.73541102       0.00000000      -0.00000000       14       0.00000000       0.00000000      -0.00000000
In       1.57847034       2.23229416       3.86644690       15      -0.00000000       0.00000000       0.00000000
O        1.06941880       4.48689529       4.16090004       16       0.03088802      -0.00821375       0.01355170
O       -2.08752188       3.59229166       5.63312539       17       0.03088802       0.01584299       0.00033747
O       -0.44490504       2.43078616      -0.08798188       18       0.01748893       0.02531758      -0.01607301
O       -1.06941881      -0.84998970       2.06113162       19      -0.03088802       0.00762924       0.01388917
O        4.08268568       5.26378167       2.14911350       20       0.00464091      -0.01690900       0.02996217
O        2.23119567       3.00299811       1.76667848       21      -0.00464091      -0.03440250       0.00033747
O        2.23119567       6.72537188       0.38243501       22      -0.00464091       0.01749351       0.02962471
O       -2.44006885       6.30608093       3.77846503       23      -0.01804001      -0.02492791      -0.01607301
O        3.60184572       2.03380217       7.82087568       24      -0.01748893      -0.02531758       0.01607301
O        5.59700952      -1.84149260       3.95442878       25       0.01804001       0.02492791       0.01607301
O        6.75878640       3.37149270       1.71733340       26      -0.01748893      -0.00126084      -0.02996217
O        3.87381251       2.35150040       4.24888192       27      -0.01804001      -0.00145568       0.02962471
O        0.71687183       4.73618364       7.43844067       28      -0.01804001       0.02638359      -0.01355170
O        2.44006885      -0.27159532       0.29445314       29       0.01804001      -0.02638359       0.01355170
O       -3.60184572       1.09309562       6.01556040       30       0.01748893       0.00126084       0.02996217
O        5.24446255       0.87229667       2.09976842       31      -0.03088802      -0.01584299      -0.00033747
O        0.92574500       1.46159022       5.96621532       32       0.00464091       0.03440250      -0.00033747
O        3.60184572      -0.94070654       5.92757853       33      -0.01748893       0.02657842       0.01388917
O        2.08752187      -0.02230696       3.57199376       34      -0.03088802       0.00821375      -0.01355170
O        0.92574500      -2.26078356       7.35045879       35       0.00464091      -0.01749351      -0.02962471
O       -0.71687183       2.11308792       3.48401189       36       0.01804001       0.00145568      -0.02962471
O       -0.92574500      -0.79919334       5.58378031       37      -0.00464091       0.01690900      -0.02996217
O       -0.44490504       5.40529487       1.80531528       38       0.01748893      -0.02657842      -0.01388917
O        4.22635948       5.31457803       5.67176218       39       0.03088802      -0.00762924      -0.01388917
40
Lattice="9.470822035269308 7.422974205570788e-10 1.7328360563482997e-14 -3.156940679122951 8.929176645819114 -1.2857170591352262e-09 -3.156940678073198 -4.464588322167247 7.732893811015214" Properties=species:S:1:pos:R:3:spacegroup_kinds:I:1:forces:R:3 spacegroup="P 1" unit_cell=conventional occupancy="_JSON {\"0\": {\"In\": 1}, \"1\": {\"In\": 1}, \"2\": {\"In\": 1}, \"3\": {\"In\": 1}, \"4\": {\"In\": 1}, \"5\": {\"In\": 1}, \"6\": {\"In\": 1}, \"7\": {\"In\": 1}, \"8\": {\"In\": 1}, \"9\": {\"In\": 1}, \"10\": {\"In\": 1}, \"11\": {\"In\": 1}, \"12\": {\"In\": 1}, \"13\": {\"In\": 1}, \"14\": {\"In\": 1}, \"15\": {\"In\": 1}, \"16\": {\"O\": 1}, \"17\": {\"O\": 1}, \"18\": {\"O\": 1}, \"19\": {\"O\": 1}, \"20\": {\"O\": 1}, \"21\": {\"O\": 1}, \"22\": {\"O\": 1}, \"23\": {\"O\": 1}, \"24\": {\"O\": 1}, \"25\": {\"O\": 1}, \"26\": {\"O\": 1}, \"27\": {\"O\": 1}, \"28\": {\"O\": 1}, \"29\": {\"O\": 1}, \"30\": {\"O\": 1}, \"31\": {\"O\": 1}, \"32\": {\"O\": 1}, \"33\": {\"O\": 1}, \"34\": {\"O\": 1}, \"35\": {\"O\": 1}, \"36\": {\"O\": 1}, \"37\": {\"O\": 1}, \"38\": {\"O\": 1}, \"39\": {\"O\": 1}}" n_minim_iter=3 energy=-45145.20712846743 stress="0.09954428742923205 -1.1447636000070856e-14 -1.0649022944199742e-15 -1.1447636000070856e-14 0.09954428742930052 4.7571719356506166e-15 -1.0649022944199742e-15 4.7571719356506166e-15 0.09954428742932732" free_energy=-45145.20712846743 pbc="T T T"
In      -4.48525943       3.17155736       6.10604223        0       0.00767010      -0.00542358       0.00939391
In       7.64220011       1.29303097       1.62685158        1      -0.00767010       0.00542358      -0.00939391
In       1.32831875      -0.93926320       5.49329848        2      -0.00767010       0.00542358      -0.00939391
In      -1.57847034      -2.23229416       3.86644690        3       0.00000000      -0.00000000      -0.00000000
In      -1.32831875       4.28770444       3.56007503        4       0.00767010      -0.00542358      -0.00939391
In       4.98556260      -2.99467347       5.79967036        5       0.00767010       0.01084716      -0.00000000
In      -1.32831875       1.46991485       5.79967036        6       0.00767010       0.01084716       0.00000000
In      -1.82862193       7.45926180       1.93322345        7      -0.00767010      -0.01084716      -0.00000000
In       4.48525943       0.17688389       4.17281878        8      -0.00767010       0.00542358       0.00939391
In      -1.57847034       4.46458832      -0.00000000        9      -0.00000000      -0.00000000      -0.00000000
In       4.48525943       6.87376637       0.30637187       10      -0.00767010       0.00542358       0.00939391
In      -1.32831875      -2.40917804       7.42652194       11       0.00767010      -0.00542358      -0.00939391
In       4.48525943       2.99467348       1.93322345       12      -0.00767010      -0.01084716      -0.00000000
In       1.82862192       5.40385152       2.23959532       13       0.00767010      -0.00542358       0.00939391
In       4.73541102       0.00000000      -0.00000000       14      -0.00000000       0.00000000      -0.00000000
In       1.57847034       2.23229416       3.86644690       15       0.00000000       0.00000000      -0.00000000
O        1.07857870       4.48451577       4.16476693       16       0.02321519       0.01569983      -0.01917379
O       -2.07836198       3.59683025       5.63325267       17       0.02321519      -0.02445490      -0.00400955
O       -0.43981616       2.43820338      -0.09284055       18      -0.00051597      -0.00767444      -0.03307417
O       -1.07857870      -0.84783063       2.06512579       19      -0.02321519      -0.00875508      -0.02318334
O        4.08391140       5.25881745       2.15796634       20      -0.03079470      -0.01034030       0.00989083
O        2.22996995       2.99284921       1.76680576       21       0.03079470      -0.01373586      -0.00400955
O        2.22996995       6.73055656       0.39116057       22       0.03079470       0.00339555       0.01390038
O       -2.44536558       6.29881067       3.77360636       23       0.00706354       0.00304460      -0.03307417
O        3.59675683       2.02638494       7.82573435       24       0.00051597       0.00767444       0.03307417
O        5.60230626      -1.83422235       3.95928745       25      -0.00706354      -0.00304460       0.03307417
O        6.75369751       3.37099358       1.70848056       26       0.00051597      -0.03248029      -0.00989083
O        3.86851578       2.35092780       4.25760748       27       0.00706354      -0.03016537       0.01390038
O        0.71157510       4.74402650       7.43457378       28       0.00706354       0.02712077       0.01917379
O        2.44536558      -0.27943818       0.29832003       29      -0.00706354      -0.02712077      -0.01917379
O       -3.59675684       1.09359475       6.02441324       30      -0.00051597       0.03248029       0.00989083
O        5.23530266       0.86775808       2.09964114       31      -0.02321519       0.02445490       0.00400955
O        0.92697072       1.47173911       5.96608804       32      -0.03079470       0.01373586       0.00400955
O        3.59675683      -0.93279020       5.93157270       33       0.00051597       0.02480585      -0.02318334
O        2.07836198      -0.01992744       3.56812687       34      -0.02321519      -0.01569983       0.01917379
O        0.92697072      -2.26596823       7.34173323       35      -0.03079470      -0.00339555      -0.01390038
O       -0.71157510       2.11366053       3.47528633       36      -0.00706354       0.03016537      -0.01390038
O       -0.92697072      -0.79422912       5.57492747       37       0.03079470       0.01034030      -0.00989083
O       -0.43981616       5.39737852       1.80132111       38      -0.00051597      -0.02480585       0.02318334
O        4.23551938       5.31241896       5.66776801       39       0.02321519       0.00875508       0.02318334
40
Lattice="9.470822035269281 7.422974205570769e-10 1.7328360563482924e-14 -3.1569406791229424 8.92917664581909 -1.2857170591352227e-09 -3.1569406780731897 -4.464588322167235 7.7328938110151935" Properties=species:S:1:pos:R:3:spacegroup_kinds:I:1:forces:R:3 spacegroup="P 1" unit_cell=conventional occupancy="_JSON {\"0\": {\"In\": 1}, \"1\": {\"In\": 1}, \"2\": {\"In\": 1}, \"3\": {\"In\": 1}, \"4\": {\"In\": 1}, \"5\": {\"In\": 1}, \"6\": {\"In\": 1}, \"7\": {\"In\": 1}, \"8\": {\"In\": 1}, \"9\": {\"In\": 1}, \"10\": {\"In\": 1}, \"11\": {\"In\": 1}, \"12\": {\"In\": 1}, \"13\": {\"In\": 1}, \"14\": {\"In\": 1}, \"15\": {\"In\": 1}, \"16\": {\"O\": 1}, \"17\": {\"O\": 1}, \"18\": {\"O\": 1}, \"19\": {\"O\": 1}, \"20\": {\"O\": 1}, \"21\": {\"O\": 1}, \"22\": {\"O\": 1}, \"23\": {\"O\": 1}, \"24\": {\"O\": 1}, \"25\": {\"O\": 1}, \"26\": {\"O\": 1}, \"27\": {\"O\": 1}, \"28\": {\"O\": 1}, \"29\": {\"O\": 1}, \"30\": {\"O\": 1}, \"31\": {\"O\": 1}, \"32\": {\"O\": 1}, \"33\": {\"O\": 1}, \"34\": {\"O\": 1}, \"35\": {\"O\": 1}, \"36\": {\"O\": 1}, \"37\": {\"O\": 1}, \"38\": {\"O\": 1}, \"39\": {\"O\": 1}}" n_minim_iter=4 energy=-45145.21304301885 stress="0.09799485644480987 1.0130425288775345e-13 1.1188663985737218e-13 1.0130425288775345e-13 0.09799485644455831 1.0953129159405841e-14 1.1188663985737218e-13 1.0953129159405841e-14 0.0979948564447942" free_energy=-45145.21304301885 pbc="T T T"
In      -4.48314988       3.17006569       6.10862589        0      -0.00929908       0.00657544      -0.01138900
In       7.64009056       1.29452264       1.62426792        1       0.00929908      -0.00657544       0.01138900
In       1.32620920      -0.93777152       5.49071482        2       0.00929908      -0.00657544       0.01138900
In      -1.57847034      -2.23229416       3.86644690        3       0.00000000      -0.00000000      -0.00000000
In      -1.32620921       4.28621277       3.55749137        4      -0.00929908       0.00657544       0.01138900
In       4.98767215      -2.99169012       5.79967036        5      -0.00929908      -0.01315088       0.00000000
In      -1.32620921       1.47289820       5.79967036        6      -0.00929908      -0.01315088      -0.00000000
In      -1.83073148       7.45627845       1.93322345        7       0.00929908       0.01315088      -0.00000000
In       4.48314988       0.17837556       4.17540243        8       0.00929908      -0.00657544      -0.01138900
In      -1.57847034       4.46458832      -0.00000000        9       0.00000000      -0.00000000      -0.00000000
In       4.48314988       6.87525805       0.30895553       10       0.00929908      -0.00657544      -0.01138900
In      -1.32620921      -2.41066972       7.42393828       11      -0.00929908       0.00657544       0.01138900
In       4.48314988       2.99169013       1.93322345       12       0.00929908       0.01315088      -0.00000000
In       1.83073147       5.40235985       2.24217898       13      -0.00929908       0.00657544      -0.01138900
In       4.73541102       0.00000000      -0.00000000       14      -0.00000000      -0.00000000       0.00000000
In       1.57847034       2.23229416       3.86644690       15       0.00000000      -0.00000000      -0.00000000
O        1.10394494       4.48258313       4.16405991       16      -0.00506330       0.04312507      -0.00773424
O       -2.05299574       3.59718427       5.63527989       17      -0.00506330      -0.02826058      -0.03348029
O       -0.43284908       2.45156758      -0.11334760       18       0.01232661      -0.04055711      -0.01218208
O       -1.10394494      -0.84940925       2.06644600       19       0.00506330       0.01486449      -0.04121453
O        4.07578976       5.24855631       2.17979360       20      -0.02495656      -0.02189782      -0.02903244
O        2.23809159       2.96881568       1.76883299       21       0.02495656       0.01419392      -0.03348029
O        2.23809159       6.74432895       0.41096061       22       0.02495656      -0.03609174       0.00444785
O       -2.45564310       6.28778732       3.75309930       23       0.04234648       0.00189740      -0.01218208
O        3.58978975       2.01302075       7.84624141       24      -0.01232661       0.04055711       0.01218208
O        5.61258378      -1.82319899       3.97979450       25      -0.04234648      -0.00189740       0.01218208
O        6.74673043       3.35991605       1.68665330       26      -0.01232661      -0.03082855       0.02903244
O        3.85823825       2.33867985       4.27740751       27       0.04234648      -0.01149869       0.00444785
O        0.70129758       4.76729781       7.43528080       28       0.04234648       0.00960129       0.00773424
O        2.45564310      -0.30270948       0.29761301       29      -0.04234648      -0.00960129      -0.00773424
O       -3.58978976       1.10467228       6.04624050       30       0.01232661       0.03082855      -0.02903244
O        5.20993641       0.86740406       2.09761391       31       0.00506330       0.02826058       0.03348029
O        0.91884908       1.49577264       5.96406082       32      -0.02495656      -0.01419392       0.03348029
O        3.58978975      -0.90834847       5.93289290       33      -0.01232661      -0.00972856      -0.04121453
O        2.05299574      -0.01799480       3.56883389       34       0.00506330      -0.04312507       0.00773424
O        0.91884908      -2.27974062       7.32193320       35      -0.02495656       0.03609174      -0.00444785
O       -0.70129758       2.12590848       3.45548629       36      -0.04234648       0.01149869      -0.00444785
O       -0.91884909      -0.78396798       5.55310021       37       0.02495656       0.02189782       0.02903244
O       -0.43284908       5.37293680       1.80000090       38       0.01232661       0.00972856       0.04121453
O        4.26088562       5.31399758       5.66644781       39      -0.00506330      -0.01486449       0.04121453
40
Lattice="9.470822035269292 7.422974205570777e-10 1.732836056348291e-14 -3.1569406791229455 8.9291766458191 -1.2857170591352241e-09 -3.156940678073193 -4.4645883221672396 7.732893811015202" Properties=species:S:1:pos:R:3:spacegroup_kinds:I:1:forces:R:3 spacegroup="P 1" unit_cell=conventional occupancy="_JSON {\"0\": {\"In\": 1}, \"1\": {\"In\": 1}, \"2\": {\"In\": 1}, \"3\": {\"In\": 1}, \"4\": {\"In\": 1}, \"5\": {\"In\": 1}, \"6\": {\"In\": 1}, \"7\": {\"In\": 1}, \"8\": {\"In\": 1}, \"9\": {\"In\": 1}, \"10\": {\"In\": 1}, \"11\": {\"In\": 1}, \"12\": {\"In\": 1}, \"13\": {\"In\": 1}, \"14\": {\"In\": 1}, \"15\": {\"In\": 1}, \"16\": {\"O\": 1}, \"17\": {\"O\": 1}, \"18\": {\"O\": 1}, \"19\": {\"O\": 1}, \"20\": {\"O\": 1}, \"21\": {\"O\": 1}, \"22\": {\"O\": 1}, \"23\": {\"O\": 1}, \"24\": {\"O\": 1}, \"25\": {\"O\": 1}, \"26\": {\"O\": 1}, \"27\": {\"O\": 1}, \"28\": {\"O\": 1}, \"29\": {\"O\": 1}, \"30\": {\"O\": 1}, \"31\": {\"O\": 1}, \"32\": {\"O\": 1}, \"33\": {\"O\": 1}, \"34\": {\"O\": 1}, \"35\": {\"O\": 1}, \"36\": {\"O\": 1}, \"37\": {\"O\": 1}, \"38\": {\"O\": 1}, \"39\": {\"O\": 1}}" n_minim_iter=5 energy=-45145.21418720219 stress="0.09809337453609064 -2.6475236680390616e-14 7.064941264247595e-14 -2.6475236680390616e-14 0.0980933745359958 -5.104973523997573e-15 7.064941264247595e-14 -5.104973523997573e-15 0.09809337453597171" free_energy=-45145.21418720219 pbc="T T T"
In      -4.48320154       3.17010221       6.10856262        0      -0.00974964       0.00689404      -0.01194082
In       7.64014221       1.29448612       1.62433118        1       0.00974964      -0.00689404       0.01194082
In       1.32626086      -0.93780804       5.49077809        2       0.00974964      -0.00689404       0.01194082
In      -1.57847034      -2.23229416       3.86644690        3       0.00000000       0.00000000       0.00000000
In      -1.32626086       4.28624929       3.55755463        4      -0.00974964       0.00689404       0.01194082
In       4.98762050      -2.99176317       5.79967036        5      -0.00974964      -0.01378807      -0.00000000
In      -1.32626086       1.47282515       5.79967036        6      -0.00974964      -0.01378807      -0.00000000
In      -1.83067982       7.45635150       1.93322345        7       0.00974964       0.01378807      -0.00000000
In       4.48320153       0.17833904       4.17533917        8       0.00974964      -0.00689404      -0.01194082
In      -1.57847034       4.46458832      -0.00000000        9       0.00000000      -0.00000000      -0.00000000
In       4.48320153       6.87522152       0.30889227       10       0.00974964      -0.00689404      -0.01194082
In      -1.32626086      -2.41063319       7.42400154       11      -0.00974964       0.00689404       0.01194082
In       4.48320153       2.99176317       1.93322345       12       0.00974964       0.01378807      -0.00000000
In       1.83067982       5.40239637       2.24211572       13      -0.00974964       0.00689404      -0.01194082
In       4.73541102       0.00000000      -0.00000000       14       0.00000000      -0.00000000      -0.00000000
In       1.57847034       2.23229416       3.86644690       15      -0.00000000      -0.00000000       0.00000000
O        1.09663731       4.48407197       4.16291860       16       0.00671165       0.02149026      -0.00053692
O       -2.06030337       3.59545145       5.63456118       17       0.00671165      -0.01121012      -0.01834265
O       -0.43551499       2.44655256      -0.10838139       18       0.01192943      -0.01489964      -0.01195221
O       -1.09663731      -0.84965324       2.06458597       19      -0.00671165       0.01028014      -0.01887957
O        4.07659192       5.25166754       2.17296736       20      -0.01280622      -0.01718075      -0.00692736
O        2.23728944       2.97628300       1.76811427       21       0.01280622      -0.00259110      -0.01834265
O        2.23728944       6.73997287       0.40485308       22       0.01280622      -0.01458965       0.01141529
O       -2.45180354       6.29197243       3.75806551       23       0.01802399      -0.00628063      -0.01195221
O        3.59245566       2.01803577       7.84127520       24      -0.01192943       0.01489964       0.01195221
O        5.60874421      -1.82738411       3.97482829       25      -0.01802399       0.00628063       0.01195221
O        6.74939634       3.36170941       1.69347954       26      -0.01192943      -0.01780073       0.00692736
O        3.86207782       2.34088815       4.27129999       27       0.01802399      -0.00721060       0.01141529
O        0.70513714       4.76090439       7.43642211       28       0.01802399       0.01349123       0.00053692
O        2.45180353      -0.29631606       0.29647169       29      -0.01802399      -0.01349123      -0.00053692
O       -3.59245567       1.10287892       6.03941426       30       0.01192943       0.01780073      -0.00692736
O        5.21724405       0.86913688       2.09833263       31      -0.00671165       0.01121012       0.01834265
O        0.91965124       1.48830533       5.96477953       32      -0.01280622       0.00259110       0.01834265
O        3.59245566      -0.91515684       5.93103288       33      -0.01192943       0.00290109      -0.01887957
O        2.06030337      -0.01948364       3.56997521       34      -0.00671165      -0.02149026       0.00053692
O        0.91965124      -2.27538454       7.32804072       35      -0.01280622       0.01458965      -0.01141529
O       -0.70513714       2.12370017       3.46159382       36      -0.01802399       0.00721060      -0.01141529
O       -0.91965124      -0.78707921       5.55992645       37       0.01280622       0.01718075       0.00692736
O       -0.43551499       5.37974517       1.80186093       38       0.01192943      -0.00290109       0.01887957
O        4.25357798       5.31424156       5.66830783       39       0.00671165      -0.01028014       0.01887957
40