40
Lattice="8.524389358517116 6.681161021090247e-10 9.20929365861154e-15 -2.8414631201356113 8.036871360953157 -1.157231083175667e-09 -2.841463119190759 -4.018435679808448 6.960134766304528" Properties=species:S:1:pos:R:3:spacegroup_kinds:I:1:forces:R:3 spacegroup="P 1" unit_cell=conventional occupancy="_JSON {\"0\": {\"In\": 1}, \"1\": {\"In\": 1}, \"2\": {\"In\": 1}, \"3\": {\"In\": 1}, \"4\": {\"In\": 1}, \"5\": {\"In\": 1}, \"6\": {\"In\": 1}, \"7\": {\"In\": 1}, \"8\": {\"In\": 1}, \"9\": {\"In\": 1}, \"10\": {\"In\": 1}, \"11\": {\"In\": 1}, \"12\": {\"In\": 1}, \"13\": {\"In\": 1}, \"14\": {\"In\": 1}, \"15\": {\"In\": 1}, \"16\": {\"O\": 1}, \"17\": {\"O\": 1}, \"18\": {\"O\": 1}, \"19\": {\"O\": 1}, \"20\": {\"O\": 1}, \"21\": {\"O\": 1}, \"22\": {\"O\": 1}, \"23\": {\"O\": 1}, \"24\": {\"O\": 1}, \"25\": {\"O\": 1}, \"26\": {\"O\": 1}, \"27\": {\"O\": 1}, \"28\": {\"O\": 1}, \"29\": {\"O\": 1}, \"30\": {\"O\": 1}, \"31\": {\"O\": 1}, \"32\": {\"O\": 1}, \"33\": {\"O\": 1}, \"34\": {\"O\": 1}, \"35\": {\"O\": 1}, \"36\": {\"O\": 1}, \"37\": {\"O\": 1}, \"38\": {\"O\": 1}, \"39\": {\"O\": 1}}" n_minim_iter=1 energy=-45146.978061509726 stress="-0.1657841470079174 -1.469322293633698e-13 3.3499349676769126e-13 -1.469322293633698e-13 -0.1657841470082945 -1.1589819586175685e-13 3.3499349676769126e-13 -1.1589819586175685e-13 -0.16578414700799707" free_energy=-45146.978061509726 pbc="T T T"
In      -4.06552611       2.87476108       5.46096990        0      -0.01836047       0.01298281      -0.02248689
In       6.90698922       1.14367461       1.49916486        1       0.01836047      -0.01298281       0.02248689
In       1.22406298      -0.86554324       4.97923224        2       0.01836047      -0.01298281       0.02248689
In      -1.42073156      -2.00921784       3.48006738        3       0.00000000      -0.00000000      -0.00000000
In      -1.22406299       3.87937000       3.23919855        4      -0.01836047       0.01298281       0.02248689
In       4.45886325      -2.73569539       5.22010107        5      -0.01836047      -0.02596562       0.00000000
In      -1.22406299       1.28274029       5.22010107        6      -0.01836047      -0.02596562      -0.00000000
In      -1.61740014       6.75413108       1.74003369        7       0.01836047       0.02596562      -0.00000000
In       4.06552610       0.13906569       3.72093621        8       0.01836047      -0.01298281      -0.02248689
In      -1.42073156       4.01843568      -0.00000000        9       0.00000000       0.00000000       0.00000000
In       4.06552610       6.16671921       0.24086883       10       0.01836047      -0.01298281      -0.02248689
In      -1.22406299      -2.14828352       6.71926594       11      -0.01836047       0.01298281       0.02248689
In       4.06552610       2.73569540       1.74003369       12       0.01836047       0.02596562       0.00000000
In       1.61740013       4.88397892       1.98090252       13      -0.01836047       0.01298281      -0.02248689
In       4.26219468       0.00000000      -0.00000000       14       0.00000000       0.00000000       0.00000000
In       1.42073156       2.00921784       3.48006738       15       0.00000000      -0.00000000      -0.00000000
O        0.81775185       4.01274096       3.81288053       16      -0.02500369      -0.00913079       0.07761924
O       -2.02371127       3.30489877       5.05862627       17      -0.02500369       0.07178563      -0.03090212
O       -0.40551414       2.16066060       0.08037014       18       0.05073698       0.01822889       0.06186088
O       -0.81775185      -0.71923164       1.91137204       19       0.02500369       0.06265484       0.04671712
O        3.79045886       4.78406904       1.83100190       20       0.07601471      -0.02693944      -0.01514376
O        1.89246738       2.81555820       1.57855889       21      -0.07601471      -0.00035484      -0.03090212
O        1.89246738       5.98694652       0.25244301       22      -0.07601471      -0.02658460       0.01575836
O       -2.17226173       5.68975572       3.56043752       23      -0.00027403      -0.05391158       0.06186088
O        3.24697726       1.85777508       6.87976462       24      -0.05073698      -0.01822889      -0.06186088
O        5.01372485      -1.67132004       3.39969724       25       0.00027403       0.05391158      -0.06186088
O        6.08844038       3.15915073       1.64906548       26      -0.05073698       0.06268754       0.01514376
O        3.51066450       2.24776933       3.73251039       27      -0.00027403       0.08052889       0.01575836
O        0.66920139       4.11778200       6.62732161       28      -0.00027403      -0.02661730      -0.07761924
O        2.17226173      -0.09934632       0.33281315       29       0.00027403       0.02661730       0.07761924
O       -3.24697726       0.85928496       5.31106928       30       0.05073698      -0.06268754      -0.01514376
O        4.86517439       0.71353692       1.90150849       31       0.02500369      -0.07178563       0.03090212
O        0.94899574       1.20287748       5.38157587       32       0.07601471       0.00035484       0.03090212
O        3.24697726      -0.99849012       5.39143942       33      -0.05073698      -0.04445865       0.04671712
O        2.02371127       0.00569472       3.14725423       34       0.02500369       0.00913079      -0.07761924
O        0.94899574      -1.96851084       6.70769175       35       0.07601471       0.02658460      -0.01575836
O       -0.66920139       1.77066636       3.22762437       36       0.00027403      -0.08052889      -0.01575836
O       -0.94899574      -0.76563336       5.12913286       37      -0.07601471       0.02693944       0.01514376
O       -0.40551414       5.01692580       1.56869534       38       0.05073698       0.04445865      -0.04671712
O        3.65921497       4.73766732       5.04876272       39      -0.02500369      -0.06265484      -0.04671712
40
Lattice="8.524389358517114 6.681161021090246e-10 9.209293658611539e-15 -2.841463120135611 8.036871360953155 -1.1572310831756667e-09 -2.8414631191907587 -4.018435679808447 6.9601347663045265" Properties=species:S:1:pos:R:3:spacegroup_kinds:I:1:forces:R:3 spacegroup="P 1" unit_cell=conventional occupancy="_JSON {\"0\": {\"In\": 1}, \"1\": {\"In\": 1}, \"2\": {\"In\": 1}, \"3\": {\"In\": 1}, \"4\": {\"In\": 1}, \"5\": {\"In\": 1}, \"6\": {\"In\": 1}, \"7\": {\"In\": 1}, \"8\": {\"In\": 1}, \"9\": {\"In\": 1}, \"10\": {\"In\": 1}, \"11\": {\"In\": 1}, \"12\": {\"In\": 1}, \"13\": {\"In\": 1}, \"14\": {\"In\": 1}, \"15\": {\"In\": 1}, \"16\": {\"O\": 1}, \"17\": {\"O\": 1}, \"18\": {\"O\": 1}, \"19\": {\"O\": 1}, \"20\": {\"O\": 1}, \"21\": {\"O\": 1}, \"22\": {\"O\": 1}, \"23\": {\"O\": 1}, \"24\": {\"O\": 1}, \"25\": {\"O\": 1}, \"26\": {\"O\": 1}, \"27\": {\"O\": 1}, \"28\": {\"O\": 1}, \"29\": {\"O\": 1}, \"30\": {\"O\": 1}, \"31\": {\"O\": 1}, \"32\": {\"O\": 1}, \"33\": {\"O\": 1}, \"34\": {\"O\": 1}, \"35\": {\"O\": 1}, \"36\": {\"O\": 1}, \"37\": {\"O\": 1}, \"38\": {\"O\": 1}, \"39\": {\"O\": 1}}" n_minim_iter=2 energy=-45146.981973987655 stress="-0.16519077894447878 -8.588699243432525e-15 1.1650320928032285e-13 -8.588699243432525e-15 -0.16519077894451012 -7.517556571847962e-15 1.1650320928032285e-13 -7.517556571847962e-15 -0.16519077894441284" free_energy=-45146.981973987655 pbc="T T T"
In      -4.06635233       2.87534531       5.45995798        0       0.02543547      -0.01798560       0.03115197
In       6.90781545       1.14309037       1.50017678        1      -0.02543547       0.01798560      -0.03115197
In       1.22488921      -0.86612747       4.98024416        2      -0.02543547       0.01798560      -0.03115197
In      -1.42073156      -2.00921784       3.48006738        3       0.00000000      -0.00000000       0.00000000
In      -1.22488921       3.87995423       3.24021047        4       0.02543547      -0.01798560      -0.03115197
In       4.45803703      -2.73686385       5.22010107        5       0.02543547       0.03597119      -0.00000000
In      -1.22488921       1.28157183       5.22010107        6       0.02543547       0.03597119      -0.00000000
In      -1.61657391       6.75529954       1.74003369        7      -0.02543547      -0.03597119       0.00000000
In       4.06635233       0.13848145       3.71992429        8      -0.02543547       0.01798560       0.03115197
In      -1.42073156       4.01843568      -0.00000000        9       0.00000000       0.00000000       0.00000000
In       4.06635233       6.16613498       0.23985691       10      -0.02543547       0.01798560       0.03115197
In      -1.22488921      -2.14769929       6.72027785       11       0.02543547      -0.01798560      -0.03115197
In       4.06635233       2.73686386       1.74003369       12      -0.02543547      -0.03597119       0.00000000
In       1.61657391       4.88456315       1.97989060       13       0.02543547      -0.01798560       0.03115197
In       4.26219468       0.00000000      -0.00000000       14       0.00000000       0.00000000       0.00000000
In       1.42073156       2.00921784       3.48006738       15       0.00000000       0.00000000      -0.00000000
O        0.81662668       4.01233007       3.81637342       16      -0.03488151      -0.02117079      -0.00448309
O       -2.02483644       3.30812914       5.05723567       17      -0.03488151       0.00670293       0.02057599
O       -0.40323096       2.16148091       0.08315390       18      -0.02526761      -0.00009513       0.03235057
O       -0.81662668      -0.71641215       1.91347432       19       0.03488151      -0.01446787       0.01609290
O        3.79387954       4.78285676       1.83032042       20       0.01794675       0.03314548      -0.01625767
O        1.88904669       2.81554223       1.57716828       21      -0.01794675       0.03065229       0.02057599
O        1.88904669       5.98575021       0.25315214       22      -0.01794675       0.00249318      -0.03683366
O       -2.17227407       5.68732968       3.56322128       23      -0.00833285       0.02385424       0.03235057
O        3.24469408       1.85695478       6.87698087       24       0.02526761       0.00009513      -0.03235057
O        5.01373718      -1.66889400       3.39691348       25       0.00833285      -0.02385424      -0.03235057
O        6.08615720       3.16197168       1.64974695       26       0.02526761       0.02796885       0.01625767
O        3.51065217       2.25139315       3.73321952       27      -0.00833285       0.01608930      -0.03683366
O        0.66918905       4.11658421       6.62382872       28      -0.00833285      -0.03994353       0.00448309
O        2.17227406      -0.09814853       0.33630604       29       0.00833285       0.03994353      -0.00448309
O       -3.24469408       0.85646400       5.31038781       30      -0.02526761      -0.02796885      -0.01625767
O        4.86629956       0.71030654       1.90289909       31       0.03488151      -0.00670293      -0.02057599
O        0.95241642       1.20289345       5.38296648       32       0.01794675      -0.03065229      -0.02057599
O        3.24469408      -1.00049077       5.39354171       33       0.02526761      -0.02806398       0.01609290
O        2.02483644       0.00610561       3.14376134       34       0.03488151       0.02117079       0.00448309
O        0.95241642      -1.96731452       6.70698262       35       0.01794675      -0.00249318       0.03683366
O       -0.66918906       1.76704253       3.22691524       36       0.00833285      -0.01608930       0.03683366
O       -0.95241643      -0.76442108       5.12981434       37      -0.01794675      -0.03314548       0.01625767
O       -0.40323096       5.01892646       1.56659305       38      -0.02526761       0.02806398      -0.01609290
O        3.65808980       4.73484784       5.04666044       39      -0.03488151       0.01446787      -0.01609290
40
Lattice="8.52438935851711 6.681161021090244e-10 9.209293658611539e-15 -2.84146312013561 8.036871360953151 -1.1572310831756663e-09 -2.841463119190758 -4.018435679808445 6.960134766304523" Properties=species:S:1:pos:R:3:spacegroup_kinds:I:1:forces:R:3 spacegroup="P 1" unit_cell=conventional occupancy="_JSON {\"0\": {\"In\": 1}, \"1\": {\"In\": 1}, \"2\": {\"In\": 1}, \"3\": {\"In\": 1}, \"4\": {\"In\": 1}, \"5\": {\"In\": 1}, \"6\": {\"In\": 1}, \"7\": {\"In\": 1}, \"8\": {\"In\": 1}, \"9\": {\"In\": 1}, \"10\": {\"In\": 1}, \"11\": {\"In\": 1}, \"12\": {\"In\": 1}, \"13\": {\"In\": 1}, \"14\": {\"In\": 1}, \"15\": {\"In\": 1}, \"16\": {\"O\": 1}, \"17\": {\"O\": 1}, \"18\": {\"O\": 1}, \"19\": {\"O\": 1}, \"20\": {\"O\": 1}, \"21\": {\"O\": 1}, \"22\": {\"O\": 1}, \"23\": {\"O\": 1}, \"24\": {\"O\": 1}, \"25\": {\"O\": 1}, \"26\": {\"O\": 1}, \"27\": {\"O\": 1}, \"28\": {\"O\": 1}, \"29\": {\"O\": 1}, \"30\": {\"O\": 1}, \"31\": {\"O\": 1}, \"32\": {\"O\": 1}, \"33\": {\"O\": 1}, \"34\": {\"O\": 1}, \"35\": {\"O\": 1}, \"36\": {\"O\": 1}, \"37\": {\"O\": 1}, \"38\": {\"O\": 1}, \"39\": {\"O\": 1}}" n_minim_iter=3 energy=-45146.983806363794 stress="-0.16487538613949174 2.898616145120065e-14 3.075568309103169e-14 2.898616145120065e-14 -0.16487538613951686 -1.298933657943602e-14 3.075568309103169e-14 -1.298933657943602e-14 -0.16487538613972513" free_energy=-45146.983806363794 pbc="T T T"
In      -4.06529022       2.87459428       5.46125881        0      -0.00085036       0.00060129      -0.00104147
In       6.90675333       1.14384141       1.49887595        1       0.00085036      -0.00060129       0.00104147
In       1.22382709      -0.86537644       4.97894334        2       0.00085036      -0.00060129       0.00104147
In      -1.42073156      -2.00921784       3.48006738        3      -0.00000000       0.00000000       0.00000000
In      -1.22382710       3.87920320       3.23890965        4      -0.00085036       0.00060129       0.00104147
In       4.45909914      -2.73536179       5.22010107        5      -0.00085036      -0.00120259       0.00000000
In      -1.22382710       1.28307389       5.22010107        6      -0.00085036      -0.00120259      -0.00000000
In      -1.61763603       6.75379748       1.74003369        7       0.00085036       0.00120259       0.00000000
In       4.06529021       0.13923249       3.72122512        8       0.00085036      -0.00060129      -0.00104147
In      -1.42073156       4.01843568      -0.00000000        9      -0.00000000      -0.00000000      -0.00000000
In       4.06529021       6.16688601       0.24115773       10       0.00085036      -0.00060129      -0.00104147
In      -1.22382710      -2.14845032       6.71897703       11      -0.00085036       0.00060129       0.00104147
In       4.06529021       2.73536180       1.74003369       12       0.00085036       0.00120259       0.00000000
In       1.61763602       4.88381212       1.98119142       13      -0.00085036       0.00060129      -0.00104147
In       4.26219468       0.00000000      -0.00000000       14      -0.00000000      -0.00000000      -0.00000000
In       1.42073156       2.00921784       3.48006738       15      -0.00000000      -0.00000000      -0.00000000
O        0.81410156       4.01092620       3.81777009       16      -0.00970722       0.01350860      -0.00217498
O       -2.02736156       3.31004063       5.05775312       17      -0.00970722      -0.00863789      -0.01061130
O       -0.40359409       2.16186363       0.08631924       18       0.00135641      -0.01646106       0.00293883
O       -0.81410156      -0.71590453       1.91538844       19       0.00970722       0.00487071      -0.01278628
O        3.79652341       4.78417666       1.82906920       20      -0.00490814      -0.00317398      -0.01572511
O        1.88640282       2.81728578       1.57768573       21       0.00490814       0.01203135      -0.01061130
O        1.88640282       5.98532656       0.25138346       22       0.00490814      -0.01520533      -0.00511381
O       -2.17275594       5.68754446       3.56638663       23       0.01597177       0.00420818       0.00293883
O        3.24505720       1.85657205       6.87381552       24      -0.00135641       0.01646106      -0.00293883
O        5.01421905      -1.66910878       3.39374814       25      -0.01597177      -0.00420818      -0.00293883
O        6.08652032       3.16490432       1.65099818       26      -0.00135641      -0.00568543       0.01572511
O        3.51017030       2.25402703       3.73145084       27       0.01597177       0.00044101      -0.00511381
O        0.66870718       4.11373555       6.62243206       28       0.01597177      -0.00464919       0.00217498
O        2.17275594      -0.09529987       0.33770271       29      -0.01597177       0.00464919      -0.00217498
O       -3.24505720       0.85353137       5.30913658       30       0.00135641       0.00568543      -0.01572511
O        4.86882468       0.70839506       1.90238164       31       0.00970722       0.00863789       0.01061130
O        0.95506029       1.20114991       5.38244903       32      -0.00490814      -0.01203135       0.01061130
O        3.24505720      -1.00304068       5.39545583       33      -0.00135641      -0.01077563      -0.01278628
O        2.02736156       0.00750948       3.14236467       34       0.00970722      -0.01350860       0.00217498
O        0.95506029      -1.96689088       6.70875130       35      -0.00490814       0.01520533       0.00511381
O       -0.66870718       1.76440865       3.22868392       36      -0.01597177      -0.00044101       0.00511381
O       -0.95506030      -0.76574097       5.13106556       37       0.00490814       0.00317398       0.01572511
O       -0.40359409       5.02147637       1.56467894       38       0.00135641       0.01077563       0.01278628
O        3.65556468       4.73434022       5.04474632       39      -0.00970722      -0.00487071       0.01278628
40
Lattice="8.524389358517114 6.68116102109025e-10 9.209293658611551e-15 -2.8414631201356126 8.036871360953155 -1.1572310831756671e-09 -2.8414631191907604 -4.018435679808447 6.960134766304527" Properties=species:S:1:pos:R:3:spacegroup_kinds:I:1:forces:R:3 spacegroup="P 1" unit_cell=conventional occupancy="_JSON {\"0\": {\"In\": 1}, \"1\": {\"In\": 1}, \"2\": {\"In\": 1}, \"3\": {\"In\": 1}, \"4\": {\"In\": 1}, \"5\": {\"In\": 1}, \"6\": {\"In\": 1}, \"7\": {\"In\": 1}, \"8\": {\"In\": 1}, \"9\": {\"In\": 1}, \"10\": {\"In\": 1}, \"11\": {\"In\": 1}, \"12\": {\"In\": 1}, \"13\": {\"In\": 1}, \"14\": {\"In\": 1}, \"15\": {\"In\": 1}, \"16\": {\"O\": 1}, \"17\": {\"O\": 1}, \"18\": {\"O\": 1}, \"19\": {\"O\": 1}, \"20\": {\"O\": 1}, \"21\": {\"O\": 1}, \"22\": {\"O\": 1}, \"23\": {\"O\": 1}, \"24\": {\"O\": 1}, \"25\": {\"O\": 1}, \"26\": {\"O\": 1}, \"27\": {\"O\": 1}, \"28\": {\"O\": 1}, \"29\": {\"O\": 1}, \"30\": {\"O\": 1}, \"31\": {\"O\": 1}, \"32\": {\"O\": 1}, \"33\": {\"O\": 1}, \"34\": {\"O\": 1}, \"35\": {\"O\": 1}, \"36\": {\"O\": 1}, \"37\": {\"O\": 1}, \"38\": {\"O\": 1}, \"39\": {\"O\": 1}}" n_minim_iter=4 energy=-45146.984026543 stress="-0.1648180138578845 8.054676239075096e-14 -1.072885417568001e-13 8.054676239075096e-14 -0.16481801385759406 -3.7036087921663547e-14 -1.072885417568001e-13 -3.7036087921663547e-14 -0.16481801385768738" free_energy=-45146.984026543 pbc="T T T"
In      -4.06518990       2.87452335       5.46138166        0      -0.00410538       0.00290295      -0.00502805
In       6.90665302       1.14391234       1.49875310        1       0.00410538      -0.00290295       0.00502805
In       1.22372678      -0.86530550       4.97882048        2       0.00410538      -0.00290295       0.00502805
In      -1.42073156      -2.00921784       3.48006738        3       0.00000000       0.00000000      -0.00000000
In      -1.22372678       3.87913227       3.23878679        4      -0.00410538       0.00290295       0.00502805
In       4.45919945      -2.73521993       5.22010107        5      -0.00410538      -0.00580589       0.00000000
In      -1.22372678       1.28321575       5.22010107        6      -0.00410538      -0.00580589      -0.00000000
In      -1.61773634       6.75365562       1.74003369        7       0.00410538       0.00580589      -0.00000000
In       4.06518990       0.13930342       3.72134797        8       0.00410538      -0.00290295      -0.00502805
In      -1.42073156       4.01843568      -0.00000000        9      -0.00000000       0.00000000       0.00000000
In       4.06518990       6.16695694       0.24128059       10       0.00410538      -0.00290295      -0.00502805
In      -1.22372678      -2.14852125       6.71885417       11      -0.00410538       0.00290295       0.00502805
In       4.06518990       2.73521994       1.74003369       12       0.00410538       0.00580589       0.00000000
In       1.61773633       4.88374119       1.98131428       13      -0.00410538       0.00290295      -0.00502805
In       4.26219468       0.00000000      -0.00000000       14       0.00000000      -0.00000000       0.00000000
In       1.42073156       2.00921784       3.48006738       15      -0.00000000       0.00000000      -0.00000000
O        0.81312426       4.01159812       3.81781057       16      -0.00117402      -0.00072682      -0.00099050
O       -2.02833886       3.30973972       5.05715098       17      -0.00117402      -0.00049439       0.00112470
O       -0.40357005       2.16085468       0.08694348       18      -0.00154271      -0.00023369       0.00067315
O       -0.81312426      -0.71553352       1.91482678       19       0.00117402      -0.00122121       0.00013420
O        3.79656549       4.78416604       1.82788330       20      -0.00007477       0.00160985      -0.00053895
O        1.88636075       2.81830749       1.57708360       21       0.00007477       0.00127167       0.00112470
O        1.88636075       5.98429424       0.25079970       22       0.00007477       0.00033818      -0.00166365
O       -2.17179668       5.68785812       3.56701086       23      -0.00029391       0.00153238       0.00067315
O        3.24503317       1.85758100       6.87319128       24       0.00154271       0.00023369      -0.00067315
O        5.01325980      -1.66942244       3.39312390       25       0.00029391      -0.00153238      -0.00067315
O        6.08649629       3.16494045       1.65218408       26       0.00154271       0.00046612       0.00053895
O        3.51112956       2.25441081       3.73086709       27      -0.00029391      -0.00018322      -0.00166365
O        0.66966644       4.11303812       6.62239157       28      -0.00029391      -0.00134915       0.00099050
O        2.17179668      -0.09460243       0.33774319       29       0.00029391       0.00134915      -0.00099050
O       -3.24503317       0.85349524       5.30795069       30      -0.00154271      -0.00046612      -0.00053895
O        4.86980198       0.70869596       1.90298378       31       0.00117402       0.00049439      -0.00112470
O        0.95510237       1.20012820       5.38305117       32      -0.00007477      -0.00127167      -0.00112470
O        3.24503317      -1.00408576       5.39489417       33       0.00154271      -0.00069981       0.00013420
O        2.02833886       0.00683756       3.14232419       34       0.00117402       0.00072682       0.00099050
O        0.95510237      -1.96585856       6.70933506       35      -0.00007477      -0.00033818       0.00166365
O       -0.66966644       1.76402488       3.22926767       36       0.00029391       0.00018322       0.00166365
O       -0.95510237      -0.76573036       5.13225146       37       0.00007477      -0.00160985       0.00053895
O       -0.40357005       5.02252145       1.56524059       38      -0.00154271       0.00069981      -0.00013420
O        3.65458738       4.73396920       5.04530798       39      -0.00117402       0.00122121      -0.00013420
