40
Lattice="8.097438937783094 6.346502601522034e-10 2.0235412729287528e-14 -2.69914631319272 7.634338643989006 -1.0992717759671038e-09 -2.6991463122952024 -3.817169321359838 6.6115312075205575" Properties=species:S:1:pos:R:3:spacegroup_kinds:I:1:forces:R:3 spacegroup="P 1" unit_cell=conventional occupancy="_JSON {\"0\": {\"In\": 1}, \"1\": {\"In\": 1}, \"2\": {\"In\": 1}, \"3\": {\"In\": 1}, \"4\": {\"In\": 1}, \"5\": {\"In\": 1}, \"6\": {\"In\": 1}, \"7\": {\"In\": 1}, \"8\": {\"In\": 1}, \"9\": {\"In\": 1}, \"10\": {\"In\": 1}, \"11\": {\"In\": 1}, \"12\": {\"In\": 1}, \"13\": {\"In\": 1}, \"14\": {\"In\": 1}, \"15\": {\"In\": 1}, \"16\": {\"O\": 1}, \"17\": {\"O\": 1}, \"18\": {\"O\": 1}, \"19\": {\"O\": 1}, \"20\": {\"O\": 1}, \"21\": {\"O\": 1}, \"22\": {\"O\": 1}, \"23\": {\"O\": 1}, \"24\": {\"O\": 1}, \"25\": {\"O\": 1}, \"26\": {\"O\": 1}, \"27\": {\"O\": 1}, \"28\": {\"O\": 1}, \"29\": {\"O\": 1}, \"30\": {\"O\": 1}, \"31\": {\"O\": 1}, \"32\": {\"O\": 1}, \"33\": {\"O\": 1}, \"34\": {\"O\": 1}, \"35\": {\"O\": 1}, \"36\": {\"O\": 1}, \"37\": {\"O\": 1}, \"38\": {\"O\": 1}, \"39\": {\"O\": 1}}" n_minim_iter=1 energy=-45125.563652281 stress="-0.506451814668559 -3.3409189444795795e-14 4.6305703748738895e-14 -3.3409189444795795e-14 -0.5064518146681631 4.8536659200395165e-14 4.6305703748738895e-14 4.8536659200395165e-14 -0.5064518146682332" free_energy=-45125.563652281 pbc="T T T"
In      -3.84596563       2.71950838       5.20697013        0      -0.04849840       0.03429354      -0.05939816
In       6.54511194       1.09766095       1.40456108        1       0.04849840      -0.03429354       0.05939816
In       1.14681932      -0.81092371       4.71032668        2       0.04849840      -0.03429354       0.05939816
In      -1.34957316      -1.90858466       3.30576560        3      -0.00000000       0.00000000      -0.00000000
In      -1.14681932       3.67380071       3.05744388        4      -0.04849840       0.03429354       0.05939816
In       4.25147331      -2.57613976       4.95864840        5      -0.04849840      -0.06858709       0.00000000
In      -1.14681932       1.24102956       4.95864840        6      -0.04849840      -0.06858709       0.00000000
In      -1.55232700       6.39330909       1.65288280        7       0.04849840       0.06858709      -0.00000000
In       3.84596563       0.14336862       3.55408733        8       0.04849840      -0.03429354      -0.05939816
In      -1.34957316       3.81716932      -0.00000000        9       0.00000000      -0.00000000      -0.00000000
In       3.84596563       5.86912260       0.24832172       10       0.04849840      -0.03429354      -0.05939816
In      -1.14681932      -2.05195327       6.36320948       11      -0.04849840       0.03429354       0.05939816
In       3.84596563       2.57613977       1.65288280       12       0.04849840       0.06858709      -0.00000000
In       1.55232699       4.62809304       1.90120452       13      -0.04849840       0.03429354      -0.05939816
In       4.04871947       0.00000000      -0.00000000       14      -0.00000000       0.00000000       0.00000000
In       1.34957315       1.90858466       3.30576560       15       0.00000000      -0.00000000      -0.00000000
O        0.76752113       3.80735745       3.65861555       16      -0.00097066       0.02788682       0.18152078
O       -1.93162518       3.17335995       4.79072076       17      -0.00097066       0.14325820      -0.11491108
O       -0.36039965       2.06233572       0.10353997       18       0.16103351       0.02870394       0.08350270
O       -0.76752113      -0.65362125       1.83780511       19       0.00097066       0.17114502       0.06660970
O        3.63574751       4.53056940       1.73426513       20       0.13538868      -0.12293471      -0.01689301
O        1.76254511       2.67195170       1.48495516       21      -0.13538868      -0.04683758      -0.11491108
O        1.76254511       5.67578703       0.24930997       22      -0.13538868      -0.07609713       0.09801808
O       -2.06452198       5.37809679       3.40930557       23       0.02661550      -0.16139183       0.08350270
O        3.05954596       1.75483361       6.50799123       24      -0.16103351      -0.02870394      -0.08350270
O        4.76366829      -1.56092747       3.20222563       25      -0.02661550       0.16139183      -0.08350270
O        5.75869227       3.02942077       1.57150046       26      -0.16103351       0.08666743       0.01689301
O        3.33377065       2.17208150       3.55507558       27       0.02661550       0.15301138       0.09801808
O        0.63462433       3.90132968       6.25868126       28       0.02661550       0.00838046      -0.18152078
O        2.06452197      -0.08416035       0.35284994       29      -0.02661550      -0.00838046       0.18152078
O       -3.05954596       0.78774856       5.04003074       30       0.16103351      -0.08666743      -0.01689301
O        4.63077149       0.64380938       1.82081044       31       0.00097066      -0.14325820       0.11491108
O        0.93660120       1.14521763       5.12657604       32       0.13538868       0.04683758       0.11491108
O        3.05954596      -0.96708505       5.14357071       33      -0.16103351      -0.05796349       0.06660970
O        1.93162518       0.00981188       2.95291566       34       0.00097066      -0.02788682      -0.18152078
O        0.93660120      -1.85861770       6.36222123       35       0.13538868       0.07609713      -0.09801808
O       -0.63462434       1.64508782       3.05645563       36      -0.02661550      -0.15301138      -0.09801808
O       -0.93660120      -0.71340008       4.87726607       37      -0.13538868       0.12293471       0.01689301
O       -0.36039965       4.78425437       1.46796049       38       0.16103351       0.05796349      -0.06660970
O        3.46666744       4.47079057       4.77372610       39      -0.00097066      -0.17114502      -0.06660970
40
Lattice="8.097438937783094 6.346502601522035e-10 2.0235412729287518e-14 -2.69914631319272 7.6343386439890075 -1.0992717759671038e-09 -2.6991463122952024 -3.817169321359839 6.6115312075205575" Properties=species:S:1:pos:R:3:spacegroup_kinds:I:1:forces:R:3 spacegroup="P 1" unit_cell=conventional occupancy="_JSON {\"0\": {\"In\": 1}, \"1\": {\"In\": 1}, \"2\": {\"In\": 1}, \"3\": {\"In\": 1}, \"4\": {\"In\": 1}, \"5\": {\"In\": 1}, \"6\": {\"In\": 1}, \"7\": {\"In\": 1}, \"8\": {\"In\": 1}, \"9\": {\"In\": 1}, \"10\": {\"In\": 1}, \"11\": {\"In\": 1}, \"12\": {\"In\": 1}, \"13\": {\"In\": 1}, \"14\": {\"In\": 1}, \"15\": {\"In\": 1}, \"16\": {\"O\": 1}, \"17\": {\"O\": 1}, \"18\": {\"O\": 1}, \"19\": {\"O\": 1}, \"20\": {\"O\": 1}, \"21\": {\"O\": 1}, \"22\": {\"O\": 1}, \"23\": {\"O\": 1}, \"24\": {\"O\": 1}, \"25\": {\"O\": 1}, \"26\": {\"O\": 1}, \"27\": {\"O\": 1}, \"28\": {\"O\": 1}, \"29\": {\"O\": 1}, \"30\": {\"O\": 1}, \"31\": {\"O\": 1}, \"32\": {\"O\": 1}, \"33\": {\"O\": 1}, \"34\": {\"O\": 1}, \"35\": {\"O\": 1}, \"36\": {\"O\": 1}, \"37\": {\"O\": 1}, \"38\": {\"O\": 1}, \"39\": {\"O\": 1}}" n_minim_iter=2 energy=-45125.57184941926 stress="-0.5054632353653468 -6.269438453100813e-14 -4.4781683833784817e-14 -6.269438453100813e-14 -0.5054632353650635 1.2812143822598337e-13 -4.4781683833784817e-14 1.2812143822598337e-13 -0.5054632353649747" free_energy=-45125.57184941926 pbc="T T T"
In      -3.84665847       2.71999829       5.20612158        0       0.03211558      -0.02270915       0.03933339
In       6.54580478       1.09717104       1.40540962        1      -0.03211558       0.02270915      -0.03933339
In       1.14751215      -0.81141362       4.71117522        2      -0.03211558       0.02270915      -0.03933339
In      -1.34957316      -1.90858466       3.30576560        3      -0.00000000       0.00000000      -0.00000000
In      -1.14751215       3.67429062       3.05829242        4       0.03211558      -0.02270915      -0.03933339
In       4.25078047      -2.57711958       4.95864840        5       0.03211558       0.04541829      -0.00000000
In      -1.14751215       1.24004975       4.95864840        6       0.03211558       0.04541829      -0.00000000
In      -1.55163416       6.39428890       1.65288280        7      -0.03211558      -0.04541829       0.00000000
In       3.84665846       0.14287871       3.55323878        8      -0.03211558       0.02270915       0.03933339
In      -1.34957316       3.81716932      -0.00000000        9       0.00000000      -0.00000000      -0.00000000
In       3.84665846       5.86863269       0.24747318       10      -0.03211558       0.02270915       0.03933339
In      -1.14751215      -2.05146337       6.36405803       11       0.03211558      -0.02270915      -0.03933339
In       3.84665846       2.57711958       1.65288280       12      -0.03211558      -0.04541829       0.00000000
In       1.55163416       4.62858295       1.90035598       13       0.03211558      -0.02270915       0.03933339
In       4.04871947       0.00000000      -0.00000000       14       0.00000000       0.00000000       0.00000000
In       1.34957315       1.90858466       3.30576560       15       0.00000000      -0.00000000      -0.00000000
O        0.76750726       3.80775583       3.66120870       16      -0.02930930      -0.02596778       0.07485599
O       -1.93163905       3.17540649       4.78907918       17      -0.02930930       0.07781108      -0.01493924
O       -0.35809917       2.06274577       0.10473286       18       0.03910857       0.02943234       0.06885520
O       -0.76750727      -0.65117632       1.83875667       19       0.02930930       0.05184330       0.05991675
O        3.63768163       4.52881319       1.73402381       20       0.08313076      -0.01208974      -0.00893844
O        1.76061099       2.67128259       1.48331357       21      -0.08313076       0.00169605      -0.01493924
O        1.76061099       5.67469993       0.25071023       22      -0.08313076      -0.01378579       0.00600080
O       -2.06414176       5.37579119       3.41049847       23      -0.01471289      -0.04668269       0.06885520
O        3.05724548       1.75442355       6.50679834       24      -0.03910857      -0.02943234      -0.06885520
O        4.76328807      -1.55862187       3.20103274       25       0.01471289       0.04668269      -0.06885520
O        5.75639179       3.03065887       1.57174179       26      -0.03910857       0.07434652       0.00893844
O        3.33415087       2.17426738       3.55647583       27      -0.01471289       0.08297169       0.00600080
O        0.63500456       3.90144940       6.25608810       28      -0.01471289      -0.03628900      -0.07485599
O        2.06414175      -0.08428007       0.35544310       29       0.01471289       0.03628900       0.07485599
O       -3.05724548       0.78651045       5.03978941       30       0.03910857      -0.07434652      -0.00893844
O        4.63078536       0.64176283       1.82245203       31       0.02930930      -0.07781108       0.01493924
O        0.93853532       1.14588674       5.12821763       32       0.08313076      -0.00169605       0.01493924
O        3.05724548      -0.96791310       5.14452228       33      -0.03910857      -0.04491418       0.05991675
O        1.93163905       0.00941349       2.95032250       34       0.02930930       0.02596778      -0.07485599
O        0.93853532      -1.85753060       6.36082097       35       0.08313076       0.01378579      -0.00600080
O       -0.63500456       1.64290194       3.05505537       36       0.01471289      -0.08297169      -0.00600080
O       -0.93853532      -0.71164387       4.87750740       37      -0.08313076       0.01208974       0.00893844
O       -0.35809917       4.78508242       1.46700893       38       0.03910857       0.04491418      -0.05991675
O        3.46665358       4.46834565       4.77277453       39      -0.02930930      -0.05184330      -0.05991675
40
Lattice="8.097438937783107 6.346502601522045e-10 2.0235412729287534e-14 -2.6991463131927245 7.634338643989019 -1.0992717759671055e-09 -2.699146312295207 -3.8171693213598448 6.611531207520569" Properties=species:S:1:pos:R:3:spacegroup_kinds:I:1:forces:R:3 spacegroup="P 1" unit_cell=conventional occupancy="_JSON {\"0\": {\"In\": 1}, \"1\": {\"In\": 1}, \"2\": {\"In\": 1}, \"3\": {\"In\": 1}, \"4\": {\"In\": 1}, \"5\": {\"In\": 1}, \"6\": {\"In\": 1}, \"7\": {\"In\": 1}, \"8\": {\"In\": 1}, \"9\": {\"In\": 1}, \"10\": {\"In\": 1}, \"11\": {\"In\": 1}, \"12\": {\"In\": 1}, \"13\": {\"In\": 1}, \"14\": {\"In\": 1}, \"15\": {\"In\": 1}, \"16\": {\"O\": 1}, \"17\": {\"O\": 1}, \"18\": {\"O\": 1}, \"19\": {\"O\": 1}, \"20\": {\"O\": 1}, \"21\": {\"O\": 1}, \"22\": {\"O\": 1}, \"23\": {\"O\": 1}, \"24\": {\"O\": 1}, \"25\": {\"O\": 1}, \"26\": {\"O\": 1}, \"27\": {\"O\": 1}, \"28\": {\"O\": 1}, \"29\": {\"O\": 1}, \"30\": {\"O\": 1}, \"31\": {\"O\": 1}, \"32\": {\"O\": 1}, \"33\": {\"O\": 1}, \"34\": {\"O\": 1}, \"35\": {\"O\": 1}, \"36\": {\"O\": 1}, \"37\": {\"O\": 1}, \"38\": {\"O\": 1}, \"39\": {\"O\": 1}}" n_minim_iter=3 energy=-45125.578257157365 stress="-0.5037615677478703 3.3851414633556898e-15 5.2501474221991735e-14 3.3851414633556898e-15 -0.5037615677476794 4.7398499777231667e-14 5.2501474221991735e-14 4.7398499777231667e-14 -0.5037615677478405" free_energy=-45125.578257157365 pbc="T T T"
In      -3.84558991       2.71924271       5.20743029        0       0.09334529      -0.06600509       0.11432417
In       6.54473622       1.09792662       1.40410091        1      -0.09334529       0.06600509      -0.11432417
In       1.14644360      -0.81065804       4.70986652        2      -0.09334529       0.06600509      -0.11432417
In      -1.34957316      -1.90858466       3.30576560        3       0.00000000       0.00000000       0.00000000
In      -1.14644360       3.67353504       3.05698372        4       0.09334529      -0.06600509      -0.11432417
In       4.25184903      -2.57560841       4.95864840        5       0.09334529       0.13201018      -0.00000000
In      -1.14644360       1.24156091       4.95864840        6       0.09334529       0.13201018      -0.00000000
In      -1.55270272       6.39277774       1.65288280        7      -0.09334529      -0.13201018       0.00000000
In       3.84558991       0.14363429       3.55454749        8      -0.09334529       0.06600509       0.11432417
In      -1.34957316       3.81716932      -0.00000000        9      -0.00000000       0.00000000       0.00000000
In       3.84558991       5.86938827       0.24878188       10      -0.09334529       0.06600509       0.11432417
In      -1.14644360      -2.05221895       6.36274932       11       0.09334529      -0.06600509      -0.11432417
In       3.84558991       2.57560842       1.65288280       12      -0.09334529      -0.13201018       0.00000000
In       1.55270271       4.62782737       1.90166468       13       0.09334529      -0.06600509       0.11432417
In       4.04871947       0.00000000      -0.00000000       14      -0.00000000      -0.00000000      -0.00000000
In       1.34957315       1.90858466       3.30576560       15      -0.00000000      -0.00000000      -0.00000000
O        0.76605881       3.80677330       3.66678142       16      -0.02599706      -0.03566110      -0.03988836
O       -1.93308750       3.18072387       4.78714371       17      -0.02599706      -0.01671378       0.05082760
O       -0.35449505       2.06449045       0.10898551       18      -0.05804520       0.00594768       0.01157681
O       -0.76605881      -0.64684147       1.84239393       19       0.02599706      -0.05237488       0.01093924
O        3.64317772       4.52693361       1.73340841       20      -0.00709222       0.05905876      -0.00063756
O        1.75511490       2.67087574       1.48137811       21       0.00709222       0.03008152       0.05082760
O        1.75511490       5.67322719       0.25203030       22       0.00709222       0.02897723      -0.05146516
O       -2.06458528       5.37181164       3.41475111       23      -0.02495592       0.05274298       0.01157681
O        3.05364136       1.75267888       6.50254569       24       0.05804520      -0.00594768      -0.01157681
O        4.76373159      -1.55464231       3.19678009       25       0.02495592      -0.05274298      -0.01157681
O        5.75278767       3.03521411       1.57235719       26       0.05804520       0.01299965       0.00063756
O        3.33370735       2.17994006       3.55779591       27      -0.02495592      -0.01634568      -0.05146516
O        0.63456104       3.89975627       6.25051538       28      -0.02495592      -0.03639730       0.03988836
O        2.06458527      -0.08258695       0.36101582       29       0.02495592       0.03639730      -0.03988836
O       -3.05364136       0.78195522       5.03917402       30      -0.05804520      -0.01299965      -0.00063756
O        4.63223381       0.63644545       1.82438749       31       0.02599706       0.01671378      -0.05082760
O        0.94403141       1.14629358       5.13015310       32      -0.00709222      -0.03008152      -0.05082760
O        3.05364136      -0.97072366       5.14815953       33       0.05804520      -0.00705197       0.01093924
O        1.93308750       0.01039602       2.94474978       34       0.02599706       0.03566110       0.03988836
O        0.94403141      -1.85605786       6.35950090       35      -0.00709222      -0.02897723       0.05146516
O       -0.63456104       1.63722927       3.05373530       36       0.02495592       0.01634568       0.05146516
O       -0.94403141      -0.70976428       4.87812279       37       0.00709222      -0.05905876       0.00063756
O       -0.35449505       4.78789299       1.46337167       38      -0.05804520       0.00705197      -0.01093924
O        3.46520512       4.46401079       4.76913728       39      -0.02599706       0.05237488      -0.01093924
40
Lattice="8.097438937783114 6.346502601522051e-10 2.0235412729287562e-14 -2.699146313192727 7.634338643989026 -1.0992717759671065e-09 -2.6991463122952095 -3.8171693213598483 6.611531207520574" Properties=species:S:1:pos:R:3:spacegroup_kinds:I:1:forces:R:3 spacegroup="P 1" unit_cell=conventional occupancy="_JSON {\"0\": {\"In\": 1}, \"1\": {\"In\": 1}, \"2\": {\"In\": 1}, \"3\": {\"In\": 1}, \"4\": {\"In\": 1}, \"5\": {\"In\": 1}, \"6\": {\"In\": 1}, \"7\": {\"In\": 1}, \"8\": {\"In\": 1}, \"9\": {\"In\": 1}, \"10\": {\"In\": 1}, \"11\": {\"In\": 1}, \"12\": {\"In\": 1}, \"13\": {\"In\": 1}, \"14\": {\"In\": 1}, \"15\": {\"In\": 1}, \"16\": {\"O\": 1}, \"17\": {\"O\": 1}, \"18\": {\"O\": 1}, \"19\": {\"O\": 1}, \"20\": {\"O\": 1}, \"21\": {\"O\": 1}, \"22\": {\"O\": 1}, \"23\": {\"O\": 1}, \"24\": {\"O\": 1}, \"25\": {\"O\": 1}, \"26\": {\"O\": 1}, \"27\": {\"O\": 1}, \"28\": {\"O\": 1}, \"29\": {\"O\": 1}, \"30\": {\"O\": 1}, \"31\": {\"O\": 1}, \"32\": {\"O\": 1}, \"33\": {\"O\": 1}, \"34\": {\"O\": 1}, \"35\": {\"O\": 1}, \"36\": {\"O\": 1}, \"37\": {\"O\": 1}, \"38\": {\"O\": 1}, \"39\": {\"O\": 1}}" n_minim_iter=4 energy=-45125.5838020399 stress="-0.5031769149202884 2.0039863615325573e-13 1.0294461836545824e-13 2.0039863615325573e-13 -0.5031769149203472 -1.1000487388983709e-13 1.0294461836545824e-13 -1.1000487388983709e-13 -0.5031769149205472" free_energy=-45125.5838020399 pbc="T T T"
In      -3.84215354       2.71681282       5.21163897        0       0.01612989      -0.01140555       0.01975500
In       6.54129985       1.10035650       1.39989224        1      -0.01612989       0.01140555      -0.01975500
In       1.14300722      -0.80822816       4.70565784        2      -0.01612989       0.01140555      -0.01975500
In      -1.34957316      -1.90858466       3.30576560        3      -0.00000000       0.00000000       0.00000000
In      -1.14300723       3.67110515       3.05277504        4       0.01612989      -0.01140555      -0.01975500
In       4.25528540      -2.57074865       4.95864840        5       0.01612989       0.02281111      -0.00000000
In      -1.14300723       1.24642067       4.95864840        6       0.01612989       0.02281111      -0.00000000
In      -1.55613909       6.38791797       1.65288280        7      -0.01612989      -0.02281111       0.00000000
In       3.84215354       0.14606417       3.55875617        8      -0.01612989       0.01140555       0.01975500
In      -1.34957316       3.81716932      -0.00000000        9      -0.00000000       0.00000000       0.00000000
In       3.84215354       5.87181816       0.25299056       10      -0.01612989       0.01140555       0.01975500
In      -1.14300723      -2.05464883       6.35854064       11       0.01612989      -0.01140555      -0.01975500
In       3.84215354       2.57074865       1.65288280       12      -0.01612989      -0.02281111       0.00000000
In       1.55613909       4.62539748       1.90587336       13       0.01612989      -0.01140555       0.01975500
In       4.04871947       0.00000000      -0.00000000       14       0.00000000      -0.00000000       0.00000000
In       1.34957315       1.90858466       3.30576560       15       0.00000000       0.00000000      -0.00000000
O        0.76444995       3.80530742       3.66960992       16       0.03491338       0.04003308       0.01164902
O       -1.93469636       3.18390637       4.78699895       17       0.03491338      -0.00992820      -0.04049417
O       -0.35341290       2.06577011       0.11213655       18       0.04002095      -0.01353979      -0.03423871
O       -0.76444996      -0.64512486       1.84507767       19      -0.03491338       0.03010488      -0.02884516
O        3.64671449       4.52703625       1.73294111       20      -0.02099819      -0.04987261       0.00539355
O        1.75157813       2.67133176       1.48123335       21       0.02099819      -0.02960725      -0.04049417
O        1.75157813       5.67287382       0.25170776       22       0.02099819      -0.02026535       0.04588772
O       -2.06543104       5.37036483       3.41790215       23       0.02610576      -0.03321885      -0.03423871
O        3.05255921       1.75139922       6.49939465       24      -0.04002095       0.01353979       0.03423871
O        4.76457735      -1.55319550       3.19362905       25      -0.02610576       0.03321885       0.03423871
O        5.75170552       3.03858282       1.57282448       26      -0.04002095      -0.03642148      -0.00539355
O        3.33286159       2.18339235       3.55747336       27       0.02610576      -0.01304216       0.04588772
O        0.63371527       3.89775080       6.24768689       28       0.02610576       0.04626101      -0.01164902
O        2.06543104      -0.08058147       0.36384431       29      -0.02610576      -0.04626101       0.01164902
O       -3.05255921       0.77858650       5.03870672       30       0.04002095       0.03642148       0.00539355
O        4.63384267       0.63326296       1.82453225       31      -0.03491338       0.00992820       0.04049417
O        0.94756818       1.14583757       5.13029785       32      -0.02099819       0.02960725       0.04049417
O        3.05255921      -0.97281271       5.15084327       33      -0.04002095       0.02288169      -0.02884516
O        1.93469636       0.01186191       2.94192128       34      -0.03491338      -0.04003308      -0.01164902
O        0.94756818      -1.85570449       6.35982344       35      -0.02099819       0.02026535      -0.04588772
O       -0.63371528       1.63377698       3.05405784       36      -0.02610576       0.01304216      -0.04588772
O       -0.94756818      -0.70986693       4.87859009       37       0.02099819       0.04987261      -0.00539355
O       -0.35341290       4.78998203       1.46068793       38       0.04002095      -0.02288169       0.02884516
O        3.46359627       4.46229419       4.76645353       39       0.03491338      -0.03010488       0.02884516
40
Lattice="8.097438937783112 6.346502601522053e-10 2.0235412729287515e-14 -2.699146313192728 7.634338643989027 -1.0992717759671065e-09 -2.6991463122952104 -3.8171693213598488 6.611531207520574" Properties=species:S:1:pos:R:3:spacegroup_kinds:I:1:forces:R:3 spacegroup="P 1" unit_cell=conventional occupancy="_JSON {\"0\": {\"In\": 1}, \"1\": {\"In\": 1}, \"2\": {\"In\": 1}, \"3\": {\"In\": 1}, \"4\": {\"In\": 1}, \"5\": {\"In\": 1}, \"6\": {\"In\": 1}, \"7\": {\"In\": 1}, \"8\": {\"In\": 1}, \"9\": {\"In\": 1}, \"10\": {\"In\": 1}, \"11\": {\"In\": 1}, \"12\": {\"In\": 1}, \"13\": {\"In\": 1}, \"14\": {\"In\": 1}, \"15\": {\"In\": 1}, \"16\": {\"O\": 1}, \"17\": {\"O\": 1}, \"18\": {\"O\": 1}, \"19\": {\"O\": 1}, \"20\": {\"O\": 1}, \"21\": {\"O\": 1}, \"22\": {\"O\": 1}, \"23\": {\"O\": 1}, \"24\": {\"O\": 1}, \"25\": {\"O\": 1}, \"26\": {\"O\": 1}, \"27\": {\"O\": 1}, \"28\": {\"O\": 1}, \"29\": {\"O\": 1}, \"30\": {\"O\": 1}, \"31\": {\"O\": 1}, \"32\": {\"O\": 1}, \"33\": {\"O\": 1}, \"34\": {\"O\": 1}, \"35\": {\"O\": 1}, \"36\": {\"O\": 1}, \"37\": {\"O\": 1}, \"38\": {\"O\": 1}, \"39\": {\"O\": 1}}" n_minim_iter=5 energy=-45125.58732034406 stress="-0.5024584703074274 1.7828194397331517e-13 3.802022911262273e-14 1.7828194397331517e-13 -0.5024584703075836 -2.598100147681892e-14 3.802022911262273e-14 -2.598100147681892e-14 -0.5024584703073255" free_energy=-45125.58732034406 pbc="T T T"
In      -3.83895839       2.71455351       5.21555221        0       0.00373520      -0.00264119       0.00457467
In       6.53810470       1.10261581       1.39597900        1      -0.00373520       0.00264119      -0.00457467
In       1.13981208      -0.80596885       4.70174460        2      -0.00373520       0.00264119      -0.00457467
In      -1.34957316      -1.90858466       3.30576560        3       0.00000000      -0.00000000      -0.00000000
In      -1.13981208       3.66884584       3.04886180        4       0.00373520      -0.00264119      -0.00457467
In       4.25848054      -2.56623003       4.95864840        5       0.00373520       0.00528238      -0.00000000
In      -1.13981208       1.25093929       4.95864840        6       0.00373520       0.00528238      -0.00000000
In      -1.55933423       6.38339936       1.65288280        7      -0.00373520      -0.00528238       0.00000000
In       3.83895839       0.14832348       3.56266940        8      -0.00373520       0.00264119       0.00457467
In      -1.34957316       3.81716932      -0.00000000        9       0.00000000       0.00000000       0.00000000
In       3.83895839       5.87407746       0.25690380       10      -0.00373520       0.00264119       0.00457467
In      -1.13981208      -2.05690814       6.35462740       11       0.00373520      -0.00264119      -0.00457467
In       3.83895839       2.56623003       1.65288280       12      -0.00373520      -0.00528238      -0.00000000
In       1.55933423       4.62313817       1.90978660       13       0.00373520      -0.00264119       0.00457467
In       4.04871947       0.00000000      -0.00000000       14       0.00000000      -0.00000000       0.00000000
In       1.34957315       1.90858466       3.30576560       15      -0.00000000      -0.00000000       0.00000000
O        0.76594699       3.80722363       3.67208686       16       0.03292465      -0.01202856       0.00539194
O       -1.93319932       3.18509336       4.78410100       17       0.03292465       0.01068383       0.00772107
O       -0.34998816       2.06559401       0.11159954       18       0.00970706       0.02710115      -0.02071455
O       -0.76594699      -0.64202166       1.84465665       19      -0.03292465      -0.00134473       0.01311301
O        3.64733459       4.52362301       1.73305711       20      -0.00090207      -0.01061482       0.03382756
O        1.75095804       2.66952468       1.47833539       21       0.00090207      -0.03460294       0.00772107
O        1.75095804       5.67126765       0.25472172       22       0.00090207       0.02398811       0.02610649
O       -2.06412343       5.36719465       3.41736514       23      -0.02231552      -0.01818562      -0.02071455
O        3.04913447       1.75157532       6.49993166       24      -0.00970706      -0.02710115       0.02071455
O        4.76326974      -1.55002533       3.19416606       25       0.02231552       0.01818562       0.02071455
O        5.74828079       3.03802970       1.57270849       26      -0.00970706      -0.00438875      -0.03382756
O        3.33416920       2.18451237       3.56048732       27      -0.02231552      -0.00884652       0.02610649
O        0.63502288       3.89980095       6.24520995       28      -0.02231552       0.02703214      -0.00539194
O        2.06412343      -0.08263163       0.36632126       29       0.02231552      -0.02703214       0.00539194
O       -3.04913448       0.77913962       5.03882272       30       0.00970706       0.00438875       0.03382756
O        4.63234563       0.63207597       1.82743021       31      -0.03292465      -0.01068383      -0.00772107
O        0.94818827       1.14764465       5.13319581       32      -0.00090207       0.03460294      -0.00772107
O        3.04913447      -0.97243569       5.15042226       33      -0.00970706       0.03148990       0.01311301
O        1.93319932       0.00994570       2.93944434       34      -0.03292465       0.01202856      -0.00539194
O        0.94818827      -1.85409833       6.35680949       35      -0.00090207      -0.02398811      -0.02610649
O       -0.63502289       1.63265696       3.05104388       36       0.02231552       0.00884652      -0.02610649
O       -0.94818828      -0.70645368       4.87847409       37       0.00090207       0.01061482      -0.03382756
O       -0.34998817       4.78960502       1.46110895       38       0.00970706      -0.03148990      -0.01311301
O        3.46509330       4.45919099       4.76687455       39       0.03292465       0.00134473      -0.01311301
40