40
Lattice="9.200077567298564 7.210751022937144e-10 6.9941707413527494e-15 -3.06669252311269 8.67391631346504 -1.248952829812021e-09 -3.0666925220929424 -4.336958156011433 7.511831878593619" Properties=species:S:1:pos:R:3:spacegroup_kinds:I:1:forces:R:3 spacegroup="P 1" unit_cell=conventional occupancy="_JSON {\"0\": {\"In\": 1}, \"1\": {\"In\": 1}, \"2\": {\"In\": 1}, \"3\": {\"In\": 1}, \"4\": {\"In\": 1}, \"5\": {\"In\": 1}, \"6\": {\"In\": 1}, \"7\": {\"In\": 1}, \"8\": {\"In\": 1}, \"9\": {\"In\": 1}, \"10\": {\"In\": 1}, \"11\": {\"In\": 1}, \"12\": {\"In\": 1}, \"13\": {\"In\": 1}, \"14\": {\"In\": 1}, \"15\": {\"In\": 1}, \"16\": {\"O\": 1}, \"17\": {\"O\": 1}, \"18\": {\"O\": 1}, \"19\": {\"O\": 1}, \"20\": {\"O\": 1}, \"21\": {\"O\": 1}, \"22\": {\"O\": 1}, \"23\": {\"O\": 1}, \"24\": {\"O\": 1}, \"25\": {\"O\": 1}, \"26\": {\"O\": 1}, \"27\": {\"O\": 1}, \"28\": {\"O\": 1}, \"29\": {\"O\": 1}, \"30\": {\"O\": 1}, \"31\": {\"O\": 1}, \"32\": {\"O\": 1}, \"33\": {\"O\": 1}, \"34\": {\"O\": 1}, \"35\": {\"O\": 1}, \"36\": {\"O\": 1}, \"37\": {\"O\": 1}, \"38\": {\"O\": 1}, \"39\": {\"O\": 1}}" n_minim_iter=1 energy=-45149.85420786445 stress="0.06862075633221544 7.702988244900198e-14 -5.174982968907275e-14 7.702988244900198e-14 0.06862075633220303 -5.393173149440335e-14 -5.174982968907275e-14 -5.393173149440335e-14 0.06862075633237316" free_energy=-45149.85420786445 pbc="T T T"
In      -4.37861793       3.09615043       5.90505796        0       0.03201510      -0.02263810       0.03921033
In       7.44531045       1.24080773       1.60677391        1      -0.03201510       0.02263810      -0.03921033
In       1.31192541      -0.92767135       5.36268985        2      -0.03201510       0.02263810      -0.03921033
In      -1.53334626      -2.16847908       3.75591594        3      -0.00000000      -0.00000000      -0.00000000
In      -1.31192541       4.18038997       3.48473188        4       0.03201510      -0.02263810      -0.03921033
In       4.82145963      -2.93958224       5.63387391        5       0.03201510       0.04527619      -0.00000000
In      -1.31192541       1.39737591       5.63387391        6       0.03201510       0.04527619      -0.00000000
In      -1.75476711       7.27654041       1.87795797        7      -0.03201510      -0.04527619       0.00000000
In       4.37861793       0.15656819       4.02709999        8      -0.03201510       0.02263810       0.03921033
In      -1.53334626       4.33695816      -0.00000000        9      -0.00000000      -0.00000000      -0.00000000
In       4.37861793       6.66200542       0.27118405       10      -0.03201510       0.02263810       0.03921033
In      -1.31192541      -2.32504726       7.24064782       11       0.03201510      -0.02263810      -0.03921033
In       4.37861793       2.93958225       1.87795797       12      -0.03201510      -0.04527619       0.00000000
In       1.75476711       5.26462951       2.14914202       13       0.03201510      -0.02263810       0.03921033
In       4.60003878       0.00000000      -0.00000000       14       0.00000000      -0.00000000      -0.00000000
In       1.53334626       2.16847908       3.75591594       15      -0.00000000      -0.00000000      -0.00000000
O        0.94902189       4.34509002       4.07552346       16       0.02260448       0.01592197      -0.05108597
O       -2.11767064       3.52544092       5.46702774       17       0.02260448      -0.05220274       0.01175416
O       -0.44109836       2.33992530       0.00856916       18      -0.02667101      -0.01735970      -0.04859574
O       -0.94902189      -0.80338537       2.03071933       19      -0.02260448      -0.03628077      -0.03933182
O        4.02970779       5.14529094       2.02215017       20      -0.05675204       0.00822400       0.00926393
O        2.10367725       2.98989113       1.71111180       21       0.05675204      -0.00391080       0.01175416
O        2.10367725       6.49235797       0.31103836       22       0.05675204       0.01213480      -0.00249023
O       -2.35313552       6.14133366       3.76448510       23       0.00747655       0.03093224      -0.04859574
O        3.50779088       1.99703286       7.50326272       24       0.02667101       0.01735970       0.04859574
O        5.41982804      -1.80437550       3.74734678       25      -0.00747655      -0.03093224       0.04859574
O        6.57448341       3.34586284       1.73376576       26       0.02667101      -0.05076500      -0.00926393
O        3.78024953       2.35795198       4.06695430       27       0.00747655      -0.05755127      -0.00249023
O        0.71355700       4.51158884       7.19222435       28       0.00747655       0.02661903       0.05108597
O        2.35313551      -0.17463068       0.31960752       29      -0.00747655      -0.02661903      -0.05108597
O       -3.50779089       0.99109532       5.77806611       30      -0.02667101       0.05076500       0.00926393
O        5.18436316       0.81151724       2.04480413       31      -0.02260448       0.05220274      -0.01175416
O        0.96301526       1.34706703       5.80072007       32      -0.05675204       0.00391080      -0.01175416
O        3.50779088      -1.00593754       5.78663527       33       0.02667101       0.03340530      -0.03933182
O        2.11767063      -0.00813186       3.43630841       34      -0.02260448      -0.01592197       0.05108597
O        0.96301526      -2.15539981       7.20079351       35      -0.05675204      -0.01213480       0.00249023
O       -0.71355701       1.97900618       3.44487757       36      -0.00747655       0.05755127       0.00249023
O       -0.96301527      -0.80833277       5.48968170       37       0.05675204      -0.00822400      -0.00926393
O       -0.44109836       5.34289570       1.72519660       38      -0.02667101      -0.03340530       0.03933182
O        4.01571441       5.14034353       5.48111254       39       0.02260448       0.03628077       0.03933182
40
Lattice="9.20007756729856 7.210751022937141e-10 6.994170741352744e-15 -3.0666925231126885 8.673916313465037 -1.2489528298120206e-09 -3.066692522092941 -4.336958156011431 7.5118318785936165" Properties=species:S:1:pos:R:3:spacegroup_kinds:I:1:forces:R:3 spacegroup="P 1" unit_cell=conventional occupancy="_JSON {\"0\": {\"In\": 1}, \"1\": {\"In\": 1}, \"2\": {\"In\": 1}, \"3\": {\"In\": 1}, \"4\": {\"In\": 1}, \"5\": {\"In\": 1}, \"6\": {\"In\": 1}, \"7\": {\"In\": 1}, \"8\": {\"In\": 1}, \"9\": {\"In\": 1}, \"10\": {\"In\": 1}, \"11\": {\"In\": 1}, \"12\": {\"In\": 1}, \"13\": {\"In\": 1}, \"14\": {\"In\": 1}, \"15\": {\"In\": 1}, \"16\": {\"O\": 1}, \"17\": {\"O\": 1}, \"18\": {\"O\": 1}, \"19\": {\"O\": 1}, \"20\": {\"O\": 1}, \"21\": {\"O\": 1}, \"22\": {\"O\": 1}, \"23\": {\"O\": 1}, \"24\": {\"O\": 1}, \"25\": {\"O\": 1}, \"26\": {\"O\": 1}, \"27\": {\"O\": 1}, \"28\": {\"O\": 1}, \"29\": {\"O\": 1}, \"30\": {\"O\": 1}, \"31\": {\"O\": 1}, \"32\": {\"O\": 1}, \"33\": {\"O\": 1}, \"34\": {\"O\": 1}, \"35\": {\"O\": 1}, \"36\": {\"O\": 1}, \"37\": {\"O\": 1}, \"38\": {\"O\": 1}, \"39\": {\"O\": 1}}" n_minim_iter=2 energy=-45149.86013426893 stress="0.06804318258256674 6.755146875693073e-14 -2.1491062564279188e-14 6.755146875693073e-14 0.06804318258239447 1.236441273515216e-13 -2.1491062564279188e-14 1.236441273515216e-13 0.06804318258240957" free_energy=-45149.86013426893 pbc="T T T"
In      -4.37633114       3.09453343       5.90785870        0       0.01202908      -0.00850585       0.01473256
In       7.44302366       1.24242473       1.60397318        1      -0.01202908       0.00850585      -0.01473256
In       1.30963862      -0.92605434       5.35988912        2      -0.01202908       0.00850585      -0.01473256
In      -1.53334626      -2.16847908       3.75591594        3       0.00000000      -0.00000000       0.00000000
In      -1.30963862       4.17877297       3.48193115        4       0.01202908      -0.00850585      -0.01473256
In       4.82374643      -2.93634823       5.63387391        5       0.01202908       0.01701169      -0.00000000
In      -1.30963862       1.40060993       5.63387391        6       0.01202908       0.01701169      -0.00000000
In      -1.75705391       7.27330639       1.87795797        7      -0.01202908      -0.01701169       0.00000000
In       4.37633114       0.15818519       4.02990073        8      -0.01202908       0.00850585       0.01473256
In      -1.53334626       4.33695816      -0.00000000        9       0.00000000      -0.00000000       0.00000000
In       4.37633114       6.66362243       0.27398479       10      -0.01202908       0.00850585       0.01473256
In      -1.30963862      -2.32666427       7.23784709       11       0.01202908      -0.00850585      -0.01473256
In       4.37633114       2.93634824       1.87795797       12      -0.01202908      -0.01701169       0.00000000
In       1.75705390       5.26301251       2.15194276       13       0.01202908      -0.00850585       0.01473256
In       4.60003878       0.00000000      -0.00000000       14      -0.00000000      -0.00000000      -0.00000000
In       1.53334626       2.16847908       3.75591594       15      -0.00000000      -0.00000000       0.00000000
O        0.95063649       4.34622731       4.07187446       16       0.02404569       0.01024811      -0.01384820
O       -2.11605603       3.52171216       5.46786732       17       0.02404569      -0.01711695      -0.00195102
O       -0.44300344       2.33868532       0.00509803       18       0.00153923      -0.00120248      -0.02951570
O       -0.95063649      -0.80597685       2.02790991       19      -0.02404569      -0.00686884      -0.01579923
O        4.02565407       5.14587836       2.02281188       20      -0.02415325      -0.01017206       0.01371648
O        2.10773097       2.98961179       1.71195139       21       0.02415325      -0.01696485      -0.00195102
O        2.10773097       6.49322474       0.31086049       22       0.02415325       0.00679279       0.01566750
O       -2.35260148       6.14354311       3.76101397       23       0.00164678      -0.00105037      -0.02951570
O        3.50969595       1.99827284       7.50673384       24      -0.00153923       0.00120248       0.02951570
O        5.41929400      -1.80658495       3.75081790       25      -0.00164678       0.00105037       0.02951570
O        6.57638848       3.34223677       1.73310405       26      -0.00153923      -0.02616259      -0.01371648
O        3.78078357       2.35384117       4.06677643       27       0.00164678      -0.02503616       0.01566750
O        0.71409104       4.51349020       7.19587335       28       0.00164678       0.02608653       0.01384820
O        2.35260147      -0.17653204       0.31595853       29      -0.00164678      -0.02608653      -0.01384820
O       -3.50969596       0.99472139       5.77872782       30       0.00153923       0.02616259       0.01371648
O        5.18274855       0.81524600       2.04396455       31      -0.02404569       0.01711695       0.00195102
O        0.95896155       1.34734638       5.79988049       32      -0.02415325       0.01696485       0.00195102
O        3.50969596      -1.00355144       5.78382585       33      -0.00153923       0.02496011      -0.01579923
O        2.11605603      -0.00926915       3.43995741       34      -0.02404569      -0.01024811       0.01384820
O        0.95896155      -2.15626658       7.20097138       35      -0.02415325      -0.00679279      -0.01566750
O       -0.71409105       1.98311699       3.44505544       36      -0.00164678       0.02503616      -0.01566750
O       -0.95896155      -0.80892020       5.48901999       37       0.02415325       0.01017206      -0.01371648
O       -0.44300344       5.34050960       1.72800602       38       0.00153923      -0.02496011       0.01579923
O        4.01732901       5.14293501       5.48392196       39       0.02404569       0.00686884       0.01579923
40
Lattice="9.200077567298557 7.210751022937138e-10 6.99417074135274e-15 -3.066692523112687 8.673916313465034 -1.24895282981202e-09 -3.0666925220929397 -4.33695815601143 7.511831878593613" Properties=species:S:1:pos:R:3:spacegroup_kinds:I:1:forces:R:3 spacegroup="P 1" unit_cell=conventional occupancy="_JSON {\"0\": {\"In\": 1}, \"1\": {\"In\": 1}, \"2\": {\"In\": 1}, \"3\": {\"In\": 1}, \"4\": {\"In\": 1}, \"5\": {\"In\": 1}, \"6\": {\"In\": 1}, \"7\": {\"In\": 1}, \"8\": {\"In\": 1}, \"9\": {\"In\": 1}, \"10\": {\"In\": 1}, \"11\": {\"In\": 1}, \"12\": {\"In\": 1}, \"13\": {\"In\": 1}, \"14\": {\"In\": 1}, \"15\": {\"In\": 1}, \"16\": {\"O\": 1}, \"17\": {\"O\": 1}, \"18\": {\"O\": 1}, \"19\": {\"O\": 1}, \"20\": {\"O\": 1}, \"21\": {\"O\": 1}, \"22\": {\"O\": 1}, \"23\": {\"O\": 1}, \"24\": {\"O\": 1}, \"25\": {\"O\": 1}, \"26\": {\"O\": 1}, \"27\": {\"O\": 1}, \"28\": {\"O\": 1}, \"29\": {\"O\": 1}, \"30\": {\"O\": 1}, \"31\": {\"O\": 1}, \"32\": {\"O\": 1}, \"33\": {\"O\": 1}, \"34\": {\"O\": 1}, \"35\": {\"O\": 1}, \"36\": {\"O\": 1}, \"37\": {\"O\": 1}, \"38\": {\"O\": 1}, \"39\": {\"O\": 1}}" n_minim_iter=3 energy=-45149.861545820255 stress="0.06760148932629848 2.2637401968109063e-15 -5.685071129349645e-14 2.2637401968109063e-15 0.06760148932637698 -6.375857763653836e-14 -5.685071129349645e-14 -6.375857763653836e-14 0.06760148932641284" free_energy=-45149.861545820255 pbc="T T T"
In      -4.37471919       3.09339361       5.90983293        0      -0.00168210       0.00118942      -0.00206014
In       7.44141171       1.24356456       1.60199895        1       0.00168210      -0.00118942       0.00206014
In       1.30802666      -0.92491452       5.35791489        2       0.00168210      -0.00118942       0.00206014
In      -1.53334626      -2.16847908       3.75591594        3      -0.00000000      -0.00000000      -0.00000000
In      -1.30802667       4.17763314       3.47995692        4      -0.00168210       0.00118942       0.00206014
In       4.82535838      -2.93406859       5.63387391        5      -0.00168210      -0.00237885       0.00000000
In      -1.30802667       1.40288957       5.63387391        6      -0.00168210      -0.00237885       0.00000000
In      -1.75866586       7.27102675       1.87795797        7       0.00168210       0.00237885      -0.00000000
In       4.37471919       0.15932502       4.03187496        8       0.00168210      -0.00118942      -0.00206014
In      -1.53334626       4.33695816      -0.00000000        9      -0.00000000      -0.00000000      -0.00000000
In       4.37471919       6.66476225       0.27595902       10       0.00168210      -0.00118942      -0.00206014
In      -1.30802667      -2.32780409       7.23587286       11      -0.00168210       0.00118942       0.00206014
In       4.37471919       2.93406859       1.87795797       12       0.00168210       0.00237885      -0.00000000
In       1.75866586       5.26187268       2.15391699       13      -0.00168210       0.00118942      -0.00206014
In       4.60003878       0.00000000      -0.00000000       14      -0.00000000       0.00000000       0.00000000
In       1.53334626       2.16847908       3.75591594       15      -0.00000000       0.00000000       0.00000000
O        0.95214836       4.34713148       4.06943078       16       0.02406478       0.00468525       0.01138071
O       -2.11454416       3.51914377       5.46830613       17       0.02406478       0.00751335      -0.00974790
O       -0.44406851       2.33793911       0.00238074       18       0.01952255       0.01072519      -0.01531097
O       -0.95214836      -0.80764106       2.02590503       19      -0.02406478       0.01219861       0.00163280
O        4.02272862       5.14597374       2.02352429       20      -0.00093794      -0.02103840       0.01694378
O        2.11065642       2.98904251       1.71239019       21       0.00093794      -0.02519294      -0.00974790
O        2.11065642       6.49388939       0.31113410       22       0.00093794       0.00415454       0.02669168
O       -2.35225297       6.14479600       3.75829668       23      -0.00360429      -0.02198110      -0.01531097
O        3.51076103       1.99901905       7.50945113       24      -0.01952255      -0.01072519       0.01531097
O        5.41894549      -1.80783784       3.75353520       25       0.00360429       0.02198110       0.01531097
O        6.57745355       3.33951042       1.73239164       26      -0.01952255      -0.00789709      -0.01694378
O        3.78113208       2.35086148       4.06705004       27      -0.00360429      -0.00226914       0.02669168
O        0.71443955       4.51521699       7.19831703       28      -0.00360429       0.02425024      -0.01138071
O        2.35225297      -0.17825883       0.31351484       29       0.00360429      -0.02425024       0.01138071
O       -3.51076103       0.99744774       5.77944023       30       0.01952255       0.00789709       0.01694378
O        5.18123668       0.81781439       2.04352574       31      -0.02406478      -0.00751335       0.00974790
O        0.95603610       1.34791565       5.79944168       32      -0.00093794       0.02519294       0.00974790
O        3.51076103      -1.00157130       5.78182097       33      -0.01952255       0.01862229       0.00163280
O        2.11454416      -0.01017332       3.44240110       34      -0.02406478      -0.00468525      -0.01138071
O        0.95603610      -2.15693123       7.20069778       35      -0.00093794      -0.00415454      -0.02669168
O       -0.71443956       1.98609668       3.44478184       36       0.00360429       0.00226914      -0.02669168
O       -0.95603610      -0.80901558       5.48830758       37       0.00093794       0.02103840      -0.01694378
O       -0.44406851       5.33852946       1.73001090       38       0.01952255      -0.01862229      -0.00163280
O        4.01884088       5.14459922       5.48592684       39       0.02406478      -0.01219861      -0.00163280
40
Lattice="9.200077567298543 7.210751022937126e-10 6.9941707413527226e-15 -3.0666925231126827 8.673916313465023 -1.2489528298120181e-09 -3.0666925220929353 -4.336958156011424 7.511831878593602" Properties=species:S:1:pos:R:3:spacegroup_kinds:I:1:forces:R:3 spacegroup="P 1" unit_cell=conventional occupancy="_JSON {\"0\": {\"In\": 1}, \"1\": {\"In\": 1}, \"2\": {\"In\": 1}, \"3\": {\"In\": 1}, \"4\": {\"In\": 1}, \"5\": {\"In\": 1}, \"6\": {\"In\": 1}, \"7\": {\"In\": 1}, \"8\": {\"In\": 1}, \"9\": {\"In\": 1}, \"10\": {\"In\": 1}, \"11\": {\"In\": 1}, \"12\": {\"In\": 1}, \"13\": {\"In\": 1}, \"14\": {\"In\": 1}, \"15\": {\"In\": 1}, \"16\": {\"O\": 1}, \"17\": {\"O\": 1}, \"18\": {\"O\": 1}, \"19\": {\"O\": 1}, \"20\": {\"O\": 1}, \"21\": {\"O\": 1}, \"22\": {\"O\": 1}, \"23\": {\"O\": 1}, \"24\": {\"O\": 1}, \"25\": {\"O\": 1}, \"26\": {\"O\": 1}, \"27\": {\"O\": 1}, \"28\": {\"O\": 1}, \"29\": {\"O\": 1}, \"30\": {\"O\": 1}, \"31\": {\"O\": 1}, \"32\": {\"O\": 1}, \"33\": {\"O\": 1}, \"34\": {\"O\": 1}, \"35\": {\"O\": 1}, \"36\": {\"O\": 1}, \"37\": {\"O\": 1}, \"38\": {\"O\": 1}, \"39\": {\"O\": 1}}" n_minim_iter=4 energy=-45149.862974688665 stress="0.06706122935347088 -8.229492700504893e-15 -7.512463376338609e-15 -8.229492700504893e-15 0.06706122935366919 -2.0288478076403814e-14 -7.512463376338609e-15 -2.0288478076403814e-14 0.06706122935379781" free_energy=-45149.862974688665 pbc="T T T"
In      -4.37287899       3.09209239       5.91208670        0      -0.01228975       0.00869017      -0.01505181
In       7.43957151       1.24486577       1.59974518        1       0.01228975      -0.00869017       0.01505181
In       1.30618647      -0.92361331       5.35566112        2       0.01228975      -0.00869017       0.01505181
In      -1.53334626      -2.16847908       3.75591594        3       0.00000000      -0.00000000      -0.00000000
In      -1.30618647       4.17633193       3.47770315        4      -0.01228975       0.00869017       0.01505181
In       4.82719857      -2.93146616       5.63387391        5      -0.01228975      -0.01738033       0.00000000
In      -1.30618647       1.40549200       5.63387391        6      -0.01228975      -0.01738033       0.00000000
In      -1.76050606       7.26842432       1.87795797        7       0.01228975       0.01738033      -0.00000000
In       4.37287899       0.16062623       4.03412873        8       0.01228975      -0.00869017      -0.01505181
In      -1.53334626       4.33695816      -0.00000000        9       0.00000000       0.00000000       0.00000000
In       4.37287899       6.66606347       0.27821279       10       0.01228975      -0.00869017      -0.01505181
In      -1.30618647      -2.32910531       7.23361909       11      -0.01228975       0.00869017       0.01505181
In       4.37287899       2.93146616       1.87795797       12       0.01228975       0.01738033       0.00000000
In       1.76050605       5.26057147       2.15617076       13      -0.01228975       0.00869017      -0.01505181
In       4.60003878       0.00000000      -0.00000000       14      -0.00000000      -0.00000000      -0.00000000
In       1.53334626       2.16847908       3.75591594       15      -0.00000000       0.00000000      -0.00000000
O        0.95764293       4.34898346       4.06793899       16       0.01711623      -0.01076686       0.02768517
O       -2.10904959       3.51692586       5.46744816       17       0.01711623       0.02935949      -0.00451821
O       -0.44258199       2.33855532      -0.00338607       18       0.02323471       0.02503307       0.00297537
O       -0.95764294      -0.80800699       2.02355528       19      -0.01711623       0.01859263       0.02316696
O        4.01880603       5.14301021       2.02694135       20       0.02197498      -0.01687480       0.02019159
O        2.11457901       2.98460148       1.71153222       21      -0.02197498      -0.02592383      -0.00451821
O        2.11457901       6.49536688       0.31540912       22      -0.02197498       0.00904903       0.02470980
O       -2.35233843       6.14318910       3.75252987       23      -0.01585651      -0.03025025       0.00297537
O        3.50927451       1.99840284       7.51521794       24      -0.02323471      -0.02503307      -0.00297537
O        5.41903095      -1.80623094       3.75930201       25       0.01585651       0.03025025      -0.00297537
O        6.57596703       3.33482432       1.72897459       26      -0.02323471       0.01509328      -0.02019159
O        3.78104661       2.34667073       4.07132506       27      -0.01585651       0.01770187       0.02470980
O        0.71435409       4.52101465       7.19980882       28      -0.01585651       0.01254838      -0.02768517
O        2.35233843      -0.18405649       0.31202305       29       0.01585651      -0.01254838       0.02768517
O       -3.50927451       1.00213384       5.78285729       30       0.02323471      -0.01509328       0.02019159
O        5.17574211       0.82003230       2.04438371       31      -0.01711623      -0.02935949       0.00451821
O        0.95211351       1.35235668       5.80029965       32       0.02197498       0.02592383       0.00451821
O        3.50927451      -0.99626899       5.77947122       33      -0.02323471       0.00993979       0.02316696
O        2.10904959      -0.01202530       3.44389288       34      -0.01711623       0.01076686      -0.02768517
O        0.95211351      -2.15840872       7.19642275       35       0.02197498      -0.00904903      -0.02470980
O       -0.71435409       1.99028743       3.44050681       36       0.01585651      -0.01770187      -0.02470980
O       -0.95211351      -0.80605205       5.48489052       37      -0.02197498       0.01687480      -0.02019159
O       -0.44258199       5.33322715       1.73236065       38       0.02323471      -0.00993979      -0.02316696
O        4.02433545       5.14496516       5.48827659       39       0.01711623      -0.01859263      -0.02316696
40
Lattice="9.200077567298534 7.210751022937121e-10 6.994170741352746e-15 -3.06669252311268 8.673916313465016 -1.2489528298120171e-09 -3.0666925220929326 -4.336958156011421 7.511831878593596" Properties=species:S:1:pos:R:3:spacegroup_kinds:I:1:forces:R:3 spacegroup="P 1" unit_cell=conventional occupancy="_JSON {\"0\": {\"In\": 1}, \"1\": {\"In\": 1}, \"2\": {\"In\": 1}, \"3\": {\"In\": 1}, \"4\": {\"In\": 1}, \"5\": {\"In\": 1}, \"6\": {\"In\": 1}, \"7\": {\"In\": 1}, \"8\": {\"In\": 1}, \"9\": {\"In\": 1}, \"10\": {\"In\": 1}, \"11\": {\"In\": 1}, \"12\": {\"In\": 1}, \"13\": {\"In\": 1}, \"14\": {\"In\": 1}, \"15\": {\"In\": 1}, \"16\": {\"O\": 1}, \"17\": {\"O\": 1}, \"18\": {\"O\": 1}, \"19\": {\"O\": 1}, \"20\": {\"O\": 1}, \"21\": {\"O\": 1}, \"22\": {\"O\": 1}, \"23\": {\"O\": 1}, \"24\": {\"O\": 1}, \"25\": {\"O\": 1}, \"26\": {\"O\": 1}, \"27\": {\"O\": 1}, \"28\": {\"O\": 1}, \"29\": {\"O\": 1}, \"30\": {\"O\": 1}, \"31\": {\"O\": 1}, \"32\": {\"O\": 1}, \"33\": {\"O\": 1}, \"34\": {\"O\": 1}, \"35\": {\"O\": 1}, \"36\": {\"O\": 1}, \"37\": {\"O\": 1}, \"38\": {\"O\": 1}, \"39\": {\"O\": 1}}" n_minim_iter=5 energy=-45149.8653591546 stress="0.06716402462255432 9.900729888265073e-14 4.556474566603433e-14 9.900729888265073e-14 0.06716402462242146 -1.160701057621865e-14 4.556474566603433e-14 -1.160701057621865e-14 0.06716402462268167" free_energy=-45149.8653591546 pbc="T T T"
In      -4.37342240       3.09247664       5.91142116        0       0.00316834      -0.00224036       0.00388041
In       7.44011492       1.24448152       1.60041071        1      -0.00316834       0.00224036      -0.00388041
In       1.30672988      -0.92399756       5.35632665        2      -0.00316834       0.00224036      -0.00388041
In      -1.53334626      -2.16847908       3.75591594        3       0.00000000      -0.00000000       0.00000000
In      -1.30672988       4.17671618       3.47836868        4       0.00316834      -0.00224036      -0.00388041
In       4.82665517      -2.93223465       5.63387391        5       0.00316834       0.00448071       0.00000000
In      -1.30672988       1.40472350       5.63387391        6       0.00316834       0.00448071       0.00000000
In      -1.75996265       7.26919281       1.87795797        7      -0.00316834      -0.00448071       0.00000000
In       4.37342240       0.16024198       4.03346319        8      -0.00316834       0.00224036       0.00388041
In      -1.53334626       4.33695816      -0.00000000        9       0.00000000      -0.00000000      -0.00000000
In       4.37342240       6.66567922       0.27754725       10      -0.00316834       0.00224036       0.00388041
In      -1.30672988      -2.32872106       7.23428462       11       0.00316834      -0.00224036      -0.00388041
In       4.37342240       2.93223466       1.87795797       12      -0.00316834      -0.00448071      -0.00000000
In       1.75996264       5.26095572       2.15550522       13       0.00316834      -0.00224036       0.00388041
In       4.60003878       0.00000000      -0.00000000       14       0.00000000       0.00000000       0.00000000
In       1.53334626       2.16847908       3.75591594       15      -0.00000000       0.00000000       0.00000000
O        0.96406627       4.34980390       4.07111778       16       0.00490449      -0.02050885      -0.00408526
O       -2.10262625       3.51926855       5.46514825       17       0.00490449       0.00671648       0.01980382
O       -0.43745865       2.34181725      -0.00727815       18      -0.01136874       0.01822340      -0.00012674
O       -0.96406628      -0.80484387       2.02443415       19      -0.00490449      -0.01379237       0.01571856
O        4.01887362       5.13759998       2.03171230       20       0.00469753       0.01371920       0.01584529
O        2.11451142       2.97776460       1.70923231       21      -0.00469753      -0.00686283       0.01980382
O        2.11451142       6.49679354       0.32247999       22      -0.00469753       0.02058203      -0.00395852
O       -2.35370603       6.13727146       3.74863778       23      -0.02097076       0.00464408      -0.00012674
O        3.50415117       1.99514091       7.51911003       24       0.01136874      -0.01822340       0.00012674
O        5.42039855      -1.80031330       3.76319409       25       0.02097076      -0.00464408       0.00012674
O        6.57084369       3.33308464       1.72420363       26       0.01136874       0.00900194      -0.01584529
O        3.77967902       2.34625891       4.07839593       27      -0.02097076      -0.00243180      -0.00395852
O        0.71298649       4.52734411       7.19663003       28      -0.02097076      -0.00221228       0.00408526
O        2.35370603      -0.19038595       0.31520184       29       0.02097076       0.00221228      -0.00408526
O       -3.50415117       1.00387352       5.78762824       30      -0.01136874      -0.00900194       0.01584529
O        5.16931877       0.81768961       2.04668362       31      -0.00490449      -0.00671648      -0.01980382
O        0.95218110       1.35919356       5.80259956       32       0.00469753       0.00686283      -0.01980382
O        3.50415117      -0.99126739       5.78035009       33       0.01136874       0.00922146       0.01571856
O        2.10262625      -0.01284574       3.44071409       34      -0.00490449       0.02050885       0.00408526
O        0.95218110      -2.15983538       7.18935188       35       0.00469753      -0.02058203       0.00395852
O       -0.71298650       1.99069925       3.43343594       36       0.02097076       0.00243180       0.00395852
O       -0.95218110      -0.80064182       5.48011957       37      -0.00469753      -0.01371920      -0.01584529
O       -0.43745865       5.32822555       1.73148178       38      -0.01136874      -0.00922146      -0.01571856
O        4.03075880       5.14180203       5.48739772       39       0.00490449       0.01379237      -0.01571856
40