40
Lattice="8.186428908789978 6.416276224791781e-10 1.7621618780385485e-14 -2.7288096368682586 7.718239193262097 -1.1113507930749034e-09 -2.7288096359608742 -3.8591195959894122 6.684191214590581" Properties=species:S:1:pos:R:3:spacegroup_kinds:I:1:forces:R:3 spacegroup="P 1" unit_cell=conventional occupancy="_JSON {\"0\": {\"In\": 1}, \"1\": {\"In\": 1}, \"2\": {\"In\": 1}, \"3\": {\"In\": 1}, \"4\": {\"In\": 1}, \"5\": {\"In\": 1}, \"6\": {\"In\": 1}, \"7\": {\"In\": 1}, \"8\": {\"In\": 1}, \"9\": {\"In\": 1}, \"10\": {\"In\": 1}, \"11\": {\"In\": 1}, \"12\": {\"In\": 1}, \"13\": {\"In\": 1}, \"14\": {\"In\": 1}, \"15\": {\"In\": 1}, \"16\": {\"O\": 1}, \"17\": {\"O\": 1}, \"18\": {\"O\": 1}, \"19\": {\"O\": 1}, \"20\": {\"O\": 1}, \"21\": {\"O\": 1}, \"22\": {\"O\": 1}, \"23\": {\"O\": 1}, \"24\": {\"O\": 1}, \"25\": {\"O\": 1}, \"26\": {\"O\": 1}, \"27\": {\"O\": 1}, \"28\": {\"O\": 1}, \"29\": {\"O\": 1}, \"30\": {\"O\": 1}, \"31\": {\"O\": 1}, \"32\": {\"O\": 1}, \"33\": {\"O\": 1}, \"34\": {\"O\": 1}, \"35\": {\"O\": 1}, \"36\": {\"O\": 1}, \"37\": {\"O\": 1}, \"38\": {\"O\": 1}, \"39\": {\"O\": 1}}" n_minim_iter=9 energy=-45131.84447339866 stress="-0.4164184406147992 -6.59710113566201e-15 -1.6972893308723348e-13 -6.59710113566201e-15 -0.4164184406147817 -1.4336891900213452e-13 -1.6972893308723348e-13 -1.4336891900213452e-13 -0.41641844061488564" free_energy=-45131.84447339866 pbc="T T T"
In      -3.88823237       2.74939548       5.26419416        0      -0.00567735       0.00401450      -0.00695331
In       6.61704201       1.10972412       1.41999705        1       0.00567735      -0.00401450       0.00695331
In       1.15942274      -0.81983568       4.76209266        2       0.00567735      -0.00401450       0.00695331
In      -1.36440482      -1.92955980       3.34209561        3       0.00000000      -0.00000000      -0.00000000
In      -1.15942274       3.71417538       3.09104485        4      -0.00567735       0.00401450       0.00695331
In       4.29819653      -2.60445126       5.01314341        5      -0.00567735      -0.00802899       0.00000000
In      -1.15942274       1.25466834       5.01314341        6      -0.00567735      -0.00802899      -0.00000000
In      -1.56938690       6.46357086       1.67104780        7       0.00567735       0.00802899       0.00000000
In       3.88823237       0.14494422       3.59314636        8       0.00567735      -0.00401450      -0.00695331
In      -1.36440482       3.85911960      -0.00000000        9      -0.00000000      -0.00000000       0.00000000
In       3.88823237       5.93362362       0.25105075       10       0.00567735      -0.00401450      -0.00695331
In      -1.15942274      -2.07450402       6.43314046       11      -0.00567735       0.00401450       0.00695331
In       3.88823237       2.60445126       1.67104780       12       0.00567735       0.00802899      -0.00000000
In       1.56938690       4.67895528       1.92209855       13      -0.00567735       0.00401450      -0.00695331
In       4.09321445       0.00000000      -0.00000000       14      -0.00000000       0.00000000       0.00000000
In       1.36440482       1.92955980       3.34209560       15      -0.00000000      -0.00000000       0.00000000
O        0.77595610       3.84919989       3.69882333       16       0.00692502      -0.00301288       0.00623750
O       -1.95285353       3.20823483       4.84337026       17       0.00692502       0.00690828      -0.00050952
O       -0.36436040       2.08500056       0.10467786       18       0.00598095       0.00757583      -0.00166576
O       -0.77595611      -0.66080448       1.85800238       19      -0.00692502       0.00389540       0.00572798
O        3.67570398       4.58035987       1.75332452       20       0.00420485      -0.00485712       0.00739374
O        1.78191529       2.70131616       1.50127465       21      -0.00420485      -0.00883173      -0.00050952
O        1.78191529       5.73816331       0.25204986       22      -0.00420485       0.00397461       0.00790326
O       -2.08721085       5.43720149       3.44677347       23      -0.00514891      -0.00816417      -0.00166576
O        3.09317003       1.77411904       6.57951335       24      -0.00598095      -0.00757583       0.00166576
O        4.81602048      -1.57808189       3.23741774       25       0.00514891       0.00816417       0.00166576
O        5.82197967       3.06271377       1.58877108       26      -0.00598095       0.00234533      -0.00739374
O        3.37040842       2.19595244       3.59414547       27      -0.00514891       0.00263950       0.00790326
O        0.64159879       3.94420486       6.32746348       28      -0.00514891       0.00552467      -0.00623750
O        2.08721085      -0.08508526       0.35672773       29       0.00514891      -0.00552467       0.00623750
O       -3.09317004       0.79640583       5.09542013       30       0.00598095      -0.00234533       0.00739374
O        4.68166317       0.65088477       1.84082095       31      -0.00692502      -0.00690828       0.00050952
O        0.94689434       1.15780344       5.18291656       32       0.00420485       0.00883173       0.00050952
O        3.09317004      -0.97771320       5.20009799       33      -0.00598095       0.00523050       0.00572798
O        1.95285353       0.00991971       2.98536788       34      -0.00692502       0.00301288      -0.00623750
O        0.94689434      -1.87904371       6.43214135       35       0.00420485      -0.00397461      -0.00790326
O       -0.64159879       1.66316716       3.09004574       36       0.00514891      -0.00263950      -0.00790326
O       -0.94689434      -0.72124027       4.93086669       37      -0.00420485       0.00485712      -0.00739374
O       -0.36436040       4.83683281       1.48409322       38       0.00598095      -0.00523050      -0.00572798
O        3.50476574       4.51992408       4.82618883       39       0.00692502      -0.00389540      -0.00572798
