40
Lattice="9.269253680286218 7.264977913791335e-10 7.6544683178789e-15 -3.089751227447023 8.739136178249497 -1.2583444606825216e-09 -3.0897512264196063 -4.36956808839824 7.568313938334612" Properties=species:S:1:pos:R:3:spacegroup_kinds:I:1:forces:R:3 spacegroup="P 1" unit_cell=conventional occupancy="_JSON {\"0\": {\"In\": 1}, \"1\": {\"In\": 1}, \"2\": {\"In\": 1}, \"3\": {\"In\": 1}, \"4\": {\"In\": 1}, \"5\": {\"In\": 1}, \"6\": {\"In\": 1}, \"7\": {\"In\": 1}, \"8\": {\"In\": 1}, \"9\": {\"In\": 1}, \"10\": {\"In\": 1}, \"11\": {\"In\": 1}, \"12\": {\"In\": 1}, \"13\": {\"In\": 1}, \"14\": {\"In\": 1}, \"15\": {\"In\": 1}, \"16\": {\"O\": 1}, \"17\": {\"O\": 1}, \"18\": {\"O\": 1}, \"19\": {\"O\": 1}, \"20\": {\"O\": 1}, \"21\": {\"O\": 1}, \"22\": {\"O\": 1}, \"23\": {\"O\": 1}, \"24\": {\"O\": 1}, \"25\": {\"O\": 1}, \"26\": {\"O\": 1}, \"27\": {\"O\": 1}, \"28\": {\"O\": 1}, \"29\": {\"O\": 1}, \"30\": {\"O\": 1}, \"31\": {\"O\": 1}, \"32\": {\"O\": 1}, \"33\": {\"O\": 1}, \"34\": {\"O\": 1}, \"35\": {\"O\": 1}, \"36\": {\"O\": 1}, \"37\": {\"O\": 1}, \"38\": {\"O\": 1}, \"39\": {\"O\": 1}}" n_minim_iter=6 energy=-45148.872963584676 stress="0.0781924994850632 -9.4110657504938e-14 -2.1185701313674718e-14 -9.4110657504938e-14 0.07819249948493028 1.0514924765543812e-13 -2.1185701313674718e-14 1.0514924765543812e-13 0.0781924994847414" free_energy=-45148.872963584676 pbc="T T T"
In      -4.40352480       3.11376225       5.95927649        0       0.00329543      -0.00233022       0.00403606
In       7.49327602       1.25580585       1.60903744        1      -0.00329543       0.00233022      -0.00403606
In       1.31377357      -0.92897820       5.39319441        2      -0.00329543       0.00233022      -0.00403606
In      -1.54487561      -2.18478404       3.78415697        3      -0.00000000      -0.00000000      -0.00000000
In      -1.31377357       4.20615427       3.50111593        4       0.00329543      -0.00233022      -0.00403606
In       4.86572888      -2.95034842       5.67623545        5       0.00329543       0.00466044      -0.00000000
In      -1.31377357       1.41921967       5.67623545        6       0.00329543       0.00466044       0.00000000
In      -1.77597766       7.31991652       1.89207848        7      -0.00329543      -0.00466044      -0.00000000
In       4.40352480       0.16341382       4.06719801        8      -0.00329543       0.00233022       0.00403606
In      -1.54487562       4.36956809      -0.00000000        9       0.00000000       0.00000000      -0.00000000
In       4.40352480       6.71776596       0.28304104       10      -0.00329543       0.00233022       0.00403606
In      -1.31377357      -2.34819786       7.28527289       11       0.00329543      -0.00233022      -0.00403606
In       4.40352480       2.95034843       1.89207848       12      -0.00329543      -0.00466044       0.00000000
In       1.77597765       5.29854629       2.17511952       13       0.00329543      -0.00233022       0.00403606
In       4.63462684       0.00000000      -0.00000000       14      -0.00000000       0.00000000      -0.00000000
In       1.54487561       2.18478405       3.78415697       15      -0.00000000      -0.00000000       0.00000000
O        0.99199248       4.38339928       4.09327008       16      -0.00036913       0.00254722       0.00774858
O       -2.09775874       3.53796029       5.50970073       17      -0.00036913       0.00543685      -0.00608024
O       -0.44034303       2.36599039      -0.02870181       18       0.00740441      -0.00005987       0.00344036
O       -0.99199249      -0.81777662       2.03465688       19       0.00036913       0.00798407       0.00166833
O        4.03487386       5.17077371       2.06335868       20       0.00524896      -0.00599778      -0.00177203
O        2.14462859       2.98324986       1.72554376       21      -0.00524896      -0.00146427      -0.00608024
O        2.14462859       6.55709194       0.33781492       22      -0.00524896      -0.00453351       0.00430822
O       -2.37745815       6.18084806       3.75545516       23       0.00252458      -0.00696099       0.00344036
O        3.53009425       2.00357770       7.59701574       24      -0.00740441       0.00005987      -0.00344036
O        5.46720937      -1.81127997       3.81285877       25      -0.00252458       0.00696099      -0.00344036
O        6.61984548       3.34292275       1.72079828       26      -0.00740441       0.00294951       0.00177203
O        3.80204431       2.34667959       4.12197189       27       0.00252458       0.00645994       0.00430822
O        0.71229308       4.58117662       7.25920082       28       0.00252458       0.00050106      -0.00774858
O        2.37745814      -0.21160853       0.30911311       29      -0.00252458      -0.00050106       0.00774858
O       -3.53009426       1.02664534       5.84751565       30       0.00740441      -0.00294951      -0.00177203
O        5.18750997       0.83160781       2.05861320       31       0.00036913      -0.00543685       0.00608024
O        0.94512263       1.38631823       5.84277017       32       0.00524896       0.00146427       0.00608024
O        3.53009425      -0.97693235       5.81881385       33      -0.00740441      -0.00300937       0.00166833
O        2.09775874      -0.01383119       3.47504385       34       0.00036913      -0.00254722      -0.00774858
O        0.94512263      -2.18752385       7.23049901       35       0.00524896       0.00453351      -0.00430822
O       -0.71229309       2.02288850       3.44634204       36      -0.00252458      -0.00645994      -0.00430822
O       -0.94512263      -0.80120562       5.50495525       37      -0.00524896       0.00599778       0.00177203
O       -0.44034303       5.34650045       1.74950008       38       0.00740441       0.00300937      -0.00166833
O        4.08174371       5.18734471       5.53365705       39      -0.00036913      -0.00798407      -0.00166833
