40
Lattice="9.337412405126326 7.318398787539639e-10 7.710753194511981e-15 -3.1124708023987626 8.803396840289675 -1.267597325779109e-09 -3.112470801363791 -4.401698419412987 7.6239653041315805" Properties=species:S:1:pos:R:3:spacegroup_kinds:I:1:forces:R:3 spacegroup="P 1" unit_cell=conventional occupancy="_JSON {\"0\": {\"In\": 1}, \"1\": {\"In\": 1}, \"2\": {\"In\": 1}, \"3\": {\"In\": 1}, \"4\": {\"In\": 1}, \"5\": {\"In\": 1}, \"6\": {\"In\": 1}, \"7\": {\"In\": 1}, \"8\": {\"In\": 1}, \"9\": {\"In\": 1}, \"10\": {\"In\": 1}, \"11\": {\"In\": 1}, \"12\": {\"In\": 1}, \"13\": {\"In\": 1}, \"14\": {\"In\": 1}, \"15\": {\"In\": 1}, \"16\": {\"O\": 1}, \"17\": {\"O\": 1}, \"18\": {\"O\": 1}, \"19\": {\"O\": 1}, \"20\": {\"O\": 1}, \"21\": {\"O\": 1}, \"22\": {\"O\": 1}, \"23\": {\"O\": 1}, \"24\": {\"O\": 1}, \"25\": {\"O\": 1}, \"26\": {\"O\": 1}, \"27\": {\"O\": 1}, \"28\": {\"O\": 1}, \"29\": {\"O\": 1}, \"30\": {\"O\": 1}, \"31\": {\"O\": 1}, \"32\": {\"O\": 1}, \"33\": {\"O\": 1}, \"34\": {\"O\": 1}, \"35\": {\"O\": 1}, \"36\": {\"O\": 1}, \"37\": {\"O\": 1}, \"38\": {\"O\": 1}, \"39\": {\"O\": 1}}" n_minim_iter=6 energy=-45148.872963584676 stress="0.0781924994850632 -9.4110657504938e-14 -2.1185701313674718e-14 -9.4110657504938e-14 0.07819249948493028 1.0514924765543812e-13 -2.1185701313674718e-14 1.0514924765543812e-13 0.0781924994847414" free_energy=-45148.872963584676 pbc="T T T"
In      -4.43590482       3.13665838       6.00309627        0       0.00329543      -0.00233022       0.00403606
In       7.54837562       1.26504004       1.62086902        1      -0.00329543       0.00233022      -0.00403606
In       1.32343402      -0.93580917       5.43285168        2      -0.00329543       0.00233022      -0.00403606
In      -1.55623540      -2.20084921       3.81198265        3      -0.00000000      -0.00000000      -0.00000000
In      -1.32343402       4.23708299       3.52686035        4       0.00329543      -0.00233022      -0.00403606
In       4.90150758      -2.97204294       5.71797398        5       0.00329543       0.00466044      -0.00000000
In      -1.32343402       1.42965548       5.71797397        6       0.00329543       0.00466044       0.00000000
In      -1.78903679       7.37374136       1.90599132        7      -0.00329543      -0.00466044      -0.00000000
In       4.43590482       0.16461544       4.09710495        8      -0.00329543       0.00233022       0.00403606
In      -1.55623540       4.40169842      -0.00000000        9       0.00000000       0.00000000      -0.00000000
In       4.43590482       6.76716307       0.28512230       10      -0.00329543       0.00233022       0.00403606
In      -1.32343402      -2.36546464       7.33884300       11       0.00329543      -0.00233022      -0.00403606
In       4.43590482       2.97204294       1.90599132       12      -0.00329543      -0.00466044       0.00000000
In       1.78903678       5.33750759       2.19111362       13       0.00329543      -0.00233022       0.00403606
In       4.66870620       0.00000000      -0.00000000       14      -0.00000000       0.00000000      -0.00000000
In       1.55623540       2.20084921       3.81198265       15      -0.00000000      -0.00000000       0.00000000
O        0.99928681       4.41563131       4.12336874       16      -0.00036913       0.00254722       0.00774858
O       -2.11318399       3.56397563       5.55021469       17      -0.00036913       0.00543685      -0.00608024
O       -0.44358096       2.38338801      -0.02891286       18       0.00740441      -0.00005987       0.00344036
O       -0.99928681      -0.82378990       2.04961813       19       0.00036913       0.00798407       0.00166833
O        4.06454311       5.20879547       2.07853098       20       0.00524896      -0.00599778      -0.00177203
O        2.16039849       3.00518631       1.73823204       21      -0.00524896      -0.00146427      -0.00608024
O        2.16039849       6.60530759       0.34029894       22      -0.00524896      -0.00453351       0.00430822
O       -2.39494008       6.22629710       3.78306979       23       0.00252458      -0.00696099       0.00344036
O        3.55605176       2.01831042       7.65287816       24      -0.00740441       0.00005987      -0.00344036
O        5.50741088      -1.82459868       3.84089551       25      -0.00252458       0.00696099      -0.00344036
O        6.66852256       3.36750395       1.73345166       26      -0.00740441       0.00294951       0.00177203
O        3.83000152       2.36393521       4.15228159       27       0.00252458       0.00645994       0.00430822
O        0.71753072       4.61486296       7.31257921       28       0.00252458       0.00050106      -0.00774858
O        2.39494008      -0.21316453       0.31138608       29      -0.00252458      -0.00050106       0.00774858
O       -3.55605176       1.03419448       5.89051364       30       0.00740441      -0.00294951      -0.00177203
O        5.22565479       0.83772279       2.07375061       31       0.00036913      -0.00543685       0.00608024
O        0.95207231       1.39651211       5.88573326       32       0.00524896       0.00146427       0.00608024
O        3.55605176      -0.98411594       5.86160078       33      -0.00740441      -0.00300937       0.00166833
O        2.11318399      -0.01393289       3.50059656       34       0.00036913      -0.00254722      -0.00774858
O        0.95207231      -2.20360916       7.28366636       35       0.00524896       0.00453351      -0.00430822
O       -0.71753072       2.03776322       3.47168370       36      -0.00252458      -0.00645994      -0.00430822
O       -0.95207231      -0.80709705       5.54543431       37      -0.00524896       0.00599778       0.00177203
O       -0.44358096       5.38581436       1.76236452       38       0.00740441       0.00300937      -0.00166833
O        4.11175761       5.22548832       5.57434717       39      -0.00036913      -0.00798407      -0.00166833
