40
Lattice="8.18642890878995 6.416297060940571e-10 1.4371877485011194e-14 -2.7288096368682533 7.71823919326208 -1.1113539865173848e-09 -2.7288096359608627 -3.8591195959893994 6.684191214590558" Properties=species:S:1:pos:R:3:spacegroup_kinds:I:1:forces:R:3 spacegroup="P 1" unit_cell=conventional occupancy="_JSON {\"0\": {\"In\": 1}, \"1\": {\"In\": 1}, \"2\": {\"In\": 1}, \"3\": {\"In\": 1}, \"4\": {\"In\": 1}, \"5\": {\"In\": 1}, \"6\": {\"In\": 1}, \"7\": {\"In\": 1}, \"8\": {\"In\": 1}, \"9\": {\"In\": 1}, \"10\": {\"In\": 1}, \"11\": {\"In\": 1}, \"12\": {\"In\": 1}, \"13\": {\"In\": 1}, \"14\": {\"In\": 1}, \"15\": {\"In\": 1}, \"16\": {\"O\": 1}, \"17\": {\"O\": 1}, \"18\": {\"O\": 1}, \"19\": {\"O\": 1}, \"20\": {\"O\": 1}, \"21\": {\"O\": 1}, \"22\": {\"O\": 1}, \"23\": {\"O\": 1}, \"24\": {\"O\": 1}, \"25\": {\"O\": 1}, \"26\": {\"O\": 1}, \"27\": {\"O\": 1}, \"28\": {\"O\": 1}, \"29\": {\"O\": 1}, \"30\": {\"O\": 1}, \"31\": {\"O\": 1}, \"32\": {\"O\": 1}, \"33\": {\"O\": 1}, \"34\": {\"O\": 1}, \"35\": {\"O\": 1}, \"36\": {\"O\": 1}, \"37\": {\"O\": 1}, \"38\": {\"O\": 1}, \"39\": {\"O\": 1}}" n_minim_iter=6 energy=-45136.96874565605 stress="-0.3377932262683905 1.6305050512005153e-13 -6.134435666331351e-14 1.6305050512005153e-13 -0.3377932262686582 -1.1634895821632369e-13 -6.134435666331351e-14 -1.1634895821632369e-13 -0.33779322626849595" free_energy=-45136.96874565605 pbc="T T T"
In      -3.89442697       2.75377572       5.25660736        0      -0.00215344       0.00152271      -0.00263742
In       6.62323660       1.10534388       1.42758385        1       0.00215344      -0.00152271       0.00263742
In       1.16561733      -0.82421592       4.76967945        2       0.00215344      -0.00152271       0.00263742
In      -1.36440482      -1.92955980       3.34209561        3      -0.00000000      -0.00000000      -0.00000000
In      -1.16561733       3.71855562       3.09863165        4      -0.00215344       0.00152271       0.00263742
In       4.29200194      -2.61321174       5.01314341        5      -0.00215344      -0.00304543       0.00000000
In      -1.16561733       1.24590786       5.01314341        6      -0.00215344      -0.00304543       0.00000000
In      -1.56319231       6.47233134       1.67104780        7       0.00215344       0.00304543       0.00000000
In       3.89442697       0.14056398       3.58555956        8       0.00215344      -0.00152271      -0.00263742
In      -1.36440482       3.85911960      -0.00000000        9       0.00000000       0.00000000      -0.00000000
In       3.89442697       5.92924338       0.24346395       10       0.00215344      -0.00152271      -0.00263742
In      -1.16561733      -2.07012378       6.44072726       11      -0.00215344       0.00152271       0.00263742
In       3.89442697       2.61321174       1.67104780       12       0.00215344       0.00304543       0.00000000
In       1.56319230       4.68333552       1.91451176       13      -0.00215344       0.00152271      -0.00263742
In       4.09321445       0.00000000      -0.00000000       14      -0.00000000      -0.00000000       0.00000000
In       1.36440482       1.92955980       3.34209560       15       0.00000000      -0.00000000      -0.00000000
O        0.77579170       3.84927312       3.68814453       16       0.00264622       0.00011885       0.00384482
O       -1.95301794       3.19895010       4.84864624       17       0.00264622       0.00327029      -0.00202534
O       -0.37309989       2.08177933       0.09945156       18       0.00407738       0.00225830      -0.00027252
O       -0.77579170      -0.67001597       1.85259956       19      -0.00264622       0.00338914       0.00181948
O        3.66700505       4.58655396       1.75314800       20       0.00220119      -0.00354648       0.00209201
O        1.79061421       2.70456607       1.50655063       21      -0.00220119      -0.00358497      -0.00202534
O        1.79061421       5.74110748       0.24659736       22      -0.00220119       0.00003849       0.00411735
O       -2.08708700       5.44651490       3.44154717       23      -0.00077002      -0.00459696      -0.00027252
O        3.10190952       1.77734027       6.58473965       24      -0.00407738      -0.00225830       0.00027252
O        4.81589664      -1.58739530       3.24264404       25       0.00077002       0.00459696       0.00027252
O        5.83071916       3.05657704       1.58894760       26      -0.00407738       0.00089314      -0.00209201
O        3.37053227       2.18676963       3.58869297       27      -0.00077002       0.00206247       0.00411735
O        0.64172263       3.94407427       6.33814228       28      -0.00077002       0.00253449      -0.00384482
O        2.08708700      -0.08495467       0.34604893       29       0.00077002      -0.00253449       0.00384482
O       -3.10190952       0.80254256       5.09524361       30       0.00407738      -0.00089314       0.00209201
O        4.68182757       0.66016950       1.83554497       31      -0.00264622      -0.00327029       0.00202534
O        0.93819542       1.15455353       5.17764058       32       0.00220119       0.00358497       0.00202534
O        3.10190952      -0.97479771       5.19469517       33      -0.00407738       0.00136516       0.00181948
O        1.95301794       0.00984648       2.99604668       34      -0.00264622      -0.00011885      -0.00384482
O        0.93819542      -1.88198788       6.43759385       35       0.00220119      -0.00003849      -0.00411735
O       -0.64172264       1.67234997       3.09549824       36       0.00077002      -0.00206247      -0.00411735
O       -0.93819542      -0.72743436       4.93104321       37      -0.00220119       0.00354648      -0.00209201
O       -0.37309989       4.83391731       1.48949604       38       0.00407738      -0.00136516      -0.00181948
O        3.50460133       4.52913557       4.83159165       39       0.00264622      -0.00338914      -0.00181948
