1
Lattice="3.6795301757433494 -0.062152126451641254 -2.3512489390947134e-10 0.19265640550627128 3.675008668077635 -7.388850760335926e-10 -1.9360932904529773 -1.8064282703081824 2.5556143832594738" Properties=species:S:1:pos:R:3:spacegroup_kinds:I:1:forces:R:3 spacegroup="P 1" unit_cell=conventional occupancy="_JSON {\"0\": {\"In\": 1}}" n_minim_iter=1 energy=-1970.559861868187 stress="0.0291205259048329 0.0010859644153241239 -2.927796893814616e-13 0.0010859644153241239 0.028969845861966492 -2.7315649742121195e-13 -2.927796893814616e-13 -2.7315649742121195e-13 0.027956611205125492" pbc="T T T"
In       0.00000000       0.00000000       0.00000000        0       0.00000000       0.00000000       0.00000000
