10
Lattice="5.643206928896716 0.02753363162476392 0.019011585735073576 3.1195691757071975 4.702640822048384 0.019011585735077406 3.1195691757071993 1.6839533779304912 4.390841965106981" Properties=species:S:1:pos:R:3:spacegroup_kinds:I:1:forces:R:3 spacegroup="P 1" unit_cell=conventional occupancy="_JSON {\"0\": {\"In\": 1}, \"1\": {\"In\": 1}, \"2\": {\"In\": 1}, \"3\": {\"In\": 1}, \"4\": {\"O\": 1}, \"5\": {\"O\": 1}, \"6\": {\"O\": 1}, \"7\": {\"O\": 1}, \"8\": {\"O\": 1}, \"9\": {\"O\": 1}}" n_minim_iter=1 energy=-11286.610083628468 stress="-0.1634880753396615 0.002083763423282942 0.0014388093619577145 0.002083763423282942 -0.16622348130516343 0.0007766738771280757 0.0014388093619577145 0.0007766738771280757 -0.16681202104016618" free_energy=-11286.610083628468 pbc="T T T"
In      10.19115602       5.50121848       3.79851406        0       0.06162363       0.03326463       0.02296876
In       7.63236191       4.11997328       2.84478365        1      -0.06162363      -0.03326463      -0.02296876
In       4.24998338       2.29415457       1.58408149        2       0.06162363       0.03326463       0.02296876
In       1.69118927       0.91290936       0.63035108        3      -0.06162363      -0.03326463      -0.02296876
O        5.79218979       2.24696084       0.20481060        4       0.00000000       0.03548738      -0.05139480
O        6.82557375       4.94379058       1.12622787        5      -0.02966763       0.05496009       0.00000000
O        7.87837500       2.11376614       2.40023158        6       0.02966763      -0.01947270      -0.05139480
O        4.00397029       4.30036170       2.02863356        7      -0.02966763       0.01947270       0.05139480
O        6.09015550       4.16716700       4.22405454        8       0.00000000      -0.03548738       0.05139480
O        5.05677154       1.47033726       3.30263727        9       0.02966763      -0.05496009       0.00000000
10
Lattice="5.624294021231994 0.008120508345631017 0.005607096903498537 3.09296178225646 4.697481941787827 0.00560709690350235 3.0929617822564612 1.6695906221922296 4.390767038598856" Properties=species:S:1:pos:R:3:spacegroup_kinds:I:1:forces:R:3 spacegroup="P 1" unit_cell=conventional occupancy="_JSON {\"0\": {\"In\": 1}, \"1\": {\"In\": 1}, \"2\": {\"In\": 1}, \"3\": {\"In\": 1}, \"4\": {\"O\": 1}, \"5\": {\"O\": 1}, \"6\": {\"O\": 1}, \"7\": {\"O\": 1}, \"8\": {\"O\": 1}, \"9\": {\"O\": 1}}" n_minim_iter=2 energy=-11286.612043940711 stress="-0.16472948501133244 -0.0007423134254032705 -0.0005125569895419148 -0.0007423134254032705 -0.16375503246420267 -0.0002766798943651592 -0.0005125569895419148 -0.0002766798943651592 -0.16354537289259566" free_energy=-11286.612043940711 pbc="T T T"
In      10.13016910       5.46829755       3.77578262        0       0.15879035       0.08571554       0.05918538
In       7.58515729       4.09449207       2.82718924        1      -0.15879035      -0.08571554      -0.05918537
In       4.22506031       2.28070101       1.57479200        2       0.15879035       0.08571554       0.05918538
In       1.68004850       0.90689553       0.62619862        3      -0.15879035      -0.08571554      -0.05918538
O        5.76470141       2.22994892       0.18787054        4       0.00000000       0.00075948      -0.00109993
O        6.78275159       4.92553169       1.10610241        5      -0.00063493       0.00117623      -0.00000000
O        7.83961302       2.08581203       2.38325406        6       0.00063493      -0.00041674      -0.00109993
O        3.97060458       4.28938105       2.01872718        7      -0.00063493       0.00041674       0.00109993
O        6.04551618       4.14524417       4.21411070        8      -0.00000000      -0.00075948       0.00109993
O        5.02746601       1.44966139       3.29587883        9       0.00063493      -0.00117623       0.00000000
10
Lattice="5.614056036276085 -0.0024331867201981662 -0.0016800812392281476 3.0785210345625993 4.694713978359195 -0.0016800812392243382 3.0785210345626006 1.6617954605884147 4.390760527339416" Properties=species:S:1:pos:R:3:spacegroup_kinds:I:1:forces:R:3 spacegroup="P 1" unit_cell=conventional occupancy="_JSON {\"0\": {\"In\": 1}, \"1\": {\"In\": 1}, \"2\": {\"In\": 1}, \"3\": {\"In\": 1}, \"4\": {\"O\": 1}, \"5\": {\"O\": 1}, \"6\": {\"O\": 1}, \"7\": {\"O\": 1}, \"8\": {\"O\": 1}, \"9\": {\"O\": 1}}" n_minim_iter=3 energy=-11286.617342321113 stress="-0.15985653674547162 0.0015371715589192756 0.0010613953612708864 0.0015371715589192756 -0.16187441852768714 0.000572944597155177 0.0010613953612708864 0.000572944597155177 -0.16230857843837276" free_energy=-11286.617342321113 pbc="T T T"
In      10.10835897       5.45652437       3.76765340        0      -0.02481339      -0.01339435      -0.00924861
In       7.54828820       4.07459002       2.81344715        1       0.02481339       0.01339435       0.00924861
In       4.22280992       2.27948625       1.57395322        2      -0.02481339      -0.01339435      -0.00924861
In       1.66273915       0.89755189       0.61974697        3       0.02481339       0.01339435       0.00924861
O        5.74980255       2.22157201       0.17742577        4       0.00000000       0.05338751      -0.07731875
O        6.75881057       4.91696656       1.09517001        5      -0.04463223       0.08268241      -0.00000000
O        7.81931556       2.07016265       2.37280603        6       0.04463223      -0.02929489      -0.07731875
O        3.95178255       4.28391361       2.01459433        7      -0.04463223       0.02929489       0.07731875
O        6.02129557       4.13250425       4.20997460        8      -0.00000000      -0.05338751       0.07731875
O        5.01228754       1.43710971       3.29223036        9       0.04463223      -0.08268241      -0.00000000
10
Lattice="5.5967206692831795 -0.020376451007322934 -0.014069653091239028 3.0540080815865838 4.690067386226036 -0.014069653091235208 3.0540080815865855 1.64856329048991 4.39080506510233" Properties=species:S:1:pos:R:3:spacegroup_kinds:I:1:forces:R:3 spacegroup="P 1" unit_cell=conventional occupancy="_JSON {\"0\": {\"In\": 1}, \"1\": {\"In\": 1}, \"2\": {\"In\": 1}, \"3\": {\"In\": 1}, \"4\": {\"O\": 1}, \"5\": {\"O\": 1}, \"6\": {\"O\": 1}, \"7\": {\"O\": 1}, \"8\": {\"O\": 1}, \"9\": {\"O\": 1}}" n_minim_iter=4 energy=-11286.619688143739 stress="-0.1574206841157097 0.000537809620251127 0.0003713499853608503 0.000537809620251127 -0.15812667963564478 0.00020045590540832158 0.0003713499853608503 0.00020045590540832158 -0.15827857899453862" free_energy=-11286.619688143739 pbc="T T T"
In      10.05734687       5.42898788       3.74863984        0      -0.02248503      -0.01213749      -0.00838077
In       7.49975839       4.04839347       2.79535880        1       0.02248503       0.01213749       0.00838077
In       4.20497845       2.26986077       1.56730696        2      -0.02248503      -0.01213749      -0.00838077
In       1.64738997       0.88926636       0.61402592        3       0.02248503       0.01213749       0.00838077
O        5.72454455       2.20683289       0.16043028        4       0.00000000       0.03845678      -0.05569524
O        6.71863090       4.90165347       1.07659679        5      -0.03215006       0.05955886      -0.00000000
O        7.78446628       2.04387010       2.35583281        6       0.03215006      -0.02110208      -0.05569524
O        3.92027056       4.27438414       2.00683296        7      -0.03215006       0.02110208       0.05569524
O        5.98019229       4.11142135       4.20223549        8      -0.00000000      -0.03845678       0.05569524
O        4.98610595       1.41660077       3.28606897        9       0.03215006      -0.05955886      -0.00000000
10
Lattice="5.5880562866853 -0.029379736169318327 -0.02028629498168518 3.041726954292515 4.687764218429816 -0.02028629498168134 3.0417269542925163 1.641933898857025 4.390853900227058" Properties=species:S:1:pos:R:3:spacegroup_kinds:I:1:forces:R:3 spacegroup="P 1" unit_cell=conventional occupancy="_JSON {\"0\": {\"In\": 1}, \"1\": {\"In\": 1}, \"2\": {\"In\": 1}, \"3\": {\"In\": 1}, \"4\": {\"O\": 1}, \"5\": {\"O\": 1}, \"6\": {\"O\": 1}, \"7\": {\"O\": 1}, \"8\": {\"O\": 1}, \"9\": {\"O\": 1}}" n_minim_iter=5 energy=-11286.620209648883 stress="-0.1562021582937648 -0.00022534637967449637 -0.00015559850800858166 -0.00022534637967449637 -0.15590634072675896 -8.399257159529146e-05 -0.00015559850800858166 -8.399257159529146e-05 -0.15584269372011583" free_energy=-11286.620209648883 pbc="T T T"
In      10.03163820       5.41511026       3.73905754        0      -0.00464434      -0.00250703      -0.00173107
In       7.47562710       4.03536732       2.78636443        1       0.00464434       0.00250703       0.00173107
In       4.19588311       2.26495107       1.56391688        2      -0.00464434      -0.00250703      -0.00173107
In       1.63987200       0.88520813       0.61122378        3       0.00464434       0.00250703       0.00173107
O        5.71190570       2.19995006       0.15118049        4      -0.00000000       0.01669830      -0.02418341
O        6.69809355       4.89477289       1.06728403        5      -0.01395987       0.02586103      -0.00000000
O        7.76744480       2.03041596       2.34660744        6       0.01395987      -0.00916272      -0.02418341
O        3.90406541       4.26990243       2.00367388        7      -0.01395987       0.00916272       0.02418341
O        5.95960451       4.10036833       4.19910083        8       0.00000000      -0.01669830       0.02418341
O        4.97341665       1.40554550       3.28299728        9       0.01395987      -0.02586103      -0.00000000
10
Lattice="5.589789469800916 -0.02757687177281806 -0.019041442449701896 3.044185193354667 4.688223897075975 -0.019041442449698038 3.0441851933546693 1.6432608641330988 4.3908427002175054" Properties=species:S:1:pos:R:3:spacegroup_kinds:I:1:forces:R:3 spacegroup="P 1" unit_cell=conventional occupancy="_JSON {\"0\": {\"In\": 1}, \"1\": {\"In\": 1}, \"2\": {\"In\": 1}, \"3\": {\"In\": 1}, \"4\": {\"O\": 1}, \"5\": {\"O\": 1}, \"6\": {\"O\": 1}, \"7\": {\"O\": 1}, \"8\": {\"O\": 1}, \"9\": {\"O\": 1}}" n_minim_iter=6 energy=-11286.620366201545 stress="-0.15626849098648604 -0.00017782196117693678 -0.00012278356684671855 -0.00017782196117693678 -0.15603505985415844 -6.627895949900673e-05 -0.00012278356684671855 -6.627895949900673e-05 -0.15598483568319096" free_energy=-11286.620366201545 pbc="T T T"
In      10.03747401       5.41826045       3.74123270        0       0.00495096       0.00267254       0.00184535
In       7.47976579       4.03760140       2.78790703        1      -0.00495096      -0.00267254      -0.00184535
In       4.19839408       2.26630650       1.56485279        2       0.00495096       0.00267254       0.00184535
In       1.64068586       0.88564746       0.61152712        3      -0.00495096      -0.00267254      -0.00184535
O        5.71443470       2.20245981       0.15139292        4       0.00000000      -0.00212489       0.00307739
O        6.70125733       4.89790259       1.06914851        5       0.00177642      -0.00329087       0.00000000
O        7.77179727       2.03248814       2.34681427        6      -0.00177642       0.00116597       0.00307739
O        3.90636259       4.27141976       2.00594555        7       0.00177642      -0.00116597      -0.00307739
O        5.96372516       4.10144809       4.20136690        8      -0.00000000       0.00212489      -0.00307739
O        4.97690254       1.40600531       3.28361131        9      -0.00177642       0.00329087       0.00000000
