10
Lattice="6.068353594556641 0.006960722455857802 0.004806281043894477 3.335657384201463 5.069354358835827 0.004806281043887955 3.3356573842014607 1.8005984811897855 4.738799618608318" Properties=species:S:1:pos:R:3:spacegroup_kinds:I:1:forces:R:3 spacegroup="P 1" unit_cell=conventional occupancy="_JSON {\"0\": {\"In\": 1}, \"1\": {\"In\": 1}, \"2\": {\"In\": 1}, \"3\": {\"In\": 1}, \"4\": {\"O\": 1}, \"5\": {\"O\": 1}, \"6\": {\"O\": 1}, \"7\": {\"O\": 1}, \"8\": {\"O\": 1}, \"9\": {\"O\": 1}}" n_minim_iter=5 energy=-11287.327525411238 stress="0.044836564752476896 -8.033691913397753e-05 -5.5471513914657796e-05 -8.033691913397753e-05 0.04494202494344729 -2.994369974909138e-05 -5.5471513914657796e-05 -2.994369974909138e-05 0.04496471536280267" free_energy=-11287.327525411238 pbc="T T T"
In      10.86993684       5.86762654       4.05151367        0      -0.00503288      -0.00271676      -0.00187589
In       8.23956571       4.44774382       3.07110461        1       0.00503288       0.00271676       0.00187589
In       4.50010266       2.42916975       1.67730758        2      -0.00503288      -0.00271676      -0.00187589
In       1.86973153       1.00928704       0.69689852        3       0.00503288       0.00271676       0.00187589
O        6.21909389       2.37879748       0.23932215        4       0.00000000      -0.00228438       0.00330837
O        7.33842914       5.27348488       1.19190933        5       0.00190976      -0.00353788      -0.00000000
O        8.43541603       2.26299778       2.60872196        6      -0.00190976       0.00125349       0.00330837
O        4.30425234       4.61391579       2.13969022        7       0.00190976      -0.00125349      -0.00330837
O        6.52057448       4.49811609       4.50909003        8       0.00000000       0.00228438      -0.00330837
O        5.40123923       1.60342870       3.55650286        9      -0.00190976       0.00353788       0.00000000
