10
Lattice="6.194505815740345 0.04351748658019247 0.030048212977121343 3.435441500928934 5.154758749599671 0.030048212977113128 3.4354415009289303 1.8544622652454654 4.809720404395474" Properties=species:S:1:pos:R:3:spacegroup_kinds:I:1:forces:R:3 spacegroup="P 1" unit_cell=conventional occupancy="_JSON {\"0\": {\"In\": 1}, \"1\": {\"In\": 1}, \"2\": {\"In\": 1}, \"3\": {\"In\": 1}, \"4\": {\"O\": 1}, \"5\": {\"O\": 1}, \"6\": {\"O\": 1}, \"7\": {\"O\": 1}, \"8\": {\"O\": 1}, \"9\": {\"O\": 1}}" n_minim_iter=1 energy=-11287.01134293344 stress="0.0521212561474366 -0.002824591242951922 -0.001950340561901936 -0.002824591242951922 0.05582916446553363 -0.001052800047729632 -0.001950340561901936 -0.001052800047729632 0.05662694417661562" free_energy=-11287.01134293344 pbc="T T T"
In      11.12566127       6.00566739       4.14682894        0      -0.09909072      -0.05348948      -0.03693374
In       8.47242197       4.57344037       3.15789631        1       0.09909072       0.05348948       0.03693374
In       4.59296686       2.47929814       1.71192053        2      -0.09909072      -0.05348948      -0.03693374
In       1.93972756       1.04707112       0.72298789        3       0.09909072       0.05348948       0.03693374
O        6.36360012       2.44726296       0.27327040        4      -0.00000000       0.03818279      -0.05529843
O        7.52761839       5.38807156       1.24750242        5      -0.03192100       0.05913452      -0.00000000
O        8.63502335       2.34874528       2.67813060        6       0.03192100      -0.02095173      -0.05529843
O        4.43036548       4.70399323       2.19168623        7      -0.03192100       0.02095173       0.05529843
O        6.70178871       4.60547555       4.59654644        8       0.00000000      -0.03818279       0.05529843
O        5.53777044       1.66466695       3.62231441        9       0.03192100      -0.05913452      -0.00000000
10
Lattice="6.232054945571392 0.0816376903247735 0.056369677998715985 3.4879142091407394 5.1652326207806425 0.05636967799870784 3.4879142091407362 1.8827872002815345 4.8101889698670055" Properties=species:S:1:pos:R:3:spacegroup_kinds:I:1:forces:R:3 spacegroup="P 1" unit_cell=conventional occupancy="_JSON {\"0\": {\"In\": 1}, \"1\": {\"In\": 1}, \"2\": {\"In\": 1}, \"3\": {\"In\": 1}, \"4\": {\"O\": 1}, \"5\": {\"O\": 1}, \"6\": {\"O\": 1}, \"7\": {\"O\": 1}, \"8\": {\"O\": 1}, \"9\": {\"O\": 1}}" n_minim_iter=2 energy=-11287.015288899824 stress="0.052265013367867 0.001574513228871925 0.0010871792602321695 0.001574513228871925 0.05019811228264538 0.0005868628276920172 0.0010871792602321695 0.0005868628276920172 0.04975340556252636" free_energy=-11287.015288899824 pbc="T T T"
In      11.24556962       6.07039430       4.19152196        0      -0.09364201      -0.05054825      -0.03490286
In       8.56625544       4.62409198       3.19287053        1       0.09364201       0.05054825       0.03490286
In       4.64162793       2.50556555       1.73005780        2      -0.09364201      -0.05054825      -0.03490286
In       1.96231376       1.05926322       0.73140637        3       0.09364201       0.05054825       0.03490286
O        6.41799832       2.48251290       0.30411159        4       0.00000000       0.01118217      -0.01619464
O        7.61079433       5.42689036       1.28710176        5      -0.00934835       0.01731807       0.00000000
O        8.71311651       2.40286567       2.70920607        6       0.00934835      -0.00613590      -0.01619464
O        4.49476686       4.72679185       2.21372226        7      -0.00934835       0.00613590       0.01619464
O        6.78988506       4.64714463       4.61881674        8      -0.00000000      -0.01118217       0.01619464
O        5.59708904       1.70276716       3.63582657        9       0.00934835      -0.01731807      -0.00000000
10
Lattice="6.220074016246023 0.06951436260337661 0.047998690563754054 3.471204849069717 5.161868838897583 0.047998690563745915 3.4712048490697125 1.8737674344902286 4.810009291646085" Properties=species:S:1:pos:R:3:spacegroup_kinds:I:1:forces:R:3 spacegroup="P 1" unit_cell=conventional occupancy="_JSON {\"0\": {\"In\": 1}, \"1\": {\"In\": 1}, \"2\": {\"In\": 1}, \"3\": {\"In\": 1}, \"4\": {\"O\": 1}, \"5\": {\"O\": 1}, \"6\": {\"O\": 1}, \"7\": {\"O\": 1}, \"8\": {\"O\": 1}, \"9\": {\"O\": 1}}" n_minim_iter=3 energy=-11287.017049293252 stress="0.0517880604400434 0.0001492141091697033 0.00010303024623665038 0.0001492141091697033 0.05159218351533421 5.5616055448914934e-05 0.00010303024623665038 5.5616055448914934e-05 0.05155003936885986" free_energy=-11287.017049293252 pbc="T T T"
In      11.20587327       6.04896609       4.17672608        0      -0.08329406      -0.04496240      -0.03104591
In       8.53785231       4.60875988       3.18228393        1       0.08329406       0.04496240       0.03104591
In       4.62463141       2.49639077       1.72372275        2      -0.08329406      -0.04496240      -0.03104591
In       1.95661045       1.05618456       0.72928059        3       0.08329406       0.04496240       0.03104591
O        6.40065794       2.47160752       0.29383755        4      -0.00000000       0.01703397      -0.02466954
O        7.58402667       5.41500712       1.27450036        5      -0.01424049       0.02638089      -0.00000000
O        8.68849406       2.38546339       2.69884220        6       0.01424049      -0.00934691      -0.02466954
O        4.47398967       4.71968726       2.20716448        7      -0.01424049       0.00934691       0.02466954
O        6.76182578       4.63354312       4.61216912        8       0.00000000      -0.01703397       0.02466954
O        5.57845705       1.69014353       3.63150632        9       0.01424049      -0.02638089      -0.00000000
10
Lattice="6.209618940814124 0.058904699365634264 0.040672867184784536 3.4565981894184077 5.158950097707299 0.040672867184776335 3.456598189418404 1.8658827130832971 4.809875475911635" Properties=species:S:1:pos:R:3:spacegroup_kinds:I:1:forces:R:3 spacegroup="P 1" unit_cell=conventional occupancy="_JSON {\"0\": {\"In\": 1}, \"1\": {\"In\": 1}, \"2\": {\"In\": 1}, \"3\": {\"In\": 1}, \"4\": {\"O\": 1}, \"5\": {\"O\": 1}, \"6\": {\"O\": 1}, \"7\": {\"O\": 1}, \"8\": {\"O\": 1}, \"9\": {\"O\": 1}}" n_minim_iter=4 energy=-11287.018646380331 stress="0.05048824304565181 -0.0010272576101380214 -0.0007093069447322208 -0.0010272576101380214 0.05183674861999658 -0.00038288614815877147 -0.0007093069447322208 -0.00038288614815877147 0.05212688804442452" free_energy=-11287.018646380331 pbc="T T T"
In      11.16652292       6.02772464       4.16205916        0      -0.03267757      -0.01763946      -0.01217980
In       8.51770007       4.59788163       3.17477266        1       0.03267757       0.01763946       0.01217980
In       4.60511526       2.48585589       1.71644856        2      -0.03267757      -0.01763946      -0.01217980
In       1.95629241       1.05601288       0.72916205        3       0.03267757       0.01763946       0.01217980
O        6.38551331       2.46306422       0.28341549        4       0.00000000       0.00921834      -0.01335051
O        7.55981071       5.40616489       1.26347817        5      -0.00770658       0.01427664      -0.00000000
O        8.66781409       2.36970247       2.68835322        6       0.00770658      -0.00505830      -0.01335051
O        4.45500124       4.71403505       2.20286799        7      -0.00770658       0.00505830       0.01335051
O        6.73730202       4.62067330       4.60780573        8       0.00000000      -0.00921834       0.01335051
O        5.56300462       1.67757263       3.62774304        9       0.00770658      -0.01427664      -0.00000000
10
Lattice="6.217820019093226 0.06722943984451218 0.04642098350642897 3.4680578247734726 5.161238273074171 0.04642098350642076 3.4680578247734677 1.8720686607507768 4.80997862246707" Properties=species:S:1:pos:R:3:spacegroup_kinds:I:1:forces:R:3 spacegroup="P 1" unit_cell=conventional occupancy="_JSON {\"0\": {\"In\": 1}, \"1\": {\"In\": 1}, \"2\": {\"In\": 1}, \"3\": {\"In\": 1}, \"4\": {\"O\": 1}, \"5\": {\"O\": 1}, \"6\": {\"O\": 1}, \"7\": {\"O\": 1}, \"8\": {\"O\": 1}, \"9\": {\"O\": 1}}" n_minim_iter=5 energy=-11287.019511584966 stress="0.0499735799324243 1.2125928909790769e-05 8.37278334146962e-06 1.2125928909790769e-05 0.04995766193755482 4.51965560965178e-06 8.37278334146962e-06 4.51965560965178e-06 0.049954237080713455" free_energy=-11287.019511584966 pbc="T T T"
In      11.18957469       6.04016806       4.17065117        0      -0.00210091      -0.00113408      -0.00078307
In       8.54132883       4.61063651       3.18357972        1       0.00210091       0.00113408       0.00078307
In       4.61260685       2.48989988       1.71924087        2      -0.00210091      -0.00113408      -0.00078307
In       1.96436099       1.06036832       0.73216943        3       0.00210091       0.00113408       0.00078307
O        6.39739393       2.47131759       0.28934685        4      -0.00000000      -0.00405320       0.00587007
O        7.57751205       5.41550268       1.27212613        5       0.00338850      -0.00627728       0.00000000
O        8.68533364       2.38121719       2.69433616        6      -0.00338850       0.00222408       0.00587007
O        4.46860204       4.71931919       2.20848443        7       0.00338850      -0.00222408      -0.00587007
O        6.75654175       4.62921880       4.61347375        8      -0.00000000       0.00405320      -0.00587007
O        5.57642363       1.68503370       3.63069446        9      -0.00338850       0.00627728       0.00000000
