10
Lattice="4.989772883448257 -0.3788276303778358 -0.2615751555006156 2.42129559918303 4.379346004063861 -0.26157515550061716 2.421295599183033 1.3070230770850606 4.1879331013344" Properties=species:S:1:pos:R:3:spacegroup_kinds:I:1:forces:R:3 spacegroup="P 1" unit_cell=conventional occupancy="_JSON {\"0\": {\"In\": 1}, \"1\": {\"In\": 1}, \"2\": {\"In\": 1}, \"3\": {\"In\": 1}, \"4\": {\"O\": 1}, \"5\": {\"O\": 1}, \"6\": {\"O\": 1}, \"7\": {\"O\": 1}, \"8\": {\"O\": 1}, \"9\": {\"O\": 1}}" n_minim_iter=1 energy=-11281.692267071987 stress="-0.684214803932307 0.011036072274341766 0.007620252828050671 0.011036072274341766 -0.6987021193262515 0.004113436747665878 0.007620252828050671 0.004113436747665878 -0.701819156021833" free_energy=-11281.692267071987 pbc="T T T"
In       8.58894819       4.63634160       3.20132872        0       0.08488446       0.04582090       0.03163869
In       6.15959792       3.32497058       2.29584546        1      -0.08488446      -0.04582090      -0.03163869
In       3.67276615       1.98257087       1.36893732        2       0.08488446       0.04582090       0.03163869
In       1.24341588       0.67119986       0.46345407        3      -0.08488446      -0.04582090      -0.03163869
O        4.95297746       1.79521248      -0.16716873        4      -0.00000000      -0.14477064       0.20966487
O        5.61375056       4.34580230       0.65462054        5       0.12102898      -0.22420946       0.00000000
O        6.71349995       1.43006627       1.92679782        6      -0.12102898       0.07943882       0.20966487
O        3.11886412       3.87747518       1.73798497        7       0.12102898      -0.07943882      -0.20966487
O        4.87938661       3.51232897       3.83195152        8       0.00000000       0.14477064      -0.20966487
O        4.21861351       0.96173915       3.01016225        9      -0.12102898       0.22420946       0.00000000
10
Lattice="4.966844232550453 -0.4058930713957321 -0.28026346220065146 2.386087303912229 4.375028936354092 -0.28026346220065296 2.3860873039122317 1.2880175271475438 4.190517468277756" Properties=species:S:1:pos:R:3:spacegroup_kinds:I:1:forces:R:3 spacegroup="P 1" unit_cell=conventional occupancy="_JSON {\"0\": {\"In\": 1}, \"1\": {\"In\": 1}, \"2\": {\"In\": 1}, \"3\": {\"In\": 1}, \"4\": {\"O\": 1}, \"5\": {\"O\": 1}, \"6\": {\"O\": 1}, \"7\": {\"O\": 1}, \"8\": {\"O\": 1}, \"9\": {\"O\": 1}}" n_minim_iter=2 energy=-11281.708004051012 stress="-0.6843154178512846 -0.0012606585591232074 -0.0008704670201751882 -0.0012606585591232074 -0.6826605212804899 -0.00046988087054244504 -0.0008704670201751882 -0.00046988087054244504 -0.6823044599102304" free_energy=-11281.708004051012 pbc="T T T"
In       8.50782206       4.59254945       3.17109086        0       0.29316641       0.15825216       0.10927089
In       6.10070619       3.29318064       2.27389495        1      -0.29316641      -0.15825216      -0.10927089
In       3.63831264       1.96397275       1.35609559        2       0.29316641       0.15825216       0.10927089
In       1.23119677       0.66460394       0.45889968        3      -0.29316641      -0.15825216      -0.10927089
O        4.91817682       1.77151018      -0.18872649        4      -0.00000000      -0.24021447       0.34789190
O        5.55931643       4.32127345       0.62723417        5       0.20082049      -0.37202540      -0.00000000
O        6.66312452       1.39310177       1.90653224        6      -0.20082049       0.13181093       0.34789190
O        3.07589431       3.86405162       1.72345830        7       0.20082049      -0.13181093      -0.34789190
O        4.82084201       3.48564321       3.81871703        8      -0.00000000       0.24021447      -0.34789190
O        4.17970240       0.93587994       3.00275637        9      -0.20082049       0.37202540       0.00000000
10
Lattice="4.9569469334534695 -0.4176652565922302 -0.2883919906564155 2.3708148341676094 4.373214400155659 -0.28839199065641713 2.3708148341676107 1.2797733993314122 4.1917006305755296" Properties=species:S:1:pos:R:3:spacegroup_kinds:I:1:forces:R:3 spacegroup="P 1" unit_cell=conventional occupancy="_JSON {\"0\": {\"In\": 1}, \"1\": {\"In\": 1}, \"2\": {\"In\": 1}, \"3\": {\"In\": 1}, \"4\": {\"O\": 1}, \"5\": {\"O\": 1}, \"6\": {\"O\": 1}, \"7\": {\"O\": 1}, \"8\": {\"O\": 1}, \"9\": {\"O\": 1}}" n_minim_iter=3 energy=-11281.722344243744 stress="-0.6720550868368828 -0.000739667049058468 -0.0005107297026876565 -0.000739667049058468 -0.6710841082532815 -0.0002756935202800954 -0.0005107297026876565 -0.0002756935202800954 -0.6708751961254253" free_energy=-11281.722344243744 pbc="T T T"
In       8.47700791       4.57591588       3.15960561        0       0.02323726       0.01254355       0.00866114
In       6.07085698       3.27706794       2.26276936        1      -0.02323726      -0.01254355      -0.00866114
In       3.62771961       1.95825460       1.35214729        2       0.02323726       0.01254355       0.00866114
In       1.22156868       0.65940667       0.45531104        3      -0.02323726      -0.01254355      -0.00866114
O        4.90311761       1.75742453      -0.19258834        4       0.00000000      -0.05825181       0.08436350
O        5.53891318       4.30477603       0.61533717        5       0.04869880      -0.09021585       0.00000000
O        6.63813688       1.37914041       1.90326197        6      -0.04869880       0.03196404       0.08436350
O        3.06043971       3.85618213       1.71165468        7       0.04869880      -0.03196404      -0.08436350
O        4.79545898       3.47789801       3.80750499        8      -0.00000000       0.05825181      -0.08436350
O        4.15966341       0.93054652       2.99957948        9      -0.04869880       0.09021585      -0.00000000
10
Lattice="4.956079757576444 -0.4186993185039939 -0.28910599587587915 2.369474514906083 4.3730568491600135 -0.28910599587588076 2.3694745149060834 1.2790498907246686 4.191806276520169" Properties=species:S:1:pos:R:3:spacegroup_kinds:I:1:forces:R:3 spacegroup="P 1" unit_cell=conventional occupancy="_JSON {\"0\": {\"In\": 1}, \"1\": {\"In\": 1}, \"2\": {\"In\": 1}, \"3\": {\"In\": 1}, \"4\": {\"O\": 1}, \"5\": {\"O\": 1}, \"6\": {\"O\": 1}, \"7\": {\"O\": 1}, \"8\": {\"O\": 1}, \"9\": {\"O\": 1}}" n_minim_iter=4 energy=-11281.723019969271 stress="-0.669570810666433 1.7867047240989044e-06 1.2336950739115484e-06 1.7867047240989044e-06 -0.6695731561167203 6.659517151705842e-07 1.2336950739115484e-06 6.659517151705842e-07 -0.6695736607581334" free_energy=-11281.723019969271 pbc="T T T"
In       8.47428041       4.57444356       3.15858900        0      -0.03271928      -0.01766197      -0.01219534
In       6.06826276       3.27566757       2.26180243        1       0.03271928       0.01766197       0.01219534
In       3.62676602       1.95773985       1.35179186        2      -0.03271928      -0.01766197      -0.01219534
In       1.22074837       0.65896386       0.45500528        3       0.03271928       0.01766197       0.01219534
O        4.90179707       1.75544624      -0.19185306        4      -0.00000000      -0.01218890       0.01765264
O        5.53774383       4.30217985       0.61429257        5       0.01018998      -0.01887721      -0.00000000
O        6.63532482       1.37832195       1.90405008        6      -0.01018998       0.00668832       0.01765264
O        3.05970395       3.85508547       1.70954420        7       0.01018998      -0.00668832      -0.01765264
O        4.79323171       3.47796118       3.80544734        8       0.00000000       0.01218890      -0.01765264
O        4.15728494       0.93122757       2.99930171        9      -0.01018998       0.01887721      -0.00000000
10
Lattice="4.955862056261591 -0.4189589824870485 -0.28928529020738725 2.36913797705435 4.373017333075507 -0.2892852902073889 2.3691379770543515 1.2788682265203162 4.1918328489702406" Properties=species:S:1:pos:R:3:spacegroup_kinds:I:1:forces:R:3 spacegroup="P 1" unit_cell=conventional occupancy="_JSON {\"0\": {\"In\": 1}, \"1\": {\"In\": 1}, \"2\": {\"In\": 1}, \"3\": {\"In\": 1}, \"4\": {\"O\": 1}, \"5\": {\"O\": 1}, \"6\": {\"O\": 1}, \"7\": {\"O\": 1}, \"8\": {\"O\": 1}, \"9\": {\"O\": 1}}" n_minim_iter=5 energy=-11281.72323049428 stress="-0.6687715586996839 0.00012348226453093007 8.526276959631205e-05 0.00012348226453093007 -0.6689336568157042 4.602511569407949e-05 8.526276959631205e-05 4.602511569407949e-05 -0.6689685332399208" free_energy=-11281.72323049428 pbc="T T T"
In       8.47240446       4.57343092       3.15788978        0      -0.02919346      -0.01575872      -0.01088118
In       6.06880255       3.27595895       2.26200362        1       0.02919346       0.01575872       0.01088118
In       3.62533545       1.95696763       1.35125865        2      -0.02919346      -0.01575872      -0.01088118
In       1.22173354       0.65949566       0.45537249        3       0.02919346       0.01575872       0.01088118
O        4.90146552       1.75427386      -0.19068993        4       0.00000000       0.01054622      -0.01527362
O        5.53801510       4.30048161       0.61403028        5      -0.00881669       0.01633316       0.00000000
O        6.63405393       1.37848719       1.90522650        6       0.00881669      -0.00578694      -0.01527362
O        3.06008407       3.85443939       1.70803577        7      -0.00881669       0.00578694       0.01527362
O        4.79267247       3.47865272       3.80395219        8       0.00000000      -0.01054622       0.01527362
O        4.15612290       0.93244497       2.99923199        9       0.00881669      -0.01633316      -0.00000000
10
Lattice="4.956330003102385 -0.4184008703075092 -0.2888999215899921 2.3698613342731862 4.37310229062206 -0.28889992158999395 2.369861334273187 1.2792586970511803 4.1917757567596015" Properties=species:S:1:pos:R:3:spacegroup_kinds:I:1:forces:R:3 spacegroup="P 1" unit_cell=conventional occupancy="_JSON {\"0\": {\"In\": 1}, \"1\": {\"In\": 1}, \"2\": {\"In\": 1}, \"3\": {\"In\": 1}, \"4\": {\"O\": 1}, \"5\": {\"O\": 1}, \"6\": {\"O\": 1}, \"7\": {\"O\": 1}, \"8\": {\"O\": 1}, \"9\": {\"O\": 1}}" n_minim_iter=6 energy=-11281.723293015393 stress="-0.6693452133321138 5.5302515624667075e-05 3.818561038136258e-05 5.5302515624667075e-05 -0.6694178102657493 2.061271486556041e-05 3.818561038136258e-05 2.061271486556041e-05 -0.669433429950285" free_energy=-11281.723293015393 pbc="T T T"
In       8.47353928       4.57404350       3.15831276        0      -0.01076259      -0.00580968      -0.00401150
In       6.07053972       3.27689668       2.26265111        1       0.01076259       0.00580968       0.00401150
In       3.62551294       1.95706344       1.35132480        2      -0.01076259      -0.00580968      -0.00401150
In       1.22251338       0.65991662       0.45566315        3       0.01076259       0.00580968       0.00401150
O        4.90217816       1.75478826      -0.19028546        4      -0.00000000       0.00390001      -0.00564821
O        5.53910868       4.30102584       0.61459406        5      -0.00326043       0.00604003      -0.00000000
O        6.63510898       1.37923251       1.90560242        6       0.00326043      -0.00214002      -0.00564821
O        3.06094368       3.85472761       1.70837349        7      -0.00326043       0.00214002       0.00564821
O        4.79387450       3.47917186       3.80426137        8      -0.00000000      -0.00390001       0.00564821
O        4.15694398       0.93293428       2.99938186        9       0.00326043      -0.00604003      -0.00000000
10
Lattice="4.9565665346427386 -0.41811881014343394 -0.2887051630101998 2.370226928000004 4.373145259595172 -0.28870516301020166 2.3702269280000046 1.279456045709456 4.191746934127349" Properties=species:S:1:pos:R:3:spacegroup_kinds:I:1:forces:R:3 spacegroup="P 1" unit_cell=conventional occupancy="_JSON {\"0\": {\"In\": 1}, \"1\": {\"In\": 1}, \"2\": {\"In\": 1}, \"3\": {\"In\": 1}, \"4\": {\"O\": 1}, \"5\": {\"O\": 1}, \"6\": {\"O\": 1}, \"7\": {\"O\": 1}, \"8\": {\"O\": 1}, \"9\": {\"O\": 1}}" n_minim_iter=7 energy=-11281.723302510829 stress="-0.6696693937493324 -1.7263717883561046e-06 -1.1920351394022596e-06 -1.7263717883561046e-06 -0.669667127498106 -6.434644805654389e-07 -1.1920351394022596e-06 -6.434644805654389e-07 -0.6696666399015323" free_energy=-11281.723302510829 pbc="T T T"
In       8.47407849       4.57433457       3.15851374        0       0.00006331       0.00003417       0.00002360
In       6.07145208       3.27738918       2.26299117        1      -0.00006331      -0.00003417      -0.00002360
In       3.62556830       1.95709332       1.35134543        2       0.00006331       0.00003417       0.00002360
In       1.22294189       0.66014793       0.45582287        3      -0.00006331      -0.00003417      -0.00002360
O        4.90253836       1.75504979      -0.19008329        4      -0.00000000      -0.00002252       0.00003261
O        5.53966011       4.30130331       0.61487899        5       0.00001882      -0.00003487       0.00000000
O        6.63564353       1.37960834       1.90579018        6      -0.00001882       0.00001235       0.00003261
O        3.06137684       3.85487415       1.70854642        7       0.00001882      -0.00001235      -0.00003261
O        4.79448202       3.47943271       3.80441989        8       0.00000000       0.00002252      -0.00003261
O        4.15736027       0.93317918       2.99945762        9      -0.00001882       0.00003487      -0.00000000
