10
Lattice="4.9565665346427386 -0.41811881014343394 -0.2887051630101998 2.370226928000004 4.373145259595172 -0.28870516301020166 2.3702269280000046 1.279456045709456 4.191746934127349" Properties=species:S:1:pos:R:3:spacegroup_kinds:I:1:forces:R:3 spacegroup="P 1" unit_cell=conventional occupancy="_JSON {\"0\": {\"In\": 1}, \"1\": {\"In\": 1}, \"2\": {\"In\": 1}, \"3\": {\"In\": 1}, \"4\": {\"O\": 1}, \"5\": {\"O\": 1}, \"6\": {\"O\": 1}, \"7\": {\"O\": 1}, \"8\": {\"O\": 1}, \"9\": {\"O\": 1}}" n_minim_iter=7 energy=-11281.723302510829 stress="-0.6696693937493324 -1.7263717883561046e-06 -1.1920351394022596e-06 -1.7263717883561046e-06 -0.669667127498106 -6.434644805654389e-07 -1.1920351394022596e-06 -6.434644805654389e-07 -0.6696666399015323" free_energy=-11281.723302510829 pbc="T T T"
In       8.47407849       4.57433457       3.15851374        0       0.00006331       0.00003417       0.00002360
In       6.07145208       3.27738918       2.26299117        1      -0.00006331      -0.00003417      -0.00002360
In       3.62556830       1.95709332       1.35134543        2       0.00006331       0.00003417       0.00002360
In       1.22294189       0.66014793       0.45582287        3      -0.00006331      -0.00003417      -0.00002360
O        4.90253836       1.75504979      -0.19008329        4      -0.00000000      -0.00002252       0.00003261
O        5.53966011       4.30130331       0.61487899        5       0.00001882      -0.00003487       0.00000000
O        6.63564353       1.37960834       1.90579018        6      -0.00001882       0.00001235       0.00003261
O        3.06137684       3.85487415       1.70854642        7       0.00001882      -0.00001235      -0.00003261
O        4.79448202       3.47943271       3.80441989        8       0.00000000       0.00002252      -0.00003261
O        4.15736027       0.93317918       2.99945762        9      -0.00001882       0.00003487      -0.00000000
