10
Lattice="5.101072155142504 -0.3837889862180414 -0.26500090199143883 2.4782202227684524 4.4751151544260726 -0.26500090199144044 2.4782202227684524 1.337751170220662 4.2787034169247375" Properties=species:S:1:pos:R:3:spacegroup_kinds:I:1:forces:R:3 spacegroup="P 1" unit_cell=conventional occupancy="_JSON {\"0\": {\"In\": 1}, \"1\": {\"In\": 1}, \"2\": {\"In\": 1}, \"3\": {\"In\": 1}, \"4\": {\"O\": 1}, \"5\": {\"O\": 1}, \"6\": {\"O\": 1}, \"7\": {\"O\": 1}, \"8\": {\"O\": 1}, \"9\": {\"O\": 1}}" n_minim_iter=4 energy=-11284.950084126946 stress="-0.3202237808858847 -1.8424567965584689e-06 -1.2721904209793677e-06 -1.8424567965584689e-06 -0.32022136225257536 -6.86731628822885e-07 -1.2721904209793677e-06 -6.86731628822885e-07 -0.32022084186813027" free_energy=-11284.950084126946 pbc="T T T"
In       8.78760404       4.74357665       3.27537302        0      -0.00276523      -0.00149268      -0.00103067
In       6.29866485       3.40003935       2.34767939        1       0.00276523       0.00149268       0.00103067
In       3.75884774       2.02903798       1.40102221        2      -0.00276523      -0.00149268      -0.00103067
In       1.26990855       0.68550068       0.47332859        3       0.00276523       0.00149268       0.00103067
O        5.06491422       1.84037086      -0.17289167        4       0.00000000      -0.00144862       0.00209797
O        5.73972430       4.44831349       0.67217450        5       0.00121105      -0.00224350       0.00000000
O        6.86832437       1.46386537       1.96646004        6      -0.00121105       0.00079489       0.00209797
O        3.18918822       3.96521197       1.78224157        7       0.00121105      -0.00079489      -0.00209797
O        4.99259837       3.58870648       3.92159328        8       0.00000000       0.00144862      -0.00209797
O        4.31778829       0.98076384       3.07652711        9      -0.00121105       0.00224350      -0.00000000
