10
Lattice="6.443568091928725 0.1200225064533201 0.08287385415311353 3.6360659908802444 5.320996078493329 0.0828738541531051 3.6360659908802404 1.962760003978097 4.946457369656341" Properties=species:S:1:pos:R:3:spacegroup_kinds:I:1:forces:R:3 spacegroup="P 1" unit_cell=conventional occupancy="_JSON {\"0\": {\"In\": 1}, \"1\": {\"In\": 1}, \"2\": {\"In\": 1}, \"3\": {\"In\": 1}, \"4\": {\"O\": 1}, \"5\": {\"O\": 1}, \"6\": {\"O\": 1}, \"7\": {\"O\": 1}, \"8\": {\"O\": 1}, \"9\": {\"O\": 1}}" n_minim_iter=1 energy=-11286.138019430737 stress="0.08919958987228599 -0.0032623481271885136 -0.002252605539026079 -0.0032623481271885136 0.09348215209866803 -0.0012159636452558236 -0.002252605539026079 -0.0012159636452558236 0.09440357219899292" free_energy=-11286.138019430737 pbc="T T T"
In      11.64367747       6.28529419       4.33990732        0      -0.05394964      -0.02912219      -0.02010846
In       8.92987265       4.82037370       3.32840030        1       0.05394964       0.02912219       0.02010846
In       4.78582744       2.58340490       1.78380478        2      -0.05394964      -0.02912219      -0.02010846
In       2.07202261       1.11848441       0.77229777        3       0.05394964       0.02912219       0.02010846
O        6.65070907       2.59890752       0.32315856        4       0.00000000       0.05315309      -0.07697925
O        7.89361108       5.63689964       1.36092513        5      -0.04443625       0.08231935      -0.00000000
O        9.04387305       2.51484183       2.79638724        6       0.04443625      -0.02916626      -0.07697925
O        4.67182704       4.88893677       2.31581784        7      -0.04443625       0.02916626       0.07697925
O        7.06499101       4.80487108       4.78904652        8       0.00000000      -0.05315309       0.07697925
O        5.82208900       1.76687896       3.75127996        9       0.04443625      -0.08231935      -0.00000000
10
Lattice="6.463511670291487 0.1399506420677111 0.09663395176524525 3.6636694887387584 5.326734006076716 0.096633951765237 3.6636694887387558 1.9776604600486074 4.946947785947235" Properties=species:S:1:pos:R:3:spacegroup_kinds:I:1:forces:R:3 spacegroup="P 1" unit_cell=conventional occupancy="_JSON {\"0\": {\"In\": 1}, \"1\": {\"In\": 1}, \"2\": {\"In\": 1}, \"3\": {\"In\": 1}, \"4\": {\"O\": 1}, \"5\": {\"O\": 1}, \"6\": {\"O\": 1}, \"7\": {\"O\": 1}, \"8\": {\"O\": 1}, \"9\": {\"O\": 1}}" n_minim_iter=2 energy=-11286.142140333464 stress="0.0899252604740677 0.00012168302208186908 8.402041716196991e-05 0.00012168302208186908 0.08976552426621245 4.5354488295338645e-05 8.402041716196991e-05 4.5354488295338645e-05 0.08973115602070203" free_energy=-11286.142140333464 pbc="T T T"
In      11.70716415       6.31956450       4.36357048        0      -0.05948505      -0.03211022      -0.02217165
In       8.97911183       4.84695317       3.34675305        1       0.05948505       0.03211022       0.02217165
In       4.81173882       2.59739195       1.79346264        2      -0.05948505      -0.03211022      -0.02217165
In       2.08368651       1.12478062       0.77664521        3       0.05948505       0.03211022       0.02217165
O        6.67946850       2.61744009       0.33931956        4       0.00000000       0.03573022      -0.05174648
O        7.93748741       5.65743796       1.38168788        5      -0.02987064       0.05533617      -0.00000000
O        9.08511908       2.54326097       2.81279345        6       0.02987064      -0.01960595      -0.05174648
O        4.70573158       4.90108415       2.32742224        7      -0.02987064       0.01960595       0.05174648
O        7.11138216       4.82690504       4.80089613        8       0.00000000      -0.03573022       0.05174648
O        5.85336324       1.78690716       3.75852782        9       0.02987064      -0.05533617       0.00000000
10
Lattice="6.461930478980211 0.13837410835080582 0.09554537738712984 3.661483864476564 5.326277200748479 0.09554537738712159 3.661483864476562 1.9764806531099215 4.94690630255267" Properties=species:S:1:pos:R:3:spacegroup_kinds:I:1:forces:R:3 spacegroup="P 1" unit_cell=conventional occupancy="_JSON {\"0\": {\"In\": 1}, \"1\": {\"In\": 1}, \"2\": {\"In\": 1}, \"3\": {\"In\": 1}, \"4\": {\"O\": 1}, \"5\": {\"O\": 1}, \"6\": {\"O\": 1}, \"7\": {\"O\": 1}, \"8\": {\"O\": 1}, \"9\": {\"O\": 1}}" n_minim_iter=3 energy=-11286.14420143324 stress="0.08889880313243752 7.385088064376782e-05 5.0992995732301004e-05 7.385088064376782e-05 0.08880185731955496 2.7526181541911157e-05 5.0992995732301004e-05 2.7526181541911157e-05 0.08878099882091801" free_energy=-11286.14420143324 pbc="T T T"
In      11.69768864       6.31444959       4.36003871        0      -0.01602768      -0.00865179      -0.00597394
In       8.97965868       4.84724836       3.34695688        1       0.01602768       0.00865179       0.00597394
In       4.80523954       2.59388361       1.79104018        2      -0.01602768      -0.00865179      -0.00597394
In       2.08720957       1.12668238       0.77795835        3       0.01602768       0.00865179       0.00597394
O        6.67718980       2.61865804       0.33415173        4       0.00000000       0.00783365      -0.01134513
O        7.93176713       5.65996915       1.38004464        5      -0.00654897       0.01213215       0.00000000
O        9.08409633       2.53953787       2.80760488        6       0.00654897      -0.00429850      -0.01134513
O        4.70080189       4.90159410       2.33039218        7      -0.00654897       0.00429850       0.01134513
O        7.10770842       4.82247393       4.80384533        8      -0.00000000      -0.00783365       0.01134513
O        5.85313109       1.78116283       3.75795242        9       0.00654897      -0.01213215       0.00000000
10
Lattice="6.461079629956213 0.13752552234326526 0.09495944067322998 3.6603075628966 5.326031524402842 0.0949594406732217 3.660307562896599 1.9758456817701384 4.946884164414626" Properties=species:S:1:pos:R:3:spacegroup_kinds:I:1:forces:R:3 spacegroup="P 1" unit_cell=conventional occupancy="_JSON {\"0\": {\"In\": 1}, \"1\": {\"In\": 1}, \"2\": {\"In\": 1}, \"3\": {\"In\": 1}, \"4\": {\"O\": 1}, \"5\": {\"O\": 1}, \"6\": {\"O\": 1}, \"7\": {\"O\": 1}, \"8\": {\"O\": 1}, \"9\": {\"O\": 1}}" n_minim_iter=4 energy=-11286.144329948605 stress="0.08854055880398556 -3.829646400993012e-06 -2.644316928520997e-06 -3.829646400993012e-06 0.08854558607318083 -1.42741076541539e-06 -2.644316928520997e-06 -1.42741076541539e-06 0.08854666772060063" free_energy=-11286.144329948605 pbc="T T T"
In      11.69351162       6.31219483       4.35848183        0      -0.00106710      -0.00057602      -0.00039774
In       8.97903052       4.84690928       3.34672275        1       0.00106710       0.00057602       0.00039774
In       4.80266425       2.59249346       1.79008030        2      -0.00106710      -0.00057602      -0.00039774
In       2.08818314       1.12720791       0.77832122        3       0.00106710       0.00057602       0.00039774
O        6.67596351       2.61872887       0.33221710        4      -0.00000000      -0.00107367       0.00155495
O        7.92917736       5.66042605       1.37916020        5       0.00089759      -0.00166282       0.00000000
O        9.08305723       2.53785488       2.80565918        6      -0.00089759       0.00058915       0.00155495
O        4.69863754       4.90154786       2.33114387        7       0.00089759      -0.00058915      -0.00155495
O        7.10573126       4.82067387       4.80458595        8       0.00000000       0.00107367      -0.00155495
O        5.85251741       1.77897670       3.75764285        9      -0.00089759       0.00166282       0.00000000
