10
Lattice="5.047372670803211 -0.37974880211003087 -0.2622112116374109 2.4521317566588907 4.428005180514147 -0.2622112116374149 2.4521317566588894 1.3236685331141276 4.233661088539327" Properties=species:S:1:pos:R:3:spacegroup_kinds:I:1:forces:R:3 spacegroup="P 1" unit_cell=conventional occupancy="_JSON {\"0\": {\"In\": 1}, \"1\": {\"In\": 1}, \"2\": {\"In\": 1}, \"3\": {\"In\": 1}, \"4\": {\"O\": 1}, \"5\": {\"O\": 1}, \"6\": {\"O\": 1}, \"7\": {\"O\": 1}, \"8\": {\"O\": 1}, \"9\": {\"O\": 1}}" n_minim_iter=1 energy=-11283.628141294763 stress="-0.4868931535988525 -8.697269794382309e-05 -6.005342743945203e-05 -8.697269794382309e-05 -0.4867789824606839 -3.24170318113103e-05 -6.005342743945203e-05 -3.24170318113103e-05 -0.4867544178255687" free_energy=-11283.628141294763 pbc="T T T"
In       8.69509607       4.69364056       3.24089285        0       0.03238651       0.01748234       0.01207131
In       6.23235819       3.36424681       2.32296514        1      -0.03238651      -0.01748234      -0.01207131
In       3.71927798       2.00767810       1.38627352        2       0.03238651       0.01748234       0.01207131
In       1.25654010       0.67828435       0.46834581        3      -0.03238651      -0.01748234      -0.01207131
O        5.01159538       1.82099709      -0.17107162        4      -0.00000000      -0.08449543       0.12237096
O        5.67930166       4.40148566       0.66509845        5       0.07063860      -0.13085991      -0.00000000
O        6.79602085       1.44845511       1.94575892        6      -0.07063860       0.04636449       0.12237096
O        3.15561533       3.92346980       1.76347974        7       0.07063860      -0.04636449      -0.12237096
O        4.94004080       3.55092782       3.88031029        8       0.00000000       0.08449543      -0.12237096
O        4.27233451       0.97043925       3.04414021        9      -0.07063860       0.13085991       0.00000000
10
Lattice="5.047924707661211 -0.37910145831038505 -0.2617642298402124 2.4529758539864654 4.428111474395036 -0.2617642298402164 2.4529758539864632 1.3241241795402878 4.2336021186277755" Properties=species:S:1:pos:R:3:spacegroup_kinds:I:1:forces:R:3 spacegroup="P 1" unit_cell=conventional occupancy="_JSON {\"0\": {\"In\": 1}, \"1\": {\"In\": 1}, \"2\": {\"In\": 1}, \"3\": {\"In\": 1}, \"4\": {\"O\": 1}, \"5\": {\"O\": 1}, \"6\": {\"O\": 1}, \"7\": {\"O\": 1}, \"8\": {\"O\": 1}, \"9\": {\"O\": 1}}" n_minim_iter=2 energy=-11283.629398038796 stress="-0.48482699673174007 0.0013383644039386003 0.0009241218153488897 0.0013383644039386003 -0.4865838996205661 0.0004988438972703786 0.0009241218153488897 0.0004988438972703786 -0.48696190828480274" free_energy=-11283.629398038796 pbc="T T T"
In       8.69751621       4.69494696       3.24179490        0      -0.03921565      -0.02116873      -0.01461671
In       6.23329840       3.36475434       2.32331559        1       0.03921565       0.02116873       0.01461671
In       3.72057800       2.00837986       1.38675807        2      -0.03921565      -0.02116873      -0.01461671
In       1.25636019       0.67818724       0.46827876        3       0.03921565       0.02116873       0.01461671
O        5.01243145       1.82034098      -0.16878257        4      -0.00000000      -0.03178164       0.04602793
O        5.68163163       4.40017918       0.66575418        5       0.02656961      -0.04922092      -0.00000000
O        6.79620713       1.45001245       1.94801849        6      -0.02656961       0.01743928       0.04602793
O        3.15766928       3.92312175       1.76205517        7       0.02656961      -0.01743928      -0.04602793
O        4.94144495       3.55279321       3.87885623        8       0.00000000       0.03178164      -0.04602793
O        4.27224477       0.97295501       3.04431947        9      -0.02656961       0.04922092      -0.00000000
10
Lattice="5.04316023523522 -0.38469376486450124 -0.2656256389328942 2.4456862877223613 4.427196972468043 -0.26562563893289814 2.445686287722361 1.320189248451189 4.234115062366946" Properties=species:S:1:pos:R:3:spacegroup_kinds:I:1:forces:R:3 spacegroup="P 1" unit_cell=conventional occupancy="_JSON {\"0\": {\"In\": 1}, \"1\": {\"In\": 1}, \"2\": {\"In\": 1}, \"3\": {\"In\": 1}, \"4\": {\"O\": 1}, \"5\": {\"O\": 1}, \"6\": {\"O\": 1}, \"7\": {\"O\": 1}, \"8\": {\"O\": 1}, \"9\": {\"O\": 1}}" n_minim_iter=3 energy=-11283.63006192585 stress="-0.4849298734416211 -0.0006051348378117992 -0.00041783710259066546 -0.0006051348378117992 -0.4841354984986575 -0.00022554979818569025 -0.00041783710259066546 -0.00022554979818569025 -0.4839645837548847" free_energy=-11283.63006192585 pbc="T T T"
In       8.68056575       4.68579704       3.23547701        0      -0.03890942      -0.02100343      -0.01450257
In       6.22123346       3.35824164       2.31881866        1       0.03890942       0.02100343       0.01450257
In       3.71329934       2.00445082       1.38404512        2      -0.03890942      -0.02100343      -0.01450257
In       1.25396705       0.67689541       0.46738677        3       0.03890942       0.02100343       0.01450257
O        5.00521331       1.81455486      -0.17196608        4       0.00000000      -0.01623559       0.02351328
O        5.67108601       4.39372754       0.66009031        5       0.01357304      -0.02514442       0.00000000
O        6.78502691       1.44284665       1.94509146        6      -0.01357304       0.00890882       0.02351328
O        3.14950589       3.91984580       1.75777233        7       0.01357304      -0.00890882      -0.02351328
O        4.92931948       3.54813760       3.87482986        8      -0.00000000       0.01623559      -0.02351328
O        4.26344679       0.96896491       3.04277348        9      -0.01357304       0.02514442       0.00000000
10
Lattice="5.044581501453306 -0.38302430260457687 -0.2644728987016534 2.447861846317494 4.4274690876993965 -0.26447289870165736 2.447861846317492 1.321363621910732 4.233961102250752" Properties=species:S:1:pos:R:3:spacegroup_kinds:I:1:forces:R:3 spacegroup="P 1" unit_cell=conventional occupancy="_JSON {\"0\": {\"In\": 1}, \"1\": {\"In\": 1}, \"2\": {\"In\": 1}, \"3\": {\"In\": 1}, \"4\": {\"O\": 1}, \"5\": {\"O\": 1}, \"6\": {\"O\": 1}, \"7\": {\"O\": 1}, \"8\": {\"O\": 1}, \"9\": {\"O\": 1}}" n_minim_iter=4 energy=-11283.630421691947 stress="-0.4837277768337053 0.00042104041211501493 0.0002907224864234933 0.00042104041211501493 -0.484280486628233 0.0001569329244653638 0.0002907224864234933 0.0001569329244653638 -0.48439940560220374" free_energy=-11283.630421691947 pbc="T T T"
In       8.68424346       4.68778229       3.23684780        0      -0.03943254      -0.02128581      -0.01469755
In       6.22621431       3.36093032       2.32067516        1       0.03943254       0.02128581       0.01469755
In       3.71409087       2.00487808       1.38434014        2      -0.03943254      -0.02128581      -0.01469755
In       1.25606172       0.67802612       0.46816751        3       0.03943254       0.02128581       0.01469755
O        5.00736704       1.81491423      -0.16903521        4       0.00000000       0.01226035      -0.01775612
O        5.67537616       4.39353468       0.66178093        5      -0.01024971       0.01898787       0.00000000
O        6.78721978       1.44573585       1.94794534        6       0.01024971      -0.00672752      -0.01775612
O        3.15308541       3.92007256       1.75706996        7      -0.01024971       0.00672752       0.01775612
O        4.93293814       3.55089418       3.87405051        8      -0.00000000      -0.01226035       0.01775612
O        4.26492903       0.97227372       3.04323438        9       0.01024971      -0.01898787      -0.00000000
10
Lattice="5.044591621314942 -0.38301241932371693 -0.26446469346320317 2.447877333788693 4.4274710273383695 -0.2644646934632071 2.4478773337886928 1.3213719820970187 4.233960008896909" Properties=species:S:1:pos:R:3:spacegroup_kinds:I:1:forces:R:3 spacegroup="P 1" unit_cell=conventional occupancy="_JSON {\"0\": {\"In\": 1}, \"1\": {\"In\": 1}, \"2\": {\"In\": 1}, \"3\": {\"In\": 1}, \"4\": {\"O\": 1}, \"5\": {\"O\": 1}, \"6\": {\"O\": 1}, \"7\": {\"O\": 1}, \"8\": {\"O\": 1}, \"9\": {\"O\": 1}}" n_minim_iter=5 energy=-11283.630520209184 stress="-0.4840332365420399 0.00014514415716492478 0.00010022000007964906 0.00014514415716492478 -0.48422377073888934 5.4099075814270455e-05 0.00010022000007964906 5.4099075814270455e-05 -0.4842647653644431" free_energy=-11283.630520209184 pbc="T T T"
In       8.68363047       4.68745139       3.23661932        0      -0.01393228      -0.00752069      -0.00519293
In       6.22688895       3.36129449       2.32092661        1       0.01393228       0.00752069       0.00519293
In       3.71345733       2.00453610       1.38410401        2      -0.01393228      -0.00752069      -0.00519293
In       1.25671580       0.67837920       0.46841130        3       0.01393228       0.00752069       0.00519293
O        5.00738238       1.81492269      -0.16902290        4       0.00000000       0.00434042      -0.00628603
O        5.67540176       4.39354245       0.66179296        5      -0.00362861       0.00672210      -0.00000000
O        6.78724032       1.44575318       1.94795711        6       0.00362861      -0.00238168      -0.00628603
O        3.15310595       3.92007741       1.75707351        7      -0.00362861       0.00238168       0.00628603
O        4.93296390       3.55090790       3.87405351        8      -0.00000000      -0.00434042       0.00628603
O        4.26494451       0.97228813       3.04323766        9       0.00362861      -0.00672210      -0.00000000
10
Lattice="5.04460994336814 -0.38299090472951075 -0.2644498379382266 2.4479053738075613 4.427474539138343 -0.2644498379382305 2.447905373807562 1.3213871181885206 4.233958029478958" Properties=species:S:1:pos:R:3:spacegroup_kinds:I:1:forces:R:3 spacegroup="P 1" unit_cell=conventional occupancy="_JSON {\"0\": {\"In\": 1}, \"1\": {\"In\": 1}, \"2\": {\"In\": 1}, \"3\": {\"In\": 1}, \"4\": {\"O\": 1}, \"5\": {\"O\": 1}, \"6\": {\"O\": 1}, \"7\": {\"O\": 1}, \"8\": {\"O\": 1}, \"9\": {\"O\": 1}}" n_minim_iter=6 energy=-11283.630534225036 stress="-0.48419965866461173 -4.010283721182231e-07 -2.769032363026546e-07 -4.010283721182231e-07 -0.4841991322243095 -1.494730525534875e-07 -2.769032363026546e-07 -1.494730525534875e-07 -0.4841990189585912" free_energy=-11283.630534225036 pbc="T T T"
In       8.68333979       4.68729448       3.23651097        0       0.00004248       0.00002293       0.00001583
In       6.22729123       3.36151164       2.32107655        1      -0.00004248      -0.00002293      -0.00001583
In       3.71312945       2.00435911       1.38398180        2       0.00004248       0.00002293       0.00001583
In       1.25708088       0.67857627       0.46854738        3      -0.00004248      -0.00002293      -0.00001583
O        5.00741014       1.81494167      -0.16900590        4      -0.00000000      -0.00001118       0.00001618
O        5.67544507       4.39356219       0.66181475        5       0.00000934      -0.00001731       0.00000000
O        6.78728059       1.44578254       1.94797311        6      -0.00000934       0.00000613       0.00001618
O        3.15314009       3.92008821       1.75708524        7       0.00000934      -0.00000613      -0.00001618
O        4.93301054       3.55092908       3.87406425        8       0.00000000       0.00001118      -0.00001618
O        4.26497561       0.97230856       3.04324360        9      -0.00000934       0.00001731      -0.00000000
