10
Lattice="6.461079629956213 0.13752552234326526 0.09495944067322998 3.6603075628966 5.326031524402842 0.0949594406732217 3.660307562896599 1.9758456817701384 4.946884164414626" Properties=species:S:1:pos:R:3:spacegroup_kinds:I:1:forces:R:3 spacegroup="P 1" unit_cell=conventional occupancy="_JSON {\"0\": {\"In\": 1}, \"1\": {\"In\": 1}, \"2\": {\"In\": 1}, \"3\": {\"In\": 1}, \"4\": {\"O\": 1}, \"5\": {\"O\": 1}, \"6\": {\"O\": 1}, \"7\": {\"O\": 1}, \"8\": {\"O\": 1}, \"9\": {\"O\": 1}}" n_minim_iter=4 energy=-11286.144329948605 stress="0.08854055880398556 -3.829646400993012e-06 -2.644316928520997e-06 -3.829646400993012e-06 0.08854558607318083 -1.42741076541539e-06 -2.644316928520997e-06 -1.42741076541539e-06 0.08854666772060063" free_energy=-11286.144329948605 pbc="T T T"
In      11.69351162       6.31219483       4.35848183        0      -0.00106710      -0.00057602      -0.00039774
In       8.97903052       4.84690928       3.34672275        1       0.00106710       0.00057602       0.00039774
In       4.80266425       2.59249346       1.79008030        2      -0.00106710      -0.00057602      -0.00039774
In       2.08818314       1.12720791       0.77832122        3       0.00106710       0.00057602       0.00039774
O        6.67596351       2.61872887       0.33221710        4      -0.00000000      -0.00107367       0.00155495
O        7.92917736       5.66042605       1.37916020        5       0.00089759      -0.00166282       0.00000000
O        9.08305723       2.53785488       2.80565918        6      -0.00089759       0.00058915       0.00155495
O        4.69863754       4.90154786       2.33114387        7       0.00089759      -0.00058915      -0.00155495
O        7.10573126       4.82067387       4.80458595        8       0.00000000       0.00107367      -0.00155495
O        5.85251741       1.77897670       3.75764285        9      -0.00089759       0.00166282       0.00000000
