10
Lattice="5.150468599774219 -0.39149628772603956 -0.27032268537992876 2.4988817885579255 4.5206399931179 -0.2703226853799295 2.4988817885579246 1.3489043492478958 4.323160575110312" Properties=species:S:1:pos:R:3:spacegroup_kinds:I:1:forces:R:3 spacegroup="P 1" unit_cell=conventional occupancy="_JSON {\"0\": {\"In\": 1}, \"1\": {\"In\": 1}, \"2\": {\"In\": 1}, \"3\": {\"In\": 1}, \"4\": {\"O\": 1}, \"5\": {\"O\": 1}, \"6\": {\"O\": 1}, \"7\": {\"O\": 1}, \"8\": {\"O\": 1}, \"9\": {\"O\": 1}}" n_minim_iter=1 energy=-11285.796413734368 stress="-0.2030828929391544 -0.0018184981682450915 -0.0012556474325619202 -0.0018184981682450915 -0.2006957070041041 -0.0006778024833563837 -0.0012556474325619202 -0.0006778024833563837 -0.20018208899110637" free_energy=-11285.796413734368 pbc="T T T"
In       8.85939854       4.78233156       3.30213274        0       0.17441818       0.09415149       0.06501028
In       6.36294971       3.43474052       2.37164007        1      -0.17441818      -0.09415149      -0.06501028
In       3.78528246       2.04330753       1.41087514        2       0.17441818       0.09415149       0.06501028
In       1.28883362       0.69571650       0.48038246        3      -0.17441818      -0.09415149      -0.06501028
O        5.11229234       1.85581889      -0.17732241        4      -0.00000000      -0.02199248       0.03185073
O        5.79153184       4.49039737       0.67530611        5       0.01838582      -0.03406023      -0.00000000
O        6.93193463       1.47395755       1.98425788        6      -0.01838582       0.01206775       0.03185073
O        3.21629754       4.00409050       1.79825732        7       0.01838582      -0.01206775      -0.03185073
O        5.03593983       3.62222917       3.95983761        8      -0.00000000       0.02199248      -0.03185073
O        4.35670033       0.98765068       3.10720909        9      -0.01838582       0.03406023      -0.00000000
10
Lattice="5.154911419279686 -0.38628356588904617 -0.2667233742005065 2.505677522121799 4.521493878026331 -0.2667233742005072 2.5056775221217973 1.3525727078723857 4.322683809543931" Properties=species:S:1:pos:R:3:spacegroup_kinds:I:1:forces:R:3 spacegroup="P 1" unit_cell=conventional occupancy="_JSON {\"0\": {\"In\": 1}, \"1\": {\"In\": 1}, \"2\": {\"In\": 1}, \"3\": {\"In\": 1}, \"4\": {\"O\": 1}, \"5\": {\"O\": 1}, \"6\": {\"O\": 1}, \"7\": {\"O\": 1}, \"8\": {\"O\": 1}, \"9\": {\"O\": 1}}" n_minim_iter=2 energy=-11285.797343241296 stress="-0.1996284856519152 0.0010457263579966868 0.0007220593546436171 0.0010457263579966868 -0.20100123558937427 0.0003897699398513699 0.0007220593546436171 0.0003897699398513699 -0.2012965913436037" free_energy=-11285.797343241296 pbc="T T T"
In       8.87602708       4.79130769       3.30833063        0       0.10545308       0.05692391       0.03930516
In       6.37337260       3.44036684       2.37552495        1      -0.10545308      -0.05692391      -0.03930516
In       3.79289385       2.04741618       1.41371210        2       0.10545308       0.05692391       0.03930516
In       1.29023937       0.69647533       0.48090642        3      -0.10545308      -0.05692391      -0.03930516
O        5.11902232       1.86014252      -0.17280465        4       0.00000000      -0.00169889       0.00246042
O        5.80225866       4.49475480       0.68058589        5       0.00142028      -0.00263110       0.00000000
O        6.94146350       1.48122498       1.98853726        6      -0.00142028       0.00093222       0.00246042
O        3.22480295       4.00655804       1.80069980        7       0.00142028      -0.00093222      -0.00246042
O        5.04724413       3.62764050       3.96204171        8       0.00000000       0.00169889      -0.00246042
O        4.36400779       0.99302822       3.10865117        9      -0.00142028       0.00263110      -0.00000000
10
Lattice="5.151961250395534 -0.3897438418400258 -0.2691126461209569 2.5011658920596895 4.520926251137763 -0.2691126461209576 2.5011658920596873 1.35013731559379 4.322999538927795" Properties=species:S:1:pos:R:3:spacegroup_kinds:I:1:forces:R:3 spacegroup="P 1" unit_cell=conventional occupancy="_JSON {\"0\": {\"In\": 1}, \"1\": {\"In\": 1}, \"2\": {\"In\": 1}, \"3\": {\"In\": 1}, \"4\": {\"O\": 1}, \"5\": {\"O\": 1}, \"6\": {\"O\": 1}, \"7\": {\"O\": 1}, \"8\": {\"O\": 1}, \"9\": {\"O\": 1}}" n_minim_iter=3 energy=-11285.79862717824 stress="-0.19986102517242763 0.00041278268181517647 0.0002850206414664908 0.00041278268181517647 -0.20040289484571178 0.00015385505020742345 0.0002850206414664908 0.00015385505020742345 -0.2005194815048271" free_energy=-11285.79862717824 pbc="T T T"
In       8.86793075       4.78693727       3.30531292        0       0.04958884       0.02676821       0.01848307
In       6.36350879       3.43504232       2.37184845        1      -0.04958884      -0.02676821      -0.01848307
In       3.79078423       2.04627741       1.41292579        2       0.04958884       0.02676821       0.01848307
In       1.28636227       0.69438246       0.47946133        3      -0.04958884      -0.02676821      -0.01848307
O        5.11455388       1.85706715      -0.17550687        4       0.00000000       0.01321974      -0.01914556
O        5.79530819       4.49154410       0.67708091        5      -0.01105177       0.02047370       0.00000000
O        6.93496546       1.47651284       1.98599290        6       0.01105177      -0.00725396      -0.01914556
O        3.21932756       4.00480688       1.79878135        7      -0.01105177       0.00725396       0.01914556
O        5.03973914       3.62425258       3.96028112        8       0.00000000      -0.01321974       0.01914556
O        4.35898484       0.98977563       3.10769333        9       0.01105177      -0.02047370       0.00000000
10
Lattice="5.149765350064519 -0.3923223357877952 -0.27089305995896656 2.497805319781186 4.52050534347167 -0.27089305995896723 2.4978053197811834 1.348323267973294 4.323236747545945" Properties=species:S:1:pos:R:3:spacegroup_kinds:I:1:forces:R:3 spacegroup="P 1" unit_cell=conventional occupancy="_JSON {\"0\": {\"In\": 1}, \"1\": {\"In\": 1}, \"2\": {\"In\": 1}, \"3\": {\"In\": 1}, \"4\": {\"O\": 1}, \"5\": {\"O\": 1}, \"6\": {\"O\": 1}, \"7\": {\"O\": 1}, \"8\": {\"O\": 1}, \"9\": {\"O\": 1}}" n_minim_iter=4 energy=-11285.79906686271 stress="-0.2000645941554861 -8.807293359881493e-05 -6.081312295020291e-05 -8.807293359881493e-05 -0.19994897871459902 -3.282711816858185e-05 -6.081312295020291e-05 -3.282711816858185e-05 -0.19992410332663102" free_energy=-11285.79906686271 pbc="T T T"
In       8.86227515       4.78388436       3.30320493        0       0.00360785       0.00194753       0.00134474
In       6.35578882       3.43087505       2.36897101        1      -0.00360785      -0.00194753      -0.00134474
In       3.78958716       2.04563122       1.41247961        2       0.00360785       0.00194753       0.00134474
In       1.28310083       0.69262192       0.47824570        3      -0.00360785      -0.00194753      -0.00134474
O        5.11122667       1.85511561      -0.17801159        4       0.00000000       0.01886348      -0.02731914
O        5.78984835       4.48967900       0.67446960        5      -0.01576997       0.02921429      -0.00000000
O        6.93041030       1.47281631       1.98360678        6       0.01576997      -0.01035080      -0.02731914
O        3.21496568       4.00368996       1.79784384        7      -0.01576997       0.01035080       0.02731914
O        5.03414931       3.62139067       3.95946222        8      -0.00000000      -0.01886348       0.02731914
O        4.35552763       0.98682727       3.10698103        9       0.01576997      -0.02921429      -0.00000000
10
Lattice="5.149429402185089 -0.3927170355030605 -0.2711655945660479 2.4972910069109147 4.520441069725877 -0.27116559456604855 2.4972910069109124 1.3480456402476608 4.323273203991396" Properties=species:S:1:pos:R:3:spacegroup_kinds:I:1:forces:R:3 spacegroup="P 1" unit_cell=conventional occupancy="_JSON {\"0\": {\"In\": 1}, \"1\": {\"In\": 1}, \"2\": {\"In\": 1}, \"3\": {\"In\": 1}, \"4\": {\"O\": 1}, \"5\": {\"O\": 1}, \"6\": {\"O\": 1}, \"7\": {\"O\": 1}, \"8\": {\"O\": 1}, \"9\": {\"O\": 1}}" n_minim_iter=5 energy=-11285.799232478854 stress="-0.19993527681646872 -0.00010705000201391555 -7.391652386706748e-05 -0.00010705000201391555 -0.19979474972460876 -3.9900373417482e-05 -7.391652386706748e-05 -3.9900373417482e-05 -0.1997645144389329" free_energy=-11285.799232478854 pbc="T T T"
In       8.86241072       4.78395754       3.30325546        0      -0.01493484      -0.00806188      -0.00556661
In       6.35360639       3.42969697       2.36815756        1       0.01493484       0.00806188       0.00556661
In       3.79040501       2.04607270       1.41278445        2      -0.01493484      -0.00806188      -0.00556661
In       1.28160068       0.69181213       0.47768656        3       0.01493484       0.00806188       0.00556661
O        5.11071755       1.85565708      -0.17961171        4       0.00000000       0.00718450      -0.01040500
O        5.78831047       4.49069479       0.67406991        5      -0.00600628       0.01112680      -0.00000000
O        6.93041563       1.47178955       1.98202489        6       0.00600628      -0.00394229      -0.01040500
O        3.21359577       4.00398013       1.79891712        7      -0.00600628       0.00394229       0.01040500
O        5.03329385       3.62011260       3.96055372        8       0.00000000      -0.00718450       0.01040500
O        4.35570093       0.98507489       3.10687210        9       0.00600628      -0.01112680       0.00000000
10
Lattice="5.149908897739625 -0.3921537017223032 -0.27077662050638573 2.498025066445923 4.520532816848036 -0.2707766205063864 2.4980250664459205 1.3484418879228857 4.323221183482041" Properties=species:S:1:pos:R:3:spacegroup_kinds:I:1:forces:R:3 spacegroup="P 1" unit_cell=conventional occupancy="_JSON {\"0\": {\"In\": 1}, \"1\": {\"In\": 1}, \"2\": {\"In\": 1}, \"3\": {\"In\": 1}, \"4\": {\"O\": 1}, \"5\": {\"O\": 1}, \"6\": {\"O\": 1}, \"7\": {\"O\": 1}, \"8\": {\"O\": 1}, \"9\": {\"O\": 1}}" n_minim_iter=6 energy=-11285.799267057224 stress="-0.199906361559313 -1.7436808110607186e-05 -1.2039872315392913e-05 -1.7436808110607186e-05 -0.19988347184575678 -6.499160940682346e-06 -1.2039872315392913e-05 -6.499160940682346e-06 -0.19987854698010854" free_energy=-11285.799267057224 pbc="T T T"
In       8.86378605       4.78469995       3.30376808        0      -0.00385466      -0.00208076      -0.00143673
In       6.35515248       3.43053156       2.36873383        1       0.00385466       0.00208076       0.00143673
In       3.79080653       2.04628945       1.41293411        2      -0.00385466      -0.00208076      -0.00143673
In       1.28217297       0.69212106       0.47789986        3       0.00385466       0.00208076       0.00143673
O        5.11144420       1.85629803      -0.17937543        4       0.00000000       0.00184389      -0.00267043
O        5.78932351       4.49143454       0.67464036        5      -0.00154150       0.00285568       0.00000000
O        6.93158995       1.47247924       1.98223516        6       0.00154150      -0.00101178      -0.00267043
O        3.21436906       4.00434176       1.79943278        7      -0.00154150       0.00101178       0.00267043
O        5.03451482       3.62052297       3.96104337        8      -0.00000000      -0.00184389       0.00267043
O        4.35663550       0.98538646       3.10702758        9       0.00154150      -0.00285568       0.00000000
