10
Lattice="5.04460994336814 -0.38299090472951075 -0.2644498379382266 2.4479053738075613 4.427474539138343 -0.2644498379382305 2.447905373807562 1.3213871181885206 4.233958029478958" Properties=species:S:1:pos:R:3:spacegroup_kinds:I:1:forces:R:3 spacegroup="P 1" unit_cell=conventional occupancy="_JSON {\"0\": {\"In\": 1}, \"1\": {\"In\": 1}, \"2\": {\"In\": 1}, \"3\": {\"In\": 1}, \"4\": {\"O\": 1}, \"5\": {\"O\": 1}, \"6\": {\"O\": 1}, \"7\": {\"O\": 1}, \"8\": {\"O\": 1}, \"9\": {\"O\": 1}}" n_minim_iter=6 energy=-11283.630534225036 stress="-0.48419965866461173 -4.010283721182231e-07 -2.769032363026546e-07 -4.010283721182231e-07 -0.4841991322243095 -1.494730525534875e-07 -2.769032363026546e-07 -1.494730525534875e-07 -0.4841990189585912" free_energy=-11283.630534225036 pbc="T T T"
In       8.68333979       4.68729448       3.23651097        0       0.00004248       0.00002293       0.00001583
In       6.22729123       3.36151164       2.32107655        1      -0.00004248      -0.00002293      -0.00001583
In       3.71312945       2.00435911       1.38398180        2       0.00004248       0.00002293       0.00001583
In       1.25708088       0.67857627       0.46854738        3      -0.00004248      -0.00002293      -0.00001583
O        5.00741014       1.81494167      -0.16900590        4      -0.00000000      -0.00001118       0.00001618
O        5.67544507       4.39356219       0.66181475        5       0.00000934      -0.00001731       0.00000000
O        6.78728059       1.44578254       1.94797311        6      -0.00000934       0.00000613       0.00001618
O        3.15314009       3.92008821       1.75708524        7       0.00000934      -0.00000613      -0.00001618
O        4.93301054       3.55092908       3.87406425        8       0.00000000       0.00001118      -0.00001618
O        4.26497561       0.97230856       3.04324360        9      -0.00000934       0.00001731      -0.00000000
