10
Lattice="5.150468599774217 -0.39149628772604333 -0.27032268537993087 2.4988817885579246 4.5206399931178955 -0.27032268537992743 2.4988817885579246 1.3489043492478927 4.323160575110312" Properties=species:S:1:pos:R:3:spacegroup_kinds:I:1:forces:R:3 spacegroup="P 1" unit_cell=conventional occupancy="_JSON {\"0\": {\"In\": 1}, \"1\": {\"In\": 1}, \"2\": {\"In\": 1}, \"3\": {\"In\": 1}, \"4\": {\"O\": 1}, \"5\": {\"O\": 1}, \"6\": {\"O\": 1}, \"7\": {\"O\": 1}, \"8\": {\"O\": 1}, \"9\": {\"O\": 1}}" n_minim_iter=9 energy=-11286.316473403502 stress="-0.11897378705060319 -6.136578451274812e-06 -4.2372219534198854e-06 -6.136578451274812e-06 -0.11896573141683368 -2.2872639532489007e-06 -4.2372219534198854e-06 -2.2872639532489007e-06 -0.11896399819737516" free_energy=-11286.316473403502 pbc="T T T"
In       8.85939854       4.78233156       3.30213274        0       0.00033342       0.00017998       0.00012428
In       6.36294973       3.43474053       2.37164007        1      -0.00033342      -0.00017998      -0.00012428
In       3.78528246       2.04330753       1.41087514        2       0.00033342       0.00017998       0.00012428
In       1.28883364       0.69571651       0.48038247        3      -0.00033342      -0.00017998      -0.00012428
O        5.11229235       1.85581889      -0.17732240        4      -0.00000000      -0.00009820       0.00014222
O        5.79153185       4.49039738       0.67530612        5       0.00008210      -0.00015209       0.00000000
O        6.93193464       1.47395756       1.98425789        6      -0.00008210       0.00005389       0.00014222
O        3.21629755       4.00409050       1.79825732        7       0.00008210      -0.00005389      -0.00014222
O        5.03593984       3.62222917       3.95983761        8      -0.00000000       0.00009820      -0.00014222
O        4.35670034       0.98765068       3.10720909        9      -0.00008210       0.00015209      -0.00000000
