10
Lattice="5.793281697815741 0.021371893114899936 0.014756991878594148 3.1967672358061425 4.831485157603049 0.014756991878594373 3.196767235806142 1.7256251366738602 4.512835525988869" Properties=species:S:1:pos:R:3:spacegroup_kinds:I:1:forces:R:3 spacegroup="P 1" unit_cell=conventional occupancy="_JSON {\"0\": {\"In\": 1}, \"1\": {\"In\": 1}, \"2\": {\"In\": 1}, \"3\": {\"In\": 1}, \"4\": {\"O\": 1}, \"5\": {\"O\": 1}, \"6\": {\"O\": 1}, \"7\": {\"O\": 1}, \"8\": {\"O\": 1}, \"9\": {\"O\": 1}}" n_minim_iter=4 energy=-11287.655533205128 stress="-0.018386886199608342 -6.776709251607645e-05 -4.679222369259703e-05 -6.776709251607645e-05 -0.018297926722800853 -2.5258591084416853e-05 -4.679222369259703e-05 -2.5258591084416853e-05 -0.01827878653326272" free_energy=-11287.655533205128 pbc="T T T"
In      10.44326167       5.63730592       3.89248052        0      -0.00244185      -0.00131812      -0.00091014
In       7.83696260       4.23041738       2.92104375        1       0.00244185       0.00131812       0.00091014
In       4.34985358       2.34806482       1.62130576        2      -0.00244185      -0.00131812      -0.00091014
In       1.74355451       0.94117628       0.64986900        3       0.00244185       0.00131812       0.00091014
O        5.94334490       2.29052505       0.22300719        4      -0.00000000       0.00032736      -0.00047411
O        7.01068264       5.05482592       1.15034437        5      -0.00027368       0.00050700       0.00000000
O        8.07277439       2.16956077       2.47942495        6       0.00027368      -0.00017963      -0.00047411
O        4.11404179       4.40892143       2.06292457        7      -0.00027368       0.00017963       0.00047411
O        6.24347128       4.28795715       4.31934233        8      -0.00000000      -0.00032736       0.00047411
O        5.17613354       1.52365628       3.39200514        9       0.00027368      -0.00050700       0.00000000
