10
Lattice="6.040445881251637 -0.021888324710576945 -0.015113580638524901 3.296225864983617 5.061853473788179 -0.015113580638526388 3.296225864983615 1.7793132215132532 4.738843051860801" Properties=species:S:1:pos:R:3:spacegroup_kinds:I:1:forces:R:3 spacegroup="P 1" unit_cell=conventional occupancy="_JSON {\"0\": {\"In\": 1}, \"1\": {\"In\": 1}, \"2\": {\"In\": 1}, \"3\": {\"In\": 1}, \"4\": {\"O\": 1}, \"5\": {\"O\": 1}, \"6\": {\"O\": 1}, \"7\": {\"O\": 1}, \"8\": {\"O\": 1}, \"9\": {\"O\": 1}}" n_minim_iter=4 energy=-11287.468970872325 stress="0.040718932077199656 -0.00033431423223020756 -0.0002308392788516421 -0.00033431423223020756 0.04115779434692837 -0.000124607777172452 -0.0002308392788516421 -0.000124607777172452 0.04125221831452292" free_energy=-11287.468970872325 pbc="T T T"
In      10.80506744       5.83260983       4.02733512        0      -0.00398153      -0.00214924      -0.00148402
In       8.14427899       4.39630774       3.03558872        1       0.00398153       0.00214924       0.00148402
In       4.48861863       2.42297064       1.67302718        2      -0.00398153      -0.00214924      -0.00148402
In       1.82783018       0.98666856       0.68128077        3       0.00398153       0.00214924       0.00148402
O        6.17844735       2.35417485       0.21331499        4       0.00000000       0.00201981      -0.00292519
O        7.27454668       5.24742231       1.16204039        5      -0.00168857       0.00312812       0.00000000
O        8.37857389       2.22121133       2.58273652        6       0.00168857      -0.00110831      -0.00292519
O        4.25432374       4.59806705       2.12587938        7      -0.00168857       0.00110831       0.00292519
O        6.45445027       4.46510353       4.49530090        8      -0.00000000      -0.00201981       0.00292519
O        5.35835094       1.57185608       3.54657550        9       0.00168857      -0.00312812       0.00000000
