10
Lattice="5.4500218042062505 -0.11959051068466621 -0.08257556714523445 2.89056776103127 4.621867325600764 -0.08257556714523062 2.890567761031264 1.5603376848413895 4.351301254683388" Properties=species:S:1:pos:R:3:spacegroup_kinds:I:1:forces:R:3 spacegroup="P 1" unit_cell=conventional occupancy="_JSON {\"0\": {\"In\": 1}, \"1\": {\"In\": 1}, \"2\": {\"In\": 1}, \"3\": {\"In\": 1}, \"4\": {\"O\": 1}, \"5\": {\"O\": 1}, \"6\": {\"O\": 1}, \"7\": {\"O\": 1}, \"8\": {\"O\": 1}, \"9\": {\"O\": 1}}" n_minim_iter=6 energy=-11285.870245619208 stress="-0.2028992656371652 4.834908935630295e-06 3.3384331528174135e-06 4.834908935630295e-06 -0.2029056125281832 1.8020887507909466e-06 3.3384331528174135e-06 1.8020887507909466e-06 -0.20290697811557543" free_energy=-11285.870245619208 pbc="T T T"
In       9.68935697       5.23034576       3.61148025        0       0.00013610       0.00007347       0.00005073
In       7.15737903       3.86357600       2.66774494        1      -0.00013610      -0.00007347      -0.00005073
In       4.07377830       2.19903851       1.51840519        2       0.00013610       0.00007347       0.00005073
In       1.54180037       0.83226875       0.57466988        3      -0.00013610      -0.00007347      -0.00005073
O        5.53280024       2.10886960       0.05952272        4      -0.00000000      -0.00011465       0.00016604
O        6.43216348       4.77812479       0.96396197        5       0.00009585      -0.00017756      -0.00000000
O        7.52400476       1.87770569       2.23517334        6      -0.00009585       0.00006291       0.00016604
O        3.70715257       4.18490882       1.95097678        7       0.00009585      -0.00006291      -0.00016604
O        5.69835710       3.95374491       4.12662741        8       0.00000000       0.00011465      -0.00016604
O        4.79899386       1.28448972       3.22218816        9      -0.00009585       0.00017756       0.00000000
