10
Lattice="5.7379542891634365 -0.037450464833850984 -0.025859019714888274 3.1172320934970146 4.817508280959938 -0.025859019714886446 3.1172320934970137 1.6826918135090412 4.514155844315507" Properties=species:S:1:pos:R:3:spacegroup_kinds:I:1:forces:R:3 spacegroup="P 1" unit_cell=conventional occupancy="_JSON {\"0\": {\"In\": 1}, \"1\": {\"In\": 1}, \"2\": {\"In\": 1}, \"3\": {\"In\": 1}, \"4\": {\"O\": 1}, \"5\": {\"O\": 1}, \"6\": {\"O\": 1}, \"7\": {\"O\": 1}, \"8\": {\"O\": 1}, \"9\": {\"O\": 1}}" n_minim_iter=1 energy=-11287.513460125387 stress="-0.05934444779422387 -0.0022570660775984882 -0.0015584724084324163 -0.0022570660775984882 -0.05638154329734115 -0.0008412683715769286 -0.0015584724084324163 -0.0008412683715769286 -0.05574405582632974" free_energy=-11287.513460125387 pbc="T T T"
In      10.28853285       5.55378281       3.83480899        0      -0.04590540      -0.02477988      -0.01711016
In       7.67009487       4.14034165       2.85884772        1       0.04590540       0.02477988       0.01711016
In       4.30232362       2.32240800       1.60359008        2      -0.04590540      -0.02477988      -0.01711016
In       1.68388563       0.90896683       0.62762882        3       0.04590540       0.02477988       0.01711016
O        5.86208177       2.24308849       0.16692403        4      -0.00000000       0.07448933      -0.10787958
O        6.88053300       5.00638625       1.08975043        5      -0.06227345       0.11536326       0.00000000
O        7.96086263       2.08376447       2.42400195        6       0.06227345      -0.04087392      -0.10787958
O        4.01155585       4.37898518       2.03843586        7      -0.06227345       0.04087392       0.10787958
O        6.11033672       4.21966115       4.29551378        8      -0.00000000      -0.07448933       0.10787958
O        5.09188549       1.45636339       3.37268738        9       0.06227345      -0.11536326      -0.00000000
10
Lattice="5.752538095718416 -0.022277791757118734 -0.015382502161382974 3.137918977085742 4.821374838771869 -0.015382502161381182 3.137918977085741 1.6938586591649636 4.514059680607587" Properties=species:S:1:pos:R:3:spacegroup_kinds:I:1:forces:R:3 spacegroup="P 1" unit_cell=conventional occupancy="_JSON {\"0\": {\"In\": 1}, \"1\": {\"In\": 1}, \"2\": {\"In\": 1}, \"3\": {\"In\": 1}, \"4\": {\"O\": 1}, \"5\": {\"O\": 1}, \"6\": {\"O\": 1}, \"7\": {\"O\": 1}, \"8\": {\"O\": 1}, \"9\": {\"O\": 1}}" n_minim_iter=2 energy=-11287.515743532715 stress="-0.05601074463545087 0.0006742992815542249 0.000465594176560344 0.0006742992815542249 -0.056895913387133956 0.0002513292185296485 0.000465594176560344 0.0002513292185296485 -0.057086362993099216" free_energy=-11287.515743532715 pbc="T T T"
In      10.33619144       5.57950907       3.85257261        0      -0.06207541      -0.03350850      -0.02313715
In       7.70637264       4.15992450       2.87236941        1       0.06207541       0.03350850       0.02313715
In       4.32200342       2.33303121       1.61092527        2      -0.06207541      -0.03350850      -0.02313715
In       1.69218462       0.91344665       0.63072207        3       0.06207541       0.03350850       0.02313715
O        5.88336306       2.25741248       0.17855519        4       0.00000000       0.06984055      -0.10114695
O        6.91283813       5.02219693       1.10544117        5      -0.05838705       0.10816358      -0.00000000
O        7.99180697       2.10493233       2.43558503        6       0.05838705      -0.03832303      -0.10114695
O        4.03656909       4.38802339       2.04770965        7      -0.05838705       0.03832303       0.10114695
O        6.14501299       4.23554324       4.30473949        8      -0.00000000      -0.06984055       0.10114695
O        5.11553793       1.47075878       3.37785351        9       0.05838705      -0.10816358      -0.00000000
10
Lattice="5.752433200148495 -0.02238669030512589 -0.015457695078542543 3.1377703788659415 4.821346900564725 -0.015457695078540754 3.1377703788659392 1.6937784453725795 4.514060196088818" Properties=species:S:1:pos:R:3:spacegroup_kinds:I:1:forces:R:3 spacegroup="P 1" unit_cell=conventional occupancy="_JSON {\"0\": {\"In\": 1}, \"1\": {\"In\": 1}, \"2\": {\"In\": 1}, \"3\": {\"In\": 1}, \"4\": {\"O\": 1}, \"5\": {\"O\": 1}, \"6\": {\"O\": 1}, \"7\": {\"O\": 1}, \"8\": {\"O\": 1}, \"9\": {\"O\": 1}}" n_minim_iter=3 energy=-11287.518122697782 stress="-0.055114011249440924 -4.740633243111923e-05 -3.273341068870149e-05 -4.740633243111923e-05 -0.055051779822494644 -1.7669595910073273e-05 -3.273341068870149e-05 -1.7669595910073273e-05 -0.0550383903467986" free_energy=-11287.518122697782 pbc="T T T"
In      10.33335599       5.57797848       3.85151576        0      -0.00035465      -0.00019144      -0.00013219
In       7.70860496       4.16112951       2.87320146        1       0.00035465       0.00019144       0.00013219
In       4.31936901       2.33160915       1.60994336        2      -0.00035465      -0.00019144      -0.00013219
In       1.69461798       0.91476019       0.63162905        3       0.00035465       0.00019144       0.00013219
O        5.88321009       2.26030119       0.17413909        4      -0.00000000      -0.00052339       0.00075801
O        6.91010500       5.02671643       1.10532851        5       0.00043756      -0.00081059      -0.00000000
O        7.99408557       2.10313876       2.43116919        6      -0.00043756       0.00028720       0.00075801
O        4.03388840       4.38959991       2.05197562        7       0.00043756      -0.00028720      -0.00075801
O        6.14476387       4.23243747       4.30900572        8      -0.00000000       0.00052339      -0.00075801
O        5.11786897       1.46602224       3.37781630        9      -0.00043756       0.00081059      -0.00000000
