10
Lattice="5.303511918901915 -0.15753781850513143 -0.10877764996075824 2.7784504478081984 4.520206847840978 -0.10877764996075524 2.778450447808191 1.4998164020319877 4.265519110799448" Properties=species:S:1:pos:R:3:spacegroup_kinds:I:1:forces:R:3 spacegroup="P 1" unit_cell=conventional occupancy="_JSON {\"0\": {\"In\": 1}, \"1\": {\"In\": 1}, \"2\": {\"In\": 1}, \"3\": {\"In\": 1}, \"4\": {\"O\": 1}, \"5\": {\"O\": 1}, \"6\": {\"O\": 1}, \"7\": {\"O\": 1}, \"8\": {\"O\": 1}, \"9\": {\"O\": 1}}" n_minim_iter=1 energy=-11284.182865547535 stress="-0.30382063162124207 0.00998890027086425 0.006897195278548144 0.00998890027086425 -0.3169332993427993 0.003723127976212262 0.006897195278548144 0.003723127976212262 -0.3197545719756607" free_energy=-11284.182865547535 pbc="T T T"
In       9.38403304       5.06553093       3.49767792        0       0.03010409       0.01625028       0.01122059
In       6.90658617       3.72819722       2.57426779        1      -0.03010409      -0.01625028      -0.01122059
In       3.95382663       2.13428821       1.47369602        2       0.03010409       0.01625028       0.01122059
In       1.47637976       0.79695450       0.55028588        3      -0.03010409      -0.01625028      -0.01122059
O        5.36685916       2.03109085       0.02458038        4      -0.00000000      -0.14519741       0.21028293
O        6.21749786       4.64470196       0.90321330        5       0.12138576      -0.22487040       0.00000000
O        7.29467090       1.78325296       2.15733994        6      -0.12138576       0.07967299       0.21028293
O        3.56574190       4.07923247       1.89062387        7       0.12138576      -0.07967299      -0.21028293
O        5.49355364       3.83139458       4.02338342        8      -0.00000000       0.14519741      -0.21028293
O        4.64291494       1.21778347       3.14475051        9      -0.12138576       0.22487040      -0.00000000
10
Lattice="5.277070978996534 -0.18631770549166846 -0.12864975751079363 2.7398815974527975 4.51389424296656 -0.12864975751079077 2.73988159745279 1.4789968137553002 4.266656820239466" Properties=species:S:1:pos:R:3:spacegroup_kinds:I:1:forces:R:3 spacegroup="P 1" unit_cell=conventional occupancy="_JSON {\"0\": {\"In\": 1}, \"1\": {\"In\": 1}, \"2\": {\"In\": 1}, \"3\": {\"In\": 1}, \"4\": {\"O\": 1}, \"5\": {\"O\": 1}, \"6\": {\"O\": 1}, \"7\": {\"O\": 1}, \"8\": {\"O\": 1}, \"9\": {\"O\": 1}}" n_minim_iter=2 energy=-11284.197379637593 stress="-0.3063040833338535 -0.000812143095492844 -0.0005607733952998307 -0.000812143095492844 -0.30523796370920075 -0.0003027072602579576 -0.0005607733952998307 -0.0003027072602579576 -0.3050085813957422" free_energy=-11284.197379637593 pbc="T T T"
In       9.29468787       5.01730212       3.46437661        0       0.19255193       0.10394014       0.07176921
In       6.84056338       3.69255790       2.54965934        1      -0.19255193      -0.10394014      -0.07176921
In       3.91627078       2.11401545       1.45969796        2       0.19255193       0.10394014       0.07176921
In       1.46214629       0.78927123       0.54498069        3      -0.19255193      -0.10394014      -0.07176921
O        5.32774403       2.00506931       0.00159448        4      -0.00000000      -0.17153605       0.24842802
O        6.15713668       4.61681166       0.87368957        5       0.14340500      -0.26566163       0.00000000
O        7.23823297       1.74318767       2.13492289        6      -0.14340500       0.09412558       0.24842802
O        3.51860119       4.06338568       1.87443441        7       0.14340500      -0.09412558      -0.24842802
O        5.42909013       3.80150404       4.00776282        8       0.00000000       0.17153605      -0.24842802
O        4.59969748       1.18976169       3.13566773        9      -0.14340500       0.26566163       0.00000000
10
Lattice="5.269546605087433 -0.19455793851640169 -0.13433952262284768 2.7288639332217013 4.512125424740549 -0.13433952262284488 2.7288639332216933 1.4730494435083645 4.2670186656386155" Properties=species:S:1:pos:R:3:spacegroup_kinds:I:1:forces:R:3 spacegroup="P 1" unit_cell=conventional occupancy="_JSON {\"0\": {\"In\": 1}, \"1\": {\"In\": 1}, \"2\": {\"In\": 1}, \"3\": {\"In\": 1}, \"4\": {\"O\": 1}, \"5\": {\"O\": 1}, \"6\": {\"O\": 1}, \"7\": {\"O\": 1}, \"8\": {\"O\": 1}, \"9\": {\"O\": 1}}" n_minim_iter=3 energy=-11284.208409354085 stress="-0.29828309702359235 0.0004223224693352146 0.0002916077339946194 0.0004223224693352146 -0.29883748979781566 0.0001574107783099277 0.0002916077339946194 0.0001574107783099277 -0.29895677087543077" free_energy=-11284.208409354085 pbc="T T T"
In       9.27447480       5.00639104       3.45684266        0      -0.00736333      -0.00397475      -0.00274451
In       6.81643690       3.67953435       2.54066676        1       0.00736333       0.00397475       0.00274451
In       3.91083756       2.11108258       1.45767285        2      -0.00736333      -0.00397475      -0.00274451
In       1.45279966       0.78422589       0.54149695        3       0.00736333       0.00397475       0.00274451
O        5.31659191       1.99250248       0.00245094        4      -0.00000000       0.00064733      -0.00093750
O        6.14420233       4.60091442       0.86524538        5      -0.00054117       0.00100254       0.00000000
O        7.21784543       1.73455075       2.13596027        6       0.00054117      -0.00035521      -0.00093750
O        3.50942902       4.05606618       1.86237935        7      -0.00054117       0.00035521       0.00093750
O        5.41068254       3.79811445       3.99588868        8      -0.00000000      -0.00064733       0.00093750
O        4.58307213       1.18970251       3.13309424        9       0.00054117      -0.00100254      -0.00000000
