10
Lattice="5.612010424741193 -0.06132747797150058 -0.04234576176730832 3.028162641717076 4.7253204211214355 -0.042345761767304445 3.0281626417170697 1.6346118397218639 4.433789618289081" Properties=species:S:1:pos:R:3:spacegroup_kinds:I:1:forces:R:3 spacegroup="P 1" unit_cell=conventional occupancy="_JSON {\"0\": {\"In\": 1}, \"1\": {\"In\": 1}, \"2\": {\"In\": 1}, \"3\": {\"In\": 1}, \"4\": {\"O\": 1}, \"5\": {\"O\": 1}, \"6\": {\"O\": 1}, \"7\": {\"O\": 1}, \"8\": {\"O\": 1}, \"9\": {\"O\": 1}}" n_minim_iter=5 energy=-11286.920293220983 stress="-0.12251638742812142 -6.411785648201793e-06 -4.427246293701513e-06 -6.411785648201793e-06 -0.12250797051437551 -2.389842379038219e-06 -4.427246293701513e-06 -2.389842379038219e-06 -0.12250615956502094" free_energy=-11286.920293220983 pbc="T T T"
In      10.03843082       5.41877693       3.74158933        0       0.00013061       0.00007050       0.00004868
In       7.46407276       4.02913025       2.78205782        1      -0.00013061      -0.00007050      -0.00004868
In       4.20426296       2.26947454       1.56704028        2       0.00013061       0.00007050       0.00004868
In       1.62990490       0.87982786       0.60750877        3      -0.00013061      -0.00007050      -0.00004868
O        5.72308914       2.19431915       0.12425527        4      -0.00000000      -0.00000277       0.00000401
O        6.69348993       4.91383056       1.04492876        5       0.00000232      -0.00000429       0.00000000
O        7.78085100       2.00444218       2.34115008        6      -0.00000232       0.00000152       0.00000401
O        3.88748472       4.29416261       2.00794802        7       0.00000232      -0.00000152      -0.00000401
O        5.94524657       4.10428565       4.22484283        8      -0.00000000       0.00000277      -0.00000401
O        4.97484578       1.38477423       3.30416933        9      -0.00000232       0.00000429       0.00000000
