10
Lattice="5.787852048397452 -0.03777613739645694 -0.026083892043024123 3.1443398201604387 4.859401760098525 -0.026083892043024682 3.144339820160438 1.697324650709243 4.553411343769363" Properties=species:S:1:pos:R:3:spacegroup_kinds:I:1:forces:R:3 spacegroup="P 1" unit_cell=conventional occupancy="_JSON {\"0\": {\"In\": 1}, \"1\": {\"In\": 1}, \"2\": {\"In\": 1}, \"3\": {\"In\": 1}, \"4\": {\"O\": 1}, \"5\": {\"O\": 1}, \"6\": {\"O\": 1}, \"7\": {\"O\": 1}, \"8\": {\"O\": 1}, \"9\": {\"O\": 1}}" n_minim_iter=9 energy=-11287.650597245807 stress="-0.025921600050827526 3.567185469051772e-05 2.4630918114679517e-05 3.567185469051772e-05 -0.025968427345789826 1.3295847334201096e-05 2.4630918114679517e-05 1.3295847334201096e-05 -0.025978502523452573" free_energy=-11287.650597245807 pbc="T T T"
In      10.37800285       5.60207900       3.86815683        0      -0.00156570      -0.00084517      -0.00058358
In       7.73679469       4.17634642       2.88370852        1       0.00156571       0.00084517       0.00058358
In       4.33973700       2.34260386       1.61753505        2      -0.00156571      -0.00084517      -0.00058358
In       1.69852885       0.91687129       0.63308674        3       0.00156571       0.00084517       0.00058358
O        5.91305895       2.26259459       0.16837561        4       0.00000000      -0.00013149       0.00019044
O        6.94036672       5.04992223       1.09922700        5       0.00010993      -0.00020365       0.00000000
O        8.03009100       2.10188507       2.44508129        6      -0.00010993       0.00007215       0.00019044
O        4.04644070       4.41706522       2.05616228        7       0.00010993      -0.00007215      -0.00019044
O        6.16347275       4.25635570       4.33286795        8      -0.00000000       0.00013149      -0.00019044
O        5.13616498       1.46902805       3.40201656        9      -0.00010993       0.00020365      -0.00000000
