10
Lattice="5.208969793350988 -0.19811212155309565 -0.13679363606640316 2.6926527985331385 4.463433165994644 -0.1367936360664 2.692652798533131 1.4535025576587528 4.222354608633524" Properties=species:S:1:pos:R:3:spacegroup_kinds:I:1:forces:R:3 spacegroup="P 1" unit_cell=conventional occupancy="_JSON {\"0\": {\"In\": 1}, \"1\": {\"In\": 1}, \"2\": {\"In\": 1}, \"3\": {\"In\": 1}, \"4\": {\"O\": 1}, \"5\": {\"O\": 1}, \"6\": {\"O\": 1}, \"7\": {\"O\": 1}, \"8\": {\"O\": 1}, \"9\": {\"O\": 1}}" n_minim_iter=7 energy=-11283.134161360469 stress="-0.3480592736361562 0.00020012432427572746 0.00013818302937374362 0.00020012432427572746 -0.3483219816127341 7.459164496894065e-05 0.00013818302937374362 7.459164496894065e-05 -0.34837850487258465" free_energy=-11283.134161360469 pbc="T T T"
In       9.12718527       4.92688368       3.40194395        0      -0.00018184      -0.00009816      -0.00006778
In       6.76422781       3.65135172       2.52120705        1       0.00018184       0.00009816       0.00006778
In       3.83004757       2.06747188       1.42756028        2      -0.00018184      -0.00009816      -0.00006778
In       1.46709011       0.79193992       0.54682338        3       0.00018184       0.00009816       0.00006778
O        5.25305374       1.94692648       0.02626905        4      -0.00000000      -0.00083857       0.00121446
O        6.08416979       4.51680752       0.85039820        5       0.00070104      -0.00129870      -0.00000000
O        7.11459048       1.71923666       2.13744635        6      -0.00070104       0.00046014       0.00121446
O        3.47968490       3.99958694       1.81132098        7       0.00070104      -0.00046014      -0.00121446
O        5.34122164       3.77189712       3.92249829        8       0.00000000       0.00083857      -0.00121446
O        4.51010558       1.20201608       3.09836914        9      -0.00070104       0.00129870       0.00000000
