10
Lattice="5.269546605087433 -0.19455793851640169 -0.13433952262284768 2.7288639332217013 4.512125424740549 -0.13433952262284488 2.7288639332216933 1.4730494435083645 4.2670186656386155" Properties=species:S:1:pos:R:3:spacegroup_kinds:I:1:forces:R:3 spacegroup="P 1" unit_cell=conventional occupancy="_JSON {\"0\": {\"In\": 1}, \"1\": {\"In\": 1}, \"2\": {\"In\": 1}, \"3\": {\"In\": 1}, \"4\": {\"O\": 1}, \"5\": {\"O\": 1}, \"6\": {\"O\": 1}, \"7\": {\"O\": 1}, \"8\": {\"O\": 1}, \"9\": {\"O\": 1}}" n_minim_iter=3 energy=-11284.208409354085 stress="-0.29828309702359235 0.0004223224693352146 0.0002916077339946194 0.0004223224693352146 -0.29883748979781566 0.0001574107783099277 0.0002916077339946194 0.0001574107783099277 -0.29895677087543077" free_energy=-11284.208409354085 pbc="T T T"
In       9.27447480       5.00639104       3.45684266        0      -0.00736333      -0.00397475      -0.00274451
In       6.81643690       3.67953435       2.54066676        1       0.00736333       0.00397475       0.00274451
In       3.91083756       2.11108258       1.45767285        2      -0.00736333      -0.00397475      -0.00274451
In       1.45279966       0.78422589       0.54149695        3       0.00736333       0.00397475       0.00274451
O        5.31659191       1.99250248       0.00245094        4      -0.00000000       0.00064733      -0.00093750
O        6.14420233       4.60091442       0.86524538        5      -0.00054117       0.00100254       0.00000000
O        7.21784543       1.73455075       2.13596027        6       0.00054117      -0.00035521      -0.00093750
O        3.50942902       4.05606618       1.86237935        7      -0.00054117       0.00035521       0.00093750
O        5.41068254       3.79811445       3.99588868        8      -0.00000000      -0.00064733       0.00093750
O        4.58307213       1.18970251       3.13309424        9       0.00054117      -0.00100254      -0.00000000
