10
Lattice="5.396057647809518 -0.11840636844560734 -0.08175793356869808 2.8619463983403435 4.576103257095355 -0.08175793356869429 2.8619463983403377 1.5448877820920994 4.308216234132495" Properties=species:S:1:pos:R:3:spacegroup_kinds:I:1:forces:R:3 spacegroup="P 1" unit_cell=conventional occupancy="_JSON {\"0\": {\"In\": 1}, \"1\": {\"In\": 1}, \"2\": {\"In\": 1}, \"3\": {\"In\": 1}, \"4\": {\"O\": 1}, \"5\": {\"O\": 1}, \"6\": {\"O\": 1}, \"7\": {\"O\": 1}, \"8\": {\"O\": 1}, \"9\": {\"O\": 1}}" n_minim_iter=6 energy=-11285.870245619208 stress="-0.2028992656371652 4.834908935630295e-06 3.3384331528174135e-06 4.834908935630295e-06 -0.2029056125281832 1.8020887507909466e-06 3.3384331528174135e-06 1.8020887507909466e-06 -0.20290697811557543" free_energy=-11285.870245619208 pbc="T T T"
In       9.59341644       5.17855675       3.57572067        0       0.00013610       0.00007347       0.00005073
In       7.08650924       3.82532026       2.64132989        1      -0.00013610      -0.00007347      -0.00005073
In       4.03344121       2.17726442       1.50337048        2       0.00013610       0.00007347       0.00005073
In       1.52653402       0.82402793       0.56897970        3      -0.00013610      -0.00007347      -0.00005073
O        5.47801644       2.08798833       0.05893334        4      -0.00000000      -0.00011465       0.00016604
O        6.36847451       4.73081352       0.95441716        5       0.00009585      -0.00017756      -0.00000000
O        7.44950477       1.85911332       2.21304146        6      -0.00009585       0.00006291       0.00016604
O        3.67044568       4.14347136       1.93165891        7       0.00009585      -0.00006291      -0.00016604
O        5.64193401       3.91459635       4.08576703        8       0.00000000       0.00011465      -0.00016604
O        4.75147595       1.27177116       3.19028321        9      -0.00009585       0.00017756       0.00000000
