10
Lattice="5.559558660459115 -0.060754290437066545 -0.041949983829196895 2.9998604004398843 4.681155964157266 -0.04194998382919306 2.999860400439878 1.6193341997282178 4.392349907680285" Properties=species:S:1:pos:R:3:spacegroup_kinds:I:1:forces:R:3 spacegroup="P 1" unit_cell=conventional occupancy="_JSON {\"0\": {\"In\": 1}, \"1\": {\"In\": 1}, \"2\": {\"In\": 1}, \"3\": {\"In\": 1}, \"4\": {\"O\": 1}, \"5\": {\"O\": 1}, \"6\": {\"O\": 1}, \"7\": {\"O\": 1}, \"8\": {\"O\": 1}, \"9\": {\"O\": 1}}" n_minim_iter=5 energy=-11286.920293220983 stress="-0.12251638742812142 -6.411785648201793e-06 -4.427246293701513e-06 -6.411785648201793e-06 -0.12250797051437551 -2.389842379038219e-06 -4.427246293701513e-06 -2.389842379038219e-06 -0.12250615956502094" free_energy=-11286.920293220983 pbc="T T T"
In       9.94460822       5.36813120       3.70661916        0       0.00013061       0.00007050       0.00004868
In       7.39431098       3.99147263       2.75605576        1      -0.00013061      -0.00007050      -0.00004868
In       4.16496849       2.24826326       1.55239419        2       0.00013061       0.00007050       0.00004868
In       1.61467125       0.87160469       0.60183079        3      -0.00013061      -0.00007050      -0.00004868
O        5.66959920       2.17381029       0.12309394        4      -0.00000000      -0.00000277       0.00000401
O        6.63093029       4.86790422       1.03516250        5       0.00000232      -0.00000429       0.00000000
O        7.70812851       1.98570798       2.31926889        6      -0.00000232       0.00000152       0.00000401
O        3.85115096       4.25402791       1.98918105        7       0.00000232      -0.00000152      -0.00000401
O        5.88968027       4.06592559       4.18535600        8      -0.00000000       0.00000277      -0.00000401
O        4.92834918       1.37183166       3.27328744        9      -0.00000232       0.00000429       0.00000000
