10
Lattice="5.701524041759503 -0.02218856761114666 -0.015320894142364446 3.1100010430652487 4.778677876089518 -0.015320894142362674 3.1100010430652465 1.6787884694526316 4.474110665602449" Properties=species:S:1:pos:R:3:spacegroup_kinds:I:1:forces:R:3 spacegroup="P 1" unit_cell=conventional occupancy="_JSON {\"0\": {\"In\": 1}, \"1\": {\"In\": 1}, \"2\": {\"In\": 1}, \"3\": {\"In\": 1}, \"4\": {\"O\": 1}, \"5\": {\"O\": 1}, \"6\": {\"O\": 1}, \"7\": {\"O\": 1}, \"8\": {\"O\": 1}, \"9\": {\"O\": 1}}" n_minim_iter=3 energy=-11287.518122697782 stress="-0.055114011249440924 -4.740633243111923e-05 -3.273341068870149e-05 -4.740633243111923e-05 -0.055051779822494644 -1.7669595910073273e-05 -3.273341068870149e-05 -1.7669595910073273e-05 -0.0550383903467986" free_energy=-11287.518122697782 pbc="T T T"
In      10.24190556       5.52861325       3.81742976        0      -0.00035465      -0.00019144      -0.00013219
In       7.64038364       4.12430343       2.84777356        1       0.00035465       0.00019144       0.00013219
In       4.28114250       2.31097436       1.59569532        2      -0.00035465      -0.00019144      -0.00013219
In       1.67962057       0.90666454       0.62603912        3       0.00035465       0.00019144       0.00013219
O        5.83114356       2.24029748       0.17259796        4      -0.00000000      -0.00052339       0.00075801
O        6.84895042       4.98222988       1.09554633        5       0.00043756      -0.00081059      -0.00000000
O        7.92333774       2.08452594       2.40965329        6      -0.00043756       0.00028720       0.00075801
O        3.99818840       4.35075185       2.03381559        7       0.00043756      -0.00028720      -0.00075801
O        6.09038258       4.19498031       4.27087093        8      -0.00000000       0.00052339      -0.00075801
O        5.07257571       1.45304791       3.34792255        9      -0.00043756       0.00081059      -0.00000000
