10
Lattice="5.641825290762507 -0.030160524056865236 -0.02082541804641894 3.0705784388912885 4.733143809278858 -0.020825418046412754 3.0705784388912836 1.6575080221451741 4.433480706383647" Properties=species:S:1:pos:R:3:spacegroup_kinds:I:1:forces:R:3 spacegroup="P 1" unit_cell=conventional occupancy="_JSON {\"0\": {\"In\": 1}, \"1\": {\"In\": 1}, \"2\": {\"In\": 1}, \"3\": {\"In\": 1}, \"4\": {\"O\": 1}, \"5\": {\"O\": 1}, \"6\": {\"O\": 1}, \"7\": {\"O\": 1}, \"8\": {\"O\": 1}, \"9\": {\"O\": 1}}" n_minim_iter=4 energy=-11287.27703280202 stress="-0.09107573722896573 0.00016329478450778404 0.00011275275556769667 0.00016329478450778404 -0.09129009818889557 6.086429606163527e-05 0.00011275275556769667 6.086429606163527e-05 -0.09133621928127653" free_energy=-11287.27703280202 pbc="T T T"
In      10.12449578       5.46523507       3.77366802        0      -0.00331584      -0.00178990      -0.00123590
In       7.54997748       4.07550190       2.81407679        1       0.00331584       0.00178990       0.00123590
In       4.23300469       2.28498942       1.57775308        2      -0.00331584      -0.00178990      -0.00123590
In       1.65848640       0.89525624       0.61816185        3       0.00331584       0.00178990       0.00123590
O        5.76665819       2.21638575       0.15871604        4       0.00000000       0.00417742      -0.00604997
O        6.76578131       4.93487667       1.07713205        5      -0.00349234       0.00646966      -0.00000000
O        7.83811351       2.05187757       2.37545639        6       0.00349234      -0.00229224      -0.00604997
O        3.94486867       4.30861375       2.01637348        7      -0.00349234       0.00229224       0.00604997
O        6.01632399       4.14410557       4.23311384        8       0.00000000      -0.00417742       0.00604997
O        5.01720086       1.42561465       3.31469782        9       0.00349234      -0.00646966       0.00000000
