10
Lattice="6.305088123247135 0.06244831292824937 0.04311968255499865 3.5119466940277593 5.236818352015579 0.04311968255499177 3.511946694027767 1.8957600121751668 4.881825451126696" Properties=species:S:1:pos:R:3:spacegroup_kinds:I:1:forces:R:3 spacegroup="P 1" unit_cell=conventional occupancy="_JSON {\"0\": {\"In\": 1}, \"1\": {\"In\": 1}, \"2\": {\"In\": 1}, \"3\": {\"In\": 1}, \"4\": {\"O\": 1}, \"5\": {\"O\": 1}, \"6\": {\"O\": 1}, \"7\": {\"O\": 1}, \"8\": {\"O\": 1}, \"9\": {\"O\": 1}}" n_minim_iter=1 energy=-11284.264323816971 stress="0.2823845568348499 0.003870306292318542 0.002672392132849502 0.003870306292318542 0.27730391332970095 0.0014425657801957024 0.002672392132849502 0.0014425657801957024 0.2762107810560252" free_energy=-11284.264323816971 pbc="T T T"
In      11.27269962       6.08503917       4.20163404        0      -0.09507562      -0.05132212      -0.03543721
In       8.72077266       4.70750086       3.25046319        1       0.09507562       0.05132212       0.03543721
In       4.60820886       2.48752583       1.71760163        2      -0.09507562      -0.05132212      -0.03543720
In       2.05628190       1.10998752       0.76643079        3       0.09507562       0.05132212       0.03543720
O        6.48478944       2.51308148       0.27427185        4       0.00000000       0.11889614      -0.17219197
O        7.66968725       5.50632290       1.28513589        5      -0.09939776       0.18413705      -0.00000000
O        8.81183834       2.40302859       2.71518458        6       0.09939776      -0.06524091      -0.17219198
O        4.51714319       4.79199810       2.25288024        7      -0.09939776       0.06524091       0.17219198
O        6.84419208       4.68194521       4.69379297        8      -0.00000000      -0.11889614       0.17219197
O        5.65929427       1.68870379       3.68292893        9       0.09939776      -0.18413705      -0.00000000
10
Lattice="6.28625985715138 0.04328284428338429 0.029886195768349534 3.4855927857639264 5.2315943390206225 0.029886195768342592 3.4855927857639344 1.8815340885482328 4.881629029985894" Properties=species:S:1:pos:R:3:spacegroup_kinds:I:1:forces:R:3 spacegroup="P 1" unit_cell=conventional occupancy="_JSON {\"0\": {\"In\": 1}, \"1\": {\"In\": 1}, \"2\": {\"In\": 1}, \"3\": {\"In\": 1}, \"4\": {\"O\": 1}, \"5\": {\"O\": 1}, \"6\": {\"O\": 1}, \"7\": {\"O\": 1}, \"8\": {\"O\": 1}, \"9\": {\"O\": 1}}" n_minim_iter=2 energy=-11284.269819459067 stress="0.2749996206150082 -0.0005959974913207351 -0.0004115278958035295 -0.0005959974913207351 0.2757820007105056 -0.00022214408077545996 -0.0004115278958035295 -0.00022214408077545996 0.2759503347021225" free_energy=-11284.269819459067 pbc="T T T"
In      11.21173169       6.05212848       4.17890967        0      -0.04963917      -0.02679538      -0.01850184
In       8.67443646       4.68248844       3.23319247        1       0.04963917       0.02679538       0.01850184
In       4.58300897       2.47392285       1.70820896        2      -0.04963918      -0.02679539      -0.01850184
In       2.04571375       1.10428280       0.76249176        3       0.04963917       0.02679538       0.01850184
O        6.45749129       2.49627517       0.25746960        4       0.00000000       0.14537056      -0.21053370
O        7.62718042       5.48823813       1.26523655        5      -0.12153051       0.22513856      -0.00000000
O        8.77339495       2.37534550       2.69828411        6       0.12153051      -0.07976800      -0.21053370
O        4.48405049       4.78106579       2.24311731        7      -0.12153051       0.07976800       0.21053370
O        6.79995415       4.66013612       4.68393183        8      -0.00000000      -0.14537056       0.21053370
O        5.63026502       1.66817315       3.67616487        9       0.12153051      -0.22513856      -0.00000000
10
Lattice="6.278256538491929 0.035108146070780985 0.024241681523177985 3.4743671015150386 5.229389160212421 0.024241681523170952 3.474367101515046 1.8754744284330789 4.8815667890917736" Properties=species:S:1:pos:R:3:spacegroup_kinds:I:1:forces:R:3 spacegroup="P 1" unit_cell=conventional occupancy="_JSON {\"0\": {\"In\": 1}, \"1\": {\"In\": 1}, \"2\": {\"In\": 1}, \"3\": {\"In\": 1}, \"4\": {\"O\": 1}, \"5\": {\"O\": 1}, \"6\": {\"O\": 1}, \"7\": {\"O\": 1}, \"8\": {\"O\": 1}, \"9\": {\"O\": 1}}" n_minim_iter=3 energy=-11284.280782251111 stress="0.2675207558038309 -0.00043255335952913397 -0.0002986720416105078 -0.00043255335952913397 0.26808857896817173 -0.00016122410698300214 -0.0002986720416105078 -0.00016122410698300214 0.26821074966779257" free_energy=-11284.280782251111 pbc="T T T"
In      11.18278585       6.03650342       4.16812079        0       0.05251619       0.02834841       0.01957418
In       8.65770028       4.67345419       3.22695444        1      -0.05251619      -0.02834841      -0.01957418
In       4.56929048       2.46651756       1.70309571        2       0.05251619       0.02834841       0.01957418
In       2.04420490       1.10346832       0.76192937        3      -0.05251619      -0.02834841      -0.01957418
O        6.44587596       2.49687412       0.23907041        4       0.00000000       0.00917716      -0.01329087
O        7.60259859       5.49256115       1.25675422        5      -0.00767215       0.01421287      -0.00000000
O        8.76352043       2.35929178       2.67985380        6       0.00767215      -0.00503571      -0.01329087
O        4.46347032       4.78067997       2.25019636        7      -0.00767215       0.00503571       0.01329087
O        6.78111479       4.64309763       4.69097975        8       0.00000000      -0.00917716       0.01329087
O        5.62439216       1.64741060       3.67329594        9       0.00767215      -0.01421287      -0.00000000
10
Lattice="6.281309288747326 0.03822825695964769 0.026396074248229335 3.4786506405286777 5.230229201639549 0.026396074248222285 3.4786506405286857 1.877786696437164 4.881589021732807" Properties=species:S:1:pos:R:3:spacegroup_kinds:I:1:forces:R:3 spacegroup="P 1" unit_cell=conventional occupancy="_JSON {\"0\": {\"In\": 1}, \"1\": {\"In\": 1}, \"2\": {\"In\": 1}, \"3\": {\"In\": 1}, \"4\": {\"O\": 1}, \"5\": {\"O\": 1}, \"6\": {\"O\": 1}, \"7\": {\"O\": 1}, \"8\": {\"O\": 1}, \"9\": {\"O\": 1}}" n_minim_iter=4 energy=-11284.281108612022 stress="0.2690695190159503 0.0006448019357400902 0.0004452266864723001 0.0006448019357400902 0.26822307209271923 0.0002403348008266255 0.0004452266864723001 0.0002403348008266255 0.2680409537859162" free_energy=-11284.281108612022 pbc="T T T"
In      11.19408826       6.04260450       4.17233350        0       0.02852982       0.01540049       0.01063382
In       8.66382760       4.67676174       3.22923826        1      -0.02852982      -0.01540049      -0.01063382
In       4.57478298       2.46948243       1.70514291        2       0.02852982       0.01540049       0.01063382
In       2.04452232       1.10363966       0.76204768        3      -0.02852982      -0.01540049      -0.01063382
O        6.45030729       2.50000466       0.24122690        4      -0.00000000      -0.00056255       0.00081471
O        7.60916970       5.49611303       1.25999137        5       0.00047029      -0.00087123       0.00000000
O        8.77009553       2.36357476       2.68202141        6      -0.00047029       0.00030868       0.00081471
O        4.46851505       4.78266941       2.25235976        7       0.00047029      -0.00030868      -0.00081471
O        6.78830329       4.64623950       4.69315428        8      -0.00000000       0.00056255      -0.00081471
O        5.62944088       1.65013114       3.67438981        9      -0.00047029       0.00087123      -0.00000000
10
Lattice="6.277057207945637 0.03388167779872256 0.023394822415619618 3.472683669053827 5.229059503830456 0.0233948224156125 3.472683669053834 1.8745657062282157 4.881558565186784" Properties=species:S:1:pos:R:3:spacegroup_kinds:I:1:forces:R:3 spacegroup="P 1" unit_cell=conventional occupancy="_JSON {\"0\": {\"In\": 1}, \"1\": {\"In\": 1}, \"2\": {\"In\": 1}, \"3\": {\"In\": 1}, \"4\": {\"O\": 1}, \"5\": {\"O\": 1}, \"6\": {\"O\": 1}, \"7\": {\"O\": 1}, \"8\": {\"O\": 1}, \"9\": {\"O\": 1}}" n_minim_iter=5 energy=-11284.28151504781 stress="0.26755121545575056 -3.242538925283894e-05 -2.238929255782042e-05 -3.242538925283894e-05 0.26759378103573006 -1.208582598276962e-05 -2.238929255782042e-05 -1.208582598276962e-05 0.2676029392660922" free_energy=-11284.28151504781 pbc="T T T"
In      11.18345298       6.03686354       4.16836945        0      -0.00059265      -0.00031991      -0.00022090
In       8.65018385       4.66939680       3.22415287        1       0.00059265       0.00031991       0.00022090
In       4.57224070       2.46811010       1.70419534        2      -0.00059265      -0.00031991      -0.00022090
In       2.03897158       1.10064336       0.75997877        3       0.00059265       0.00031991       0.00022090
O        6.44413475       2.49682098       0.23651789        4       0.00000000       0.00045468      -0.00065849
O        7.59903226       5.49298866       1.25548188        5      -0.00038011       0.00070417      -0.00000000
O        8.76192090       2.35696250       2.67729717        6       0.00038011      -0.00024949      -0.00065849
O        4.46050365       4.78054440       2.25105104        7      -0.00038011       0.00024949       0.00065849
O        6.77828981       4.64068592       4.69183033        8       0.00000000      -0.00045468       0.00065849
O        5.62339230       1.64451824       3.67286634        9       0.00038011      -0.00070417       0.00000000
