10
Lattice="5.2275029047606845 -0.1800835637522682 -0.12434517024173553 2.717894285839015 4.4690342760174415 -0.1243451702417342 2.7178942858390163 1.4671279929091707 4.22318180214912" Properties=species:S:1:pos:R:3:spacegroup_kinds:I:1:forces:R:3 spacegroup="P 1" unit_cell=conventional occupancy="_JSON {\"0\": {\"In\": 1}, \"1\": {\"In\": 1}, \"2\": {\"In\": 1}, \"3\": {\"In\": 1}, \"4\": {\"O\": 1}, \"5\": {\"O\": 1}, \"6\": {\"O\": 1}, \"7\": {\"O\": 1}, \"8\": {\"O\": 1}, \"9\": {\"O\": 1}}" n_minim_iter=1 energy=-11278.295321356884 stress="-0.9323753343881401 0.005661302481108244 0.003909049804052202 0.005661302481108244 -0.9398070612196447 0.00211011753019831 0.003909049804052202 0.00211011753019831 -0.941406043780869" free_energy=-11278.295321356884 pbc="T T T"
In       9.17570739       4.95307608       3.42002943        0      -0.04545332      -0.02453585      -0.01694166
In       6.81922981       3.68104197       2.54170776        1       0.04545332       0.02453585       0.01694166
In       3.84406166       2.07503673       1.43278370        2      -0.04545332      -0.02453585      -0.01694166
In       1.48758407       0.80300262       0.55446203        3       0.04545332       0.02453585       0.01694166
O        5.27957432       1.97386344       0.02645642        4      -0.00000000      -0.18170235       0.26315141
O        6.11611403       4.55126893       0.86927769        5       0.15190407      -0.28140640      -0.00000000
O        7.16092889       1.73965354       2.13804732        6      -0.15190407       0.09970405       0.26315141
O        3.50236257       4.01642516       1.83644414        7       0.15190407      -0.09970405      -0.26315141
O        5.38371715       3.78221527       3.94803504        8      -0.00000000       0.18170235      -0.26315141
O        4.54717744       1.20480978       3.10521376        9      -0.15190407       0.28140640      -0.00000000
10
Lattice="5.2121617304238645 -0.1968841702873125 -0.13594575297252973 2.695430857515728 4.4654278376161045 -0.13594575297252834 2.69543085751573 1.4550021627466374 4.223919474505959" Properties=species:S:1:pos:R:3:spacegroup_kinds:I:1:forces:R:3 spacegroup="P 1" unit_cell=conventional occupancy="_JSON {\"0\": {\"In\": 1}, \"1\": {\"In\": 1}, \"2\": {\"In\": 1}, \"3\": {\"In\": 1}, \"4\": {\"O\": 1}, \"5\": {\"O\": 1}, \"6\": {\"O\": 1}, \"7\": {\"O\": 1}, \"8\": {\"O\": 1}, \"9\": {\"O\": 1}}" n_minim_iter=2 energy=-11278.301615180504 stress="-0.9374510090020546 -0.0024935989853747706 -0.0017217950297832396 -0.0024935989853747706 -0.9341776020930072 -0.000929430476623054 -0.0017217950297832396 -0.000929430476623054 -0.9334733080721662" free_energy=-11278.301615180504 pbc="T T T"
In       9.12359778       4.92494715       3.40060680        0       0.04966756       0.02681071       0.01851242
In       6.78093738       3.66037160       2.52743515        1      -0.04966756      -0.02681071      -0.01851242
In       3.82208606       2.06317423       1.42459281        2       0.04966756       0.02681071       0.01851242
In       1.47942565       0.79859868       0.55142117        3      -0.04966756      -0.02681071      -0.01851242
O        5.25683672       1.95809830       0.01392744        4       0.00000000      -0.21494749       0.31129886
O        6.08150235       4.53412220       0.85206124        5       0.17969717      -0.33289387       0.00000000
O        7.12760195       1.71663548       2.12588717        6      -0.17969717       0.11794638       0.31129886
O        3.47542148       4.00691035       1.82614079        7       0.17969717      -0.11794638      -0.31129886
O        5.34618671       3.76544753       3.93810053        8       0.00000000       0.21494749      -0.31129886
O        4.52152109       1.18942363       3.09996673        9      -0.17969717       0.33289387       0.00000000
10
Lattice="5.208370863523487 -0.20105036416896635 -0.13882245130457166 2.689867767176921 4.464544735584528 -0.1388224513045703 2.689867767176924 1.4519991888614245 4.224112892024489" Properties=species:S:1:pos:R:3:spacegroup_kinds:I:1:forces:R:3 spacegroup="P 1" unit_cell=conventional occupancy="_JSON {\"0\": {\"In\": 1}, \"1\": {\"In\": 1}, \"2\": {\"In\": 1}, \"3\": {\"In\": 1}, \"4\": {\"O\": 1}, \"5\": {\"O\": 1}, \"6\": {\"O\": 1}, \"7\": {\"O\": 1}, \"8\": {\"O\": 1}, \"9\": {\"O\": 1}}" n_minim_iter=3 energy=-11278.31210380039 stress="-0.9299914186145783 -0.0008425655153884807 -0.0005817796808194326 -0.0008425655153884807 -0.9288853627593077 -0.000314046518796335 -0.0005817796808194326 -0.000314046518796335 -0.9286473879115129" free_energy=-11278.31210380039 pbc="T T T"
In       9.11112012       4.91821166       3.39595604        0      -0.11629845      -0.06277827      -0.04334752
In       6.77103947       3.65502868       2.52374594        1       0.11629845       0.06277827       0.04334752
In       3.81706692       2.06046488       1.42272205        2      -0.11629845      -0.06277827      -0.04334752
In       1.47698627       0.79728190       0.55051194        3       0.11629845       0.06277827       0.04334752
O        5.25121202       1.94992163       0.01700871        4       0.00000000      -0.05226562       0.07569397
O        6.07650743       4.52326491       0.84779454        5       0.04369432      -0.08094491      -0.00000000
O        7.11578439       1.71327689       2.12906516        6      -0.04369432       0.02867929       0.07569397
O        3.47232200       4.00221667       1.81740283        7       0.04369432      -0.02867929      -0.07569397
O        5.33689436       3.76557193       3.92945927        8       0.00000000       0.05226562      -0.07569397
O        4.51159895       1.19222865       3.09867344        9      -0.04369432       0.08094491      -0.00000000
10
Lattice="5.208746825081431 -0.20063691683429388 -0.13853697172973073 2.6904197095300146 4.464632173736719 -0.1385369717297294 2.6904197095300177 1.4522971291017475 4.2240935108143525" Properties=species:S:1:pos:R:3:spacegroup_kinds:I:1:forces:R:3 spacegroup="P 1" unit_cell=conventional occupancy="_JSON {\"0\": {\"In\": 1}, \"1\": {\"In\": 1}, \"2\": {\"In\": 1}, \"3\": {\"In\": 1}, \"4\": {\"O\": 1}, \"5\": {\"O\": 1}, \"6\": {\"O\": 1}, \"7\": {\"O\": 1}, \"8\": {\"O\": 1}, \"9\": {\"O\": 1}}" n_minim_iter=4 energy=-11278.315263158065 stress="-0.9247829179739768 0.000524793397709434 0.00036236247570178013 0.000524793397709434 -0.9254718267464573 0.00019560438799562336 0.00036236247570178013 0.00019560438799562336 -0.9256200497570513" free_energy=-11278.315263158065 pbc="T T T"
In       9.10825716       4.91666623       3.39488894        0      -0.11294219      -0.06096655      -0.04209655
In       6.77612219       3.65777235       2.52564040        1       0.11294219       0.06096655       0.04209655
In       3.81346404       2.05852004       1.42137916        2      -0.11294219      -0.06096656      -0.04209655
In       1.48132907       0.79962615       0.55213062        3       0.11294219       0.06096656       0.04209655
O        5.25176997       1.94659896       0.02269002        4       0.00000000       0.03874946      -0.05611911
O        6.08045888       4.51793973       0.84821792        5      -0.03239474       0.06001213       0.00000000
O        7.11350076       1.71587852       2.13473678        6       0.03239474      -0.02126267      -0.05611911
O        3.47608547       4.00041386       1.81228278        7      -0.03239474       0.02126267       0.05611911
O        5.33781626       3.76969342       3.92432954        8       0.00000000      -0.03874946       0.05611911
O        4.50912735       1.19835266       3.09880165        9       0.03239474      -0.06001213       0.00000000
10
Lattice="5.209780401184443 -0.19950058477384366 -0.1377523504096963 2.691936834584871 4.464872718286132 -0.13775235040969494 2.691936834584874 1.4531160780389154 4.22404045485883" Properties=species:S:1:pos:R:3:spacegroup_kinds:I:1:forces:R:3 spacegroup="P 1" unit_cell=conventional occupancy="_JSON {\"0\": {\"In\": 1}, \"1\": {\"In\": 1}, \"2\": {\"In\": 1}, \"3\": {\"In\": 1}, \"4\": {\"O\": 1}, \"5\": {\"O\": 1}, \"6\": {\"O\": 1}, \"7\": {\"O\": 1}, \"8\": {\"O\": 1}, \"9\": {\"O\": 1}}" n_minim_iter=5 energy=-11278.316133809687 stress="-0.9252232522349041 0.00020554050173840165 0.00014192284318868194 0.00020554050173840165 -0.9254930701515948 7.661043998592218e-05 0.00014192284318868194 7.661043998592218e-05 -0.9255511231934139" free_energy=-11278.316133809687 pbc="T T T"
In       9.10991068       4.91755881       3.39550525        0      -0.04880824      -0.02634684      -0.01819212
In       6.78057041       3.66017351       2.52729837        1       0.04880824       0.02634684       0.01819212
In       3.81308365       2.05831470       1.42123738        2      -0.04880824      -0.02634684      -0.01819212
In       1.48374338       0.80092940       0.55303050        3       0.04880824       0.02634684       0.01819213
O        5.25330371       1.94770362       0.02347944        4      -0.00000000       0.01668790      -0.02416835
O        6.08276162       4.51915781       0.84938159        5      -0.01395117       0.02584492      -0.00000000
O        7.11578264       1.71741196       2.13549967        6       0.01395117      -0.00915702      -0.02416835
O        3.47787142       4.00107625       1.81303608        7      -0.01395117       0.00915702       0.02416835
O        5.34035035       3.77078459       3.92505631        8      -0.00000000      -0.01668790       0.02416835
O        4.51089244       1.19933040       3.09915416        9       0.01395117      -0.02584492      -0.00000000
10
Lattice="5.210646293953638 -0.19854894305980864 -0.13709525517859794 2.6932075460808877 4.465074422360263 -0.13709525517859658 2.693207546080891 1.4538020121521114 4.223996261323016" Properties=species:S:1:pos:R:3:spacegroup_kinds:I:1:forces:R:3 spacegroup="P 1" unit_cell=conventional occupancy="_JSON {\"0\": {\"In\": 1}, \"1\": {\"In\": 1}, \"2\": {\"In\": 1}, \"3\": {\"In\": 1}, \"4\": {\"O\": 1}, \"5\": {\"O\": 1}, \"6\": {\"O\": 1}, \"7\": {\"O\": 1}, \"8\": {\"O\": 1}, \"9\": {\"O\": 1}}" n_minim_iter=6 energy=-11278.316334443096 stress="-0.9255436321000037 -6.676494014948773e-07 -4.610518496210261e-07 -6.676494014948773e-07 -0.9255427556687507 -2.4886247181240665e-07 -4.610518496210261e-07 -2.4886247181240665e-07 -0.9255425670137177" free_energy=-11278.316334443096 pbc="T T T"
In       9.11141908       4.91837305       3.39606748        0       0.00040537       0.00021882       0.00015109
In       6.78417298       3.66211819       2.52864115        1      -0.00040537      -0.00021882      -0.00015109
In       3.81288839       2.05820930       1.42116460        2       0.00040537       0.00021882       0.00015109
In       1.48564229       0.80195444       0.55373827        3      -0.00040537      -0.00021882      -0.00015109
O        5.25458849       1.94862167       0.02415095        4       0.00000000      -0.00016277       0.00023573
O        6.08469645       4.52016707       0.85035618        5       0.00013608      -0.00025209      -0.00000000
O        7.11768807       1.71870022       2.13614908        6      -0.00013608       0.00008932       0.00023573
O        3.47937330       4.00162727       1.81365666        7       0.00013608      -0.00008932      -0.00023573
O        5.34247289       3.77170582       3.92565479        8       0.00000000       0.00016277      -0.00023573
O        4.51236493       1.20016042       3.09944957        9      -0.00013608       0.00025209      -0.00000000
