10
Lattice="6.297382856257701 -0.033399279483437974 -0.023061733157581792 3.4275895805907473 5.282970378223236 -0.02306173315758297 3.427589580590755 1.8502237736359062 4.9484320595712745" Properties=species:S:1:pos:R:3:spacegroup_kinds:I:1:forces:R:3 spacegroup="P 1" unit_cell=conventional occupancy="_JSON {\"0\": {\"In\": 1}, \"1\": {\"In\": 1}, \"2\": {\"In\": 1}, \"3\": {\"In\": 1}, \"4\": {\"O\": 1}, \"5\": {\"O\": 1}, \"6\": {\"O\": 1}, \"7\": {\"O\": 1}, \"8\": {\"O\": 1}, \"9\": {\"O\": 1}}" n_minim_iter=5 energy=-11282.316879740174 stress="0.3243821853643523 0.00018850421859420668 0.0001301595052319546 0.00018850421859420668 0.32413473138073295 7.026051374021388e-05 0.0001301595052319546 7.026051374021388e-05 0.32408149012079335" free_energy=-11282.316879740174 pbc="T T T"
In      11.13039085       6.00822044       4.14859178        0       0.00473566       0.00255633       0.00176511
In       8.59845218       4.64147188       3.20487111        1      -0.00473566      -0.00255633      -0.00176511
In       4.55410984       2.45832300       1.69743749        2       0.00473566       0.00255633       0.00176511
In       2.02217117       1.09157444       0.75371681        3      -0.00473566      -0.00255633      -0.00176511
O        6.43683194       2.49185297       0.15160050        4       0.00000000      -0.00106792       0.00154662
O        7.53733022       5.53588264       1.20251542        5       0.00089279      -0.00165391      -0.00000000
O        8.76392323       2.28081649       2.62581653        6      -0.00089279       0.00058599       0.00154662
O        4.38863879       4.81897839       2.27649207        7       0.00089279      -0.00058599      -0.00154662
O        6.71573009       4.60794191       4.75070810        8      -0.00000000       0.00106792      -0.00154662
O        5.61523181       1.56391225       3.69979318        9      -0.00089279       0.00165391      -0.00000000
