10
Lattice="5.164950358374272 -0.24693368111669403 -0.17050423690588776 2.6276833057215234 4.453422155171549 -0.17050423690588715 2.6276833057215274 1.4184318184892506 4.224936894590599" Properties=species:S:1:pos:R:3:spacegroup_kinds:I:1:forces:R:3 spacegroup="P 1" unit_cell=conventional occupancy="_JSON {\"0\": {\"In\": 1}, \"1\": {\"In\": 1}, \"2\": {\"In\": 1}, \"3\": {\"In\": 1}, \"4\": {\"O\": 1}, \"5\": {\"O\": 1}, \"6\": {\"O\": 1}, \"7\": {\"O\": 1}, \"8\": {\"O\": 1}, \"9\": {\"O\": 1}}" n_minim_iter=6 energy=-11283.03322723501 stress="-0.3692813389238347 -7.605080280686102e-05 -5.251201038411654e-05 -7.605080280686102e-05 -0.3691815052204221 -2.8346150808538183e-05 -5.251201038411654e-05 -2.8346150808538183e-05 -0.3691600253741078" free_energy=-11283.03322723501 pbc="T T T"
In       9.09191759       4.90784608       3.38879875        0      -0.00084535      -0.00045632      -0.00031508
In       6.53855785       3.52953436       2.43709388        1       0.00084535       0.00045632       0.00031508
In       3.88175911       2.09538593       1.44683454        2      -0.00084535      -0.00045632      -0.00031508
In       1.32839936       0.71707421       0.49512966        3       0.00084535       0.00045632       0.00031508
O        5.18755442       1.94144021      -0.06820250        4       0.00000000       0.00201643      -0.00292031
O        5.95073883       4.52958174       0.80047787        5      -0.00168575       0.00312290       0.00000000
O        7.05205331       1.63054869       2.04426594        6       0.00168575      -0.00110646      -0.00292031
O        3.36826365       3.99437160       1.83966247        7      -0.00168575       0.00110646       0.00292031
O        5.23276254       3.68348008       3.95213092        8      -0.00000000      -0.00201643       0.00292031
O        4.46957813       1.09533855       3.08345055        9       0.00168575      -0.00312290      -0.00000000
