10
Lattice="6.062024527396983 0.04385454933417998 0.030280950072346213 3.3630279099946607 5.043818778352061 0.030280950072352653 3.3630279099946634 1.8153731781973326 4.7058947107511715" Properties=species:S:1:pos:R:3:spacegroup_kinds:I:1:forces:R:3 spacegroup="P 1" unit_cell=conventional occupancy="_JSON {\"0\": {\"In\": 1}, \"1\": {\"In\": 1}, \"2\": {\"In\": 1}, \"3\": {\"In\": 1}, \"4\": {\"O\": 1}, \"5\": {\"O\": 1}, \"6\": {\"O\": 1}, \"7\": {\"O\": 1}, \"8\": {\"O\": 1}, \"9\": {\"O\": 1}}" n_minim_iter=1 energy=-11287.150791991136 stress="0.10347398245626224 -0.000998947878309529 -0.0006897594685910564 -0.000998947878309529 0.1047853251608111 -0.0003723343482182198 -0.0006897594685910564 -0.0003723343482182198 0.10506746873129086" free_energy=-11287.150791991136 pbc="T T T"
In      10.90770297       5.88801281       4.06559010        0      -0.18904835      -0.10204890      -0.07046333
In       8.27441757       4.46655696       3.08409482        1       0.18904835       0.10204890       0.07046333
In       4.51366279       2.43648956       1.68236180        2      -0.18904835      -0.10204890      -0.07046333
In       1.88037739       1.01503371       0.70086651        3       0.18904835       0.10204890       0.07046333
O        6.22803236       2.39684248       0.26661446        4      -0.00000000       0.02368473      -0.03430154
O        7.36685068       5.27495662       1.22189511        5      -0.01980056       0.03668107       0.00000000
O        8.45224194       2.29917075       2.61956182        6       0.01980056      -0.01299633      -0.03430154
O        4.33583842       4.60387577       2.14689480        7      -0.01980056       0.01299633       0.03430154
O        6.56004800       4.50620403       4.49984216        8      -0.00000000      -0.02368473       0.03430154
O        5.42122967       1.62808990       3.54456151        9       0.01980056      -0.03668107      -0.00000000
10
Lattice="6.0892624936606214 0.07153199904031599 0.04939184017168284 3.40111246306183 5.051402632655027 0.049391840171689266 3.401112463061832 1.8359313412551836 4.706215488188638" Properties=species:S:1:pos:R:3:spacegroup_kinds:I:1:forces:R:3 spacegroup="P 1" unit_cell=conventional occupancy="_JSON {\"0\": {\"In\": 1}, \"1\": {\"In\": 1}, \"2\": {\"In\": 1}, \"3\": {\"In\": 1}, \"4\": {\"O\": 1}, \"5\": {\"O\": 1}, \"6\": {\"O\": 1}, \"7\": {\"O\": 1}, \"8\": {\"O\": 1}, \"9\": {\"O\": 1}}" n_minim_iter=2 energy=-11287.155525781574 stress="0.1032258444775183 0.003231611229997129 0.0022313821579762272 0.003231611229997129 0.0989836313768361 0.0012045072001859796 0.0022313821579762272 0.0012045072001859796 0.09807089257962194" free_energy=-11287.155525781574 pbc="T T T"
In      10.98980256       5.93233043       4.09619080        0      -0.28120132      -0.15179337      -0.10481119
In       8.34742858       4.50596854       3.11130796        1       0.28120132       0.15179337       0.10481119
In       4.54405885       2.45289744       1.69369121        2      -0.28120132      -0.15179337      -0.10481119
In       1.90168487       1.02653556       0.70880837        3       0.28120132       0.15179337       0.10481119
O        6.26750311       2.42278264       0.28848979        4      -0.00000000       0.00032252      -0.00046709
O        7.42691319       5.30367168       1.25064163        5      -0.00026963       0.00049949       0.00000000
O        8.50920548       2.33826044       2.64159754        6       0.00026963      -0.00017697      -0.00046709
O        4.38228195       4.62060554       2.16340163        7      -0.00026963       0.00017697       0.00046709
O        6.62398432       4.53608335       4.51650938        8       0.00000000      -0.00032252       0.00046709
O        5.46457424       1.65519430       3.55435754        9       0.00026963      -0.00049950       0.00000000
10
Lattice="6.126714579250013 0.1092704096385202 0.07544968239065111 3.453212740004396 5.062004872606157 0.0754496823906573 3.453212740004399 1.8640552367057968 4.706897498286003" Properties=species:S:1:pos:R:3:spacegroup_kinds:I:1:forces:R:3 spacegroup="P 1" unit_cell=conventional occupancy="_JSON {\"0\": {\"In\": 1}, \"1\": {\"In\": 1}, \"2\": {\"In\": 1}, \"3\": {\"In\": 1}, \"4\": {\"O\": 1}, \"5\": {\"O\": 1}, \"6\": {\"O\": 1}, \"7\": {\"O\": 1}, \"8\": {\"O\": 1}, \"9\": {\"O\": 1}}" n_minim_iter=3 energy=-11287.187097977261 stress="0.09191775358601517 0.005217000484518257 0.0036022654999903485 0.005217000484518257 0.08506927264835751 0.0019445144064518124 0.0036022654999903485 0.0019445144064518124 0.08359577903113183" free_energy=-11287.187097977261 pbc="T T T"
In      11.07485971       5.97824455       4.12789386        0      -0.17545241      -0.09470977      -0.06539577
In       8.47485039       4.57475124       3.15880144        1       0.17545241       0.09470977       0.06539577
In       4.55828968       2.46057929       1.69899542        2      -0.17545241      -0.09470977      -0.06539577
In       1.95828036       1.05708598       0.72990301        3       0.17545241       0.09470977       0.06539577
O        6.32164231       2.46054338       0.31504342        4      -0.00000000      -0.09931948       0.14383997
O        7.50729030       5.34661030       1.28989890        5       0.08303158      -0.15381825      -0.00000000
O        8.58920705       2.39043098       2.66849217        6      -0.08303158       0.05449877       0.14383997
O        4.44393301       4.64489955       2.18930470        7       0.08303158      -0.05449877      -0.14383997
O        6.71149776       4.57478715       4.54275345        8      -0.00000000       0.09931948      -0.14383998
O        5.52584976       1.68872023       3.56789797        9      -0.08303158       0.15381825       0.00000000
10
Lattice="6.117064849565837 0.09958142466792132 0.06875957441779905 3.4398176827797533 5.0592542081979275 0.06875957441780514 3.4398176827797573 1.8568245421481429 4.7066956181506905" Properties=species:S:1:pos:R:3:spacegroup_kinds:I:1:forces:R:3 spacegroup="P 1" unit_cell=conventional occupancy="_JSON {\"0\": {\"In\": 1}, \"1\": {\"In\": 1}, \"2\": {\"In\": 1}, \"3\": {\"In\": 1}, \"4\": {\"O\": 1}, \"5\": {\"O\": 1}, \"6\": {\"O\": 1}, \"7\": {\"O\": 1}, \"8\": {\"O\": 1}, \"9\": {\"O\": 1}}" n_minim_iter=4 energy=-11287.198084955 stress="0.08183924324380752 0.0005305850797890464 0.0003663615128464317 0.0005305850797890464 0.08114273156082695 0.00019776311702424264 0.0003663615128464317 0.00019776311702424264 0.0809928726934377" free_energy=-11287.198084955 pbc="T T T"
In      11.02659234       5.95218967       4.10990333        0       0.02468381       0.01332440       0.00920031
In       8.46845799       4.57130060       3.15641883        1      -0.02468381      -0.01332440      -0.00920031
In       4.52824223       2.44435958       1.68779594        2       0.02468381       0.01332440       0.00920031
In       1.97010789       1.06347052       0.73431145        3      -0.02468381      -0.01332440      -0.00920031
O        6.30770748       2.45174863       0.30690190        4      -0.00000000      -0.11455449       0.16590415
O        7.48584925       5.33697102       1.27981327        5       0.09576812      -0.17741303      -0.00000000
O        8.56938340       2.37652275       2.66024970        6      -0.09576812       0.06285855       0.16590415
O        4.42731683       4.63913743       2.18396507        7       0.09576812      -0.06285855      -0.16590415
O        6.68899274       4.56391155       4.53731288        8      -0.00000000       0.11455449      -0.16590415
O        5.51085097       1.67868917       3.56440150        9      -0.09576812       0.17741303       0.00000000
10
Lattice="6.1038523940655445 0.08627655936883255 0.05957275188837392 3.4214447860872435 5.0555091997733035 0.059572751888380036 3.4214447860872474 1.8469067939896315 4.706448499248137" Properties=species:S:1:pos:R:3:spacegroup_kinds:I:1:forces:R:3 spacegroup="P 1" unit_cell=conventional occupancy="_JSON {\"0\": {\"In\": 1}, \"1\": {\"In\": 1}, \"2\": {\"In\": 1}, \"3\": {\"In\": 1}, \"4\": {\"O\": 1}, \"5\": {\"O\": 1}, \"6\": {\"O\": 1}, \"7\": {\"O\": 1}, \"8\": {\"O\": 1}, \"9\": {\"O\": 1}}" n_minim_iter=5 energy=-11287.200683007244 stress="0.08155396726000819 -0.0020270350123315676 -0.0013996392025190257 -0.0020270350123315676 0.08421490447609388 -0.0007555297155207051 -0.0013996392025190257 -0.0007555297155207051 0.08478742179142147" free_energy=-11287.200683007244 pbc="T T T"
In      10.99135654       5.93316927       4.09677001        0      -0.02117798      -0.01143194      -0.00789359
In       8.42875642       4.54986957       3.14162100        1       0.02117798       0.01143194       0.00789359
In       4.51798556       2.43882300       1.68397301        2      -0.02117798      -0.01143194      -0.00789359
In       1.95538544       1.05552329       0.72882400        3       0.02117798       0.01143194       0.00789359
O        6.28861169       2.43753306       0.29884265        4       0.00000000      -0.07774010       0.11258752
O        7.45825357       5.32043232       1.26597126        5       0.06499111      -0.12039779       0.00000000
O        8.54041460       2.35862017       2.65206690        6      -0.06499111       0.04265769       0.11258752
O        4.40632737       4.63007240       2.17352711        7       0.06499111      -0.04265769      -0.11258752
O        6.65813028       4.55115950       4.52675136        8       0.00000000       0.07774010      -0.11258752
O        5.48848841       1.66826025       3.55962275        9      -0.06499111       0.12039779      -0.00000000
10
Lattice="6.122657136299215 0.10519934569823673 0.07263866994636253 3.447582902668411 5.060846711790363 0.07263866994636851 3.4475829026684153 1.8610162325788937 4.70681042731581" Properties=species:S:1:pos:R:3:spacegroup_kinds:I:1:forces:R:3 spacegroup="P 1" unit_cell=conventional occupancy="_JSON {\"0\": {\"In\": 1}, \"1\": {\"In\": 1}, \"2\": {\"In\": 1}, \"3\": {\"In\": 1}, \"4\": {\"O\": 1}, \"5\": {\"O\": 1}, \"6\": {\"O\": 1}, \"7\": {\"O\": 1}, \"8\": {\"O\": 1}, \"9\": {\"O\": 1}}" n_minim_iter=6 energy=-11287.207654391152 stress="0.08474476860430853 0.0015845656945612137 0.0010941203430392035 0.0015845656945612137 0.08266467136035507 0.0005906096462219417 0.0010941203430392035 0.0005906096462219417 0.08221712541651495" free_energy=-11287.207654391152 pbc="T T T"
In      11.04591102       5.96261796       4.11710391        0      -0.03414638      -0.01843232      -0.01272726
In       8.48082340       4.57797549       3.16102775        1       0.03414637       0.01843232       0.01272726
In       4.53699955       2.44908681       1.69106003        2      -0.03414638      -0.01843232      -0.01272726
In       1.97191193       1.06444435       0.73498386        3       0.03414638       0.01843232       0.01272726
O        6.31578431       2.44844760       0.32378682        4       0.00000000      -0.01522188       0.02204518
O        7.50529973       5.32954941       1.28566061        5       0.01272557      -0.02357447      -0.00000000
O        8.57385179       2.38919492       2.67719203        6      -0.01272557       0.00835258       0.02204518
O        4.44397116       4.63786738       2.17489574        7       0.01272557      -0.00835258      -0.02204518
O        6.70203864       4.57861470       4.52830096        8       0.00000000       0.01522189      -0.02204518
O        5.51252322       1.69751290       3.56642716        9      -0.01272557       0.02357447      -0.00000000
10
Lattice="6.118816461285215 0.10134192323059607 0.06997517393684939 3.4422506159710777 5.059752540307238 0.0699751739368554 3.4422506159710826 1.8581378472345362 4.706730928658202" Properties=species:S:1:pos:R:3:spacegroup_kinds:I:1:forces:R:3 spacegroup="P 1" unit_cell=conventional occupancy="_JSON {\"0\": {\"In\": 1}, \"1\": {\"In\": 1}, \"2\": {\"In\": 1}, \"3\": {\"In\": 1}, \"4\": {\"O\": 1}, \"5\": {\"O\": 1}, \"6\": {\"O\": 1}, \"7\": {\"O\": 1}, \"8\": {\"O\": 1}, \"9\": {\"O\": 1}}" n_minim_iter=7 energy=-11287.208409631266 stress="0.08255518315535944 6.697998932969276e-05 4.624872847867426e-05 6.697998932969276e-05 0.08246725697388406 2.496521019637584e-05 4.624872847867426e-05 2.496521019637584e-05 0.0824483390772338" free_energy=-11287.208409631266 pbc="T T T"
In      11.03115676       5.95465356       4.11160461        0       0.00240383       0.00129760       0.00089597
In       8.47381979       4.57419492       3.15841731        1      -0.00240383      -0.00129760      -0.00089597
In       4.52949791       2.44503741       1.68826397        2       0.00240383       0.00129760       0.00089597
In       1.97216094       1.06457876       0.73507667        3      -0.00240383      -0.00129760      -0.00089597
O        6.31023766       2.44374997       0.32227860        4       0.00000000      -0.00130386       0.00188832
O        7.49776529       5.32385944       1.28164550        5       0.00109003      -0.00201932      -0.00000000
O        8.56496064       2.38431477       2.67564407        6      -0.00109003       0.00071546       0.00188832
O        4.43835706       4.63491755       2.17103721        7       0.00109003      -0.00071546      -0.00188832
O        6.69308004       4.57548236       4.52440268        8      -0.00000000       0.00130386      -0.00188832
O        5.50555241       1.69537289       3.56503579        9      -0.00109003       0.00201932      -0.00000000
