10
Lattice="5.985210559001112 0.013356538191097833 0.009222501935247429 3.2953819181054245 4.996336842779384 0.009222501935249872 3.2953819181054276 1.778857656300152 4.668954094835258" Properties=species:S:1:pos:R:3:spacegroup_kinds:I:1:forces:R:3 spacegroup="P 1" unit_cell=conventional occupancy="_JSON {\"0\": {\"In\": 1}, \"1\": {\"In\": 1}, \"2\": {\"In\": 1}, \"3\": {\"In\": 1}, \"4\": {\"O\": 1}, \"5\": {\"O\": 1}, \"6\": {\"O\": 1}, \"7\": {\"O\": 1}, \"8\": {\"O\": 1}, \"9\": {\"O\": 1}}" n_minim_iter=1 energy=-11287.41926115161 stress="0.07922083546092717 -0.0010116470554339804 -0.0006985280746214385 -0.0010116470554339804 0.08054884872040068 -0.0003770676787544958 -0.0006985280746214385 -0.0003770676787544958 0.08083457906472487" free_energy=-11287.41926115161 pbc="T T T"
In      10.76617320       5.81161459       4.01283821        0      -0.14141518      -0.07633636      -0.05270919
In       8.09778841       4.37121198       3.01826045        1       0.14141518       0.07633636       0.05270919
In       4.47818600       2.41733907       1.66913866        2      -0.14141518      -0.07633636      -0.05270919
In       1.80980121       0.97693646       0.67456090        3       0.14141518       0.07633636       0.05270919
O        6.13659888       2.35563987       0.23245364        4       0.00000000       0.00236314      -0.00342243
O        7.23936186       5.21147827       1.18107228        5      -0.00197560       0.00365985      -0.00000000
O        8.32921782       2.23557488       2.56693069        6       0.00197560      -0.00129671      -0.00342243
O        4.24675659       4.55297617       2.12046842        7      -0.00197560       0.00129671       0.00342243
O        6.43937552       4.43291118       4.45494546        8       0.00000000      -0.00236314       0.00342243
O        5.33661254       1.57707278       3.50632682        9       0.00197560      -0.00365985       0.00000000
10
Lattice="5.996952202236668 0.025407350593280864 0.017543418561275455 3.311899353503172 4.99954037103819 0.017543418561277876 3.311899353503176 1.7877738205414786 4.669001655574989" Properties=species:S:1:pos:R:3:spacegroup_kinds:I:1:forces:R:3 spacegroup="P 1" unit_cell=conventional occupancy="_JSON {\"0\": {\"In\": 1}, \"1\": {\"In\": 1}, \"2\": {\"In\": 1}, \"3\": {\"In\": 1}, \"4\": {\"O\": 1}, \"5\": {\"O\": 1}, \"6\": {\"O\": 1}, \"7\": {\"O\": 1}, \"8\": {\"O\": 1}, \"9\": {\"O\": 1}}" n_minim_iter=2 energy=-11287.420256835909 stress="0.08127642574074674 0.002141576986628032 0.001478728824722876 0.002141576986628032 0.07846512655967004 0.000798222523625419 0.001478728824722876 0.000798222523625419 0.0778602579143188" free_energy=-11287.420256835909 pbc="T T T"
In      10.80247854       5.83121233       4.02637017        0      -0.16071737      -0.08675575      -0.05990362
In       8.12864783       4.38787000       3.02976257        1       0.16071737       0.08675575       0.05990362
In       4.49210308       2.42485156       1.67432592        2      -0.16071737      -0.08675575      -0.05990362
In       1.81827238       0.98150923       0.67771833        3       0.16071736       0.08675575       0.05990362
O        6.15366383       2.36658429       0.24241373        4       0.00000000       0.00204679      -0.00296427
O        7.26562488       5.22340790       1.19356554        5      -0.00171112       0.00316990       0.00000000
O        8.35360214       2.25271755       2.57691455        6       0.00171112      -0.00112312      -0.00296427
O        4.26714878       4.56000400       2.12717394        7      -0.00171112       0.00112312       0.00296427
O        6.46708709       4.44613726       4.46167477        8       0.00000000      -0.00204679       0.00296427
O        5.35512604       1.58931365       3.51052295        9       0.00171112      -0.00316990       0.00000000
10
Lattice="5.99218536861339 0.020519667640256443 0.014168542163796469 3.305197560442005 4.998237252775494 0.014168542163798892 3.3051975604420094 1.7841561712995813 4.668978811157032" Properties=species:S:1:pos:R:3:spacegroup_kinds:I:1:forces:R:3 spacegroup="P 1" unit_cell=conventional occupancy="_JSON {\"0\": {\"In\": 1}, \"1\": {\"In\": 1}, \"2\": {\"In\": 1}, \"3\": {\"In\": 1}, \"4\": {\"O\": 1}, \"5\": {\"O\": 1}, \"6\": {\"O\": 1}, \"7\": {\"O\": 1}, \"8\": {\"O\": 1}, \"9\": {\"O\": 1}}" n_minim_iter=3 energy=-11287.430044008674 stress="0.07090548497046771 -0.0026494034309357596 -0.0018293758378533757 -0.0026494034309357596 0.07438342003140326 -0.000987502895627015 -0.0018293758378533757 -0.000987502895627015 0.07513171957132675" free_energy=-11287.430044008674 pbc="T T T"
In      10.76663253       5.81186254       4.01300941        0      -0.00933201      -0.00503745      -0.00347829
In       8.13723821       4.39250711       3.03296443        1       0.00933201       0.00503745       0.00347829
In       4.46534229       2.41040599       1.66435147        2      -0.00933201      -0.00503745      -0.00347829
In       1.83594797       0.99105056       0.68430649        3       0.00933201       0.00503745       0.00347829
O        6.14673781       2.36246550       0.23790760        4       0.00000000      -0.03971609       0.05751904
O        7.25469824       5.21906401       1.18849752        5       0.03320285      -0.06150917       0.00000000
O        8.34397494       2.24558632       2.57239700        6      -0.03320285       0.02179308       0.05751904
O        4.25860556       4.55732678       2.12491890        7       0.03320285      -0.02179308      -0.05751904
O        6.45584269       4.44044760       4.45940830        8       0.00000000       0.03971609      -0.05751904
O        5.34788226       1.58384910       3.50881838        9      -0.03320285       0.06150917      -0.00000000
10
Lattice="6.002143814596101 0.030723371338097622 0.021214056184996367 3.319192324465963 5.000963568138333 0.02121405618499877 3.3191923244659662 1.7917105894977736 4.669031999195142" Properties=species:S:1:pos:R:3:spacegroup_kinds:I:1:forces:R:3 spacegroup="P 1" unit_cell=conventional occupancy="_JSON {\"0\": {\"In\": 1}, \"1\": {\"In\": 1}, \"2\": {\"In\": 1}, \"3\": {\"In\": 1}, \"4\": {\"O\": 1}, \"5\": {\"O\": 1}, \"6\": {\"O\": 1}, \"7\": {\"O\": 1}, \"8\": {\"O\": 1}, \"9\": {\"O\": 1}}" n_minim_iter=4 energy=-11287.432614599953 stress="0.07041442448179303 -0.0008895071538453441 -0.0006141922108776055 -0.0008895071538453441 0.07158210175280734 -0.000331542894997696 -0.0006141922108776055 -0.000331542894997696 0.07183333484055489" free_energy=-11287.432614599953 pbc="T T T"
In      10.79312685       5.82616426       4.02288455        0      -0.00788847      -0.00425822      -0.00294024
In       8.16766586       4.40893205       3.04430562        1       0.00788847       0.00425822       0.00294024
In       4.47286262       2.41446549       1.66715449        2      -0.00788847      -0.00425822      -0.00294024
In       1.84740162       0.99723328       0.68857557        3       0.00788847       0.00425822       0.00294024
O        6.16120403       2.37124292       0.24705993        4      -0.00000000      -0.04226183       0.06120593
O        7.27737033       5.22841137       1.19907909        5       0.03533110      -0.06545183      -0.00000000
O        8.36423005       2.26037970       2.58157593        6      -0.03533110       0.02318999       0.06120593
O        4.27629842       4.56301785       2.12988418        7       0.03533110      -0.02318999      -0.06120593
O        6.47932445       4.45215462       4.46440018        8       0.00000000       0.04226184      -0.06120593
O        5.36315815       1.59498617       3.51238103        9      -0.03533110       0.06545183       0.00000000
10
Lattice="6.010441916612161 0.039204818897500174 0.027070376543699624 3.330836206765656 5.003246867234544 0.027070376543701986 3.3308362067656585 1.7979959942528538 4.669092248438568" Properties=species:S:1:pos:R:3:spacegroup_kinds:I:1:forces:R:3 spacegroup="P 1" unit_cell=conventional occupancy="_JSON {\"0\": {\"In\": 1}, \"1\": {\"In\": 1}, \"2\": {\"In\": 1}, \"3\": {\"In\": 1}, \"4\": {\"O\": 1}, \"5\": {\"O\": 1}, \"6\": {\"O\": 1}, \"7\": {\"O\": 1}, \"8\": {\"O\": 1}, \"9\": {\"O\": 1}}" n_minim_iter=5 energy=-11287.433964535476 stress="0.06882722362511919 6.51460320994313e-05 4.498240454439243e-05 6.51460320994313e-05 0.06874170490093819 2.4281640726014332e-05 4.498240454439243e-05 2.4281640726014332e-05 0.06872330502040518" free_energy=-11287.433964535476 pbc="T T T"
In      10.81366654       5.83725165       4.03054024        0       0.00002492       0.00001345       0.00000929
In       8.19450496       4.42341988       3.05430927        1      -0.00002492      -0.00001345      -0.00000929
In       4.47760938       2.41702781       1.66892374        2       0.00002492       0.00001345       0.00000929
In       1.85844780       1.00319604       0.69269277        3      -0.00002492      -0.00001345      -0.00000929
O        6.17324955       2.37782359       0.25571572        4       0.00000000      -0.03822580       0.05536072
O        7.29684508       5.23507873       1.20787863        5       0.03195696      -0.05920113       0.00000000
O        8.38049022       2.27308063       2.59026184        6      -0.03195696       0.02097533       0.05536072
O        4.29162412       4.56736707       2.13297116        7       0.03195696      -0.02097533      -0.05536072
O        6.49886479       4.46262410       4.46751729        8       0.00000000       0.03822580      -0.05536072
O        5.37526926       1.60536896       3.51535438        9      -0.03195696       0.05920113       0.00000000
10
Lattice="6.014842392867707 0.04369483453719465 0.03017066924933423 3.3370045196792235 5.004461917653508 0.030170669249336625 3.337004519679226 1.801325669211762 4.669130024744001" Properties=species:S:1:pos:R:3:spacegroup_kinds:I:1:forces:R:3 spacegroup="P 1" unit_cell=conventional occupancy="_JSON {\"0\": {\"In\": 1}, \"1\": {\"In\": 1}, \"2\": {\"In\": 1}, \"3\": {\"In\": 1}, \"4\": {\"O\": 1}, \"5\": {\"O\": 1}, \"6\": {\"O\": 1}, \"7\": {\"O\": 1}, \"8\": {\"O\": 1}, \"9\": {\"O\": 1}}" n_minim_iter=6 energy=-11287.434627923525 stress="0.06794343307813674 0.0005154066452301545 0.00035588105707674633 0.0005154066452301545 0.06726684645848464 0.00019210571336571378 0.00035588105707674633 0.00019210571336571378 0.06712127465235275" free_energy=-11287.434627923525 pbc="T T T"
In      10.82437534       5.84303229       4.03453169        0       0.00174413       0.00094149       0.00065008
In       8.20890182       4.43119136       3.05967536        1      -0.00174413      -0.00094149      -0.00065008
In       4.47994962       2.41829108       1.66979601        2       0.00174413       0.00094149       0.00065008
In       1.86447611       1.00645014       0.69493968        3      -0.00174413      -0.00094149      -0.00065008
O        6.17963406       2.38054435       0.26140759        4       0.00000000      -0.02710583       0.03925617
O        7.30780429       5.23742869       1.21253851        5       0.02266061      -0.04197940      -0.00000000
O        8.38846835       2.28022749       2.59597260        6      -0.02266061       0.01487356       0.03925617
O        4.30038309       4.56925494       2.13349877        7       0.02266061      -0.01487356      -0.03925617
O        6.50921738       4.46893808       4.46806378        8       0.00000000       0.02710583      -0.03925617
O        5.38104715       1.61205375       3.51693286        9      -0.02266061       0.04197940      -0.00000000
10
Lattice="6.016148377383397 0.04502637268465662 0.031090077629419885 3.3388343144430617 5.004823083149658 0.03109007762942227 3.338834314443064 1.8023133982537973 4.669142009087902" Properties=species:S:1:pos:R:3:spacegroup_kinds:I:1:forces:R:3 spacegroup="P 1" unit_cell=conventional occupancy="_JSON {\"0\": {\"In\": 1}, \"1\": {\"In\": 1}, \"2\": {\"In\": 1}, \"3\": {\"In\": 1}, \"4\": {\"O\": 1}, \"5\": {\"O\": 1}, \"6\": {\"O\": 1}, \"7\": {\"O\": 1}, \"8\": {\"O\": 1}, \"9\": {\"O\": 1}}" n_minim_iter=7 energy=-11287.435075651954 stress="0.06739157531417156 0.0005015297727393007 0.00034629927214372894 0.0005015297727393007 0.0667332051920775 0.00018693344470340094 0.00034629927214372894 0.00018693344470340094 0.06659155275516085" free_energy=-11287.435075651954 pbc="T T T"
In      10.82684719       5.84436660       4.03545301        0       0.00182647       0.00098594       0.00068078
In       8.21387833       4.43387769       3.06153024        1      -0.00182648      -0.00098594      -0.00068078
In       4.47993868       2.41828517       1.66979193        2       0.00182647       0.00098594       0.00068078
In       1.86696983       1.00779626       0.69586916        3      -0.00182648      -0.00098594      -0.00068078
O        6.18152845       2.38023904       0.26470686        4       0.00000000      -0.01116075       0.01616362
O        7.31198562       5.23640339       1.21392062        5       0.00933044      -0.01728490       0.00000000
O        8.38990559       2.28295779       2.59927787        6      -0.00933044       0.00612415       0.01616362
O        4.30391143       4.56920508       2.13204430        7       0.00933044      -0.00612415      -0.01616362
O        6.51228857       4.47192383       4.46661531        8      -0.00000000       0.01116075      -0.01616362
O        5.38183140       1.61575947       3.51740155        9      -0.00933044       0.01728490      -0.00000000
10
Lattice="6.014663026005377 0.043511921670782626 0.030044370485363195 3.3367531810952014 5.00441233434804 0.030044370485365623 3.336753181095204 1.801189995843508 4.669128406377987" Properties=species:S:1:pos:R:3:spacegroup_kinds:I:1:forces:R:3 spacegroup="P 1" unit_cell=conventional occupancy="_JSON {\"0\": {\"In\": 1}, \"1\": {\"In\": 1}, \"2\": {\"In\": 1}, \"3\": {\"In\": 1}, \"4\": {\"O\": 1}, \"5\": {\"O\": 1}, \"6\": {\"O\": 1}, \"7\": {\"O\": 1}, \"8\": {\"O\": 1}, \"9\": {\"O\": 1}}" n_minim_iter=8 energy=-11287.43522089753 stress="0.0673826809689397 0.00019822768006157073 0.00013687343051772567 0.00019822768006157073 0.06712246278265188 7.388472125163083e-05 0.00013687343051772567 7.388472125163083e-05 0.06706647516961638" free_energy=-11287.43522089753 pbc="T T T"
In      10.82248305       5.84201083       4.03382638        0       0.00045077       0.00024333       0.00016801
In       8.20977104       4.43166056       3.05999934        1      -0.00045077      -0.00024333      -0.00016801
In       4.47839836       2.41745370       1.66921781        2       0.00045077       0.00024333       0.00016801
In       1.86568634       1.00710343       0.69539077        3      -0.00045077      -0.00024333      -0.00016801
O        6.17937386       2.37811639       0.26453145        4      -0.00000000      -0.00103947       0.00150542
O        7.30929481       5.23374434       1.21234866        5       0.00086900      -0.00160985      -0.00000000
O        8.38620610       2.28120774       2.59909565        6      -0.00086900       0.00057038       0.00150542
O        4.30196330       4.56790652       2.13012150        7       0.00086900      -0.00057038      -0.00150542
O        6.50879553       4.47099788       4.46468570        8      -0.00000000       0.00103947      -0.00150542
O        5.37887459       1.61536992       3.51686849        9      -0.00086900       0.00160985      -0.00000000
