10
Lattice="5.747131724318227 -0.02794706158974847 -0.019297053316388594 3.1302128451471356 4.8199659375344535 -0.01929705331638845 3.1302128451471347 1.689698864597866 4.514129125560742" Properties=species:S:1:pos:R:3:spacegroup_kinds:I:1:forces:R:3 spacegroup="P 1" unit_cell=conventional occupancy="_JSON {\"0\": {\"In\": 1}, \"1\": {\"In\": 1}, \"2\": {\"In\": 1}, \"3\": {\"In\": 1}, \"4\": {\"O\": 1}, \"5\": {\"O\": 1}, \"6\": {\"O\": 1}, \"7\": {\"O\": 1}, \"8\": {\"O\": 1}, \"9\": {\"O\": 1}}" n_minim_iter=6 energy=-11287.514767648288 stress="-0.05408594920074333 1.057589824506287e-05 7.30250794022186e-06 1.057589824506287e-05 -0.05409983243228582 3.9419176897930986e-06 7.30250794022186e-06 3.9419176897930986e-06 -0.054102819496496084" free_energy=-11287.514767648288 pbc="T T T"
In      10.30901137       5.56483718       3.84244187        0      -0.00536867      -0.00289803      -0.00200105
In       7.70232476       4.15773944       2.87086066        1       0.00536867       0.00289803       0.00200105
In       4.30523266       2.32397831       1.60467436        2      -0.00536867      -0.00289803      -0.00200105
In       1.69854605       0.91688057       0.63309315        3       0.00536867       0.00289803       0.00200105
O        5.87545522       2.24831086       0.17966534        4      -0.00000000       0.00204778      -0.00296571
O        6.90396771       5.01049366       1.09958670        5      -0.00171195       0.00317144      -0.00000000
O        7.97715558       2.09910551       2.43672990        6       0.00171195      -0.00112366      -0.00296571
O        4.03040184       4.38261224       2.03880512        7      -0.00171195       0.00112366       0.00296571
O        6.13210220       4.23340689       4.29586968        8       0.00000000      -0.00204778       0.00296571
O        5.10358972       1.47122409       3.37594832        9       0.00171195      -0.00317144       0.00000000
