10
Lattice="5.283118812021037 -0.18199949014451372 -0.12566809049303815 2.746810225112239 4.516580762431049 -0.12566809049303515 2.7468102251122395 1.4827369090359095 4.268112640396578" Properties=species:S:1:pos:R:3:spacegroup_kinds:I:1:forces:R:3 spacegroup="P 1" unit_cell=conventional occupancy="_JSON {\"0\": {\"In\": 1}, \"1\": {\"In\": 1}, \"2\": {\"In\": 1}, \"3\": {\"In\": 1}, \"4\": {\"O\": 1}, \"5\": {\"O\": 1}, \"6\": {\"O\": 1}, \"7\": {\"O\": 1}, \"8\": {\"O\": 1}, \"9\": {\"O\": 1}}" n_minim_iter=7 energy=-11281.040872743455 stress="-0.7244173627080395 -6.857857388435088e-08 -4.730592355814049e-08 -6.857857388435088e-08 -0.7244172727578531 -2.5561043572845937e-08 -4.730592355814049e-08 -2.5561043572845937e-08 -0.7244172533675115" free_energy=-11281.040872743455 pbc="T T T"
In       9.27332863       5.00577234       3.45641546        0       0.00007075       0.00003819       0.00002637
In       6.89178025       3.72020494       2.56874923        1      -0.00007075      -0.00003819      -0.00002637
In       3.88495900       2.09711325       1.44802723        2       0.00007075       0.00003819       0.00002637
In       1.50341062       0.81154584       0.56036100        3      -0.00007075      -0.00003819      -0.00002637
O        5.33574422       1.99486356       0.02673789        4      -0.00000000      -0.00002352       0.00003407
O        6.18118395       4.59969031       0.87852602        5       0.00001967      -0.00003643      -0.00000000
O        7.23711470       1.75816188       2.16079421        6      -0.00001967       0.00001291       0.00003407
O        3.53962455       4.05915630       1.85598225        7       0.00001967      -0.00001291      -0.00003407
O        5.44099503       3.82245462       3.99003857        8      -0.00000000       0.00002352      -0.00003407
O        4.59555530       1.21762787       3.13825043        9      -0.00001967       0.00003643       0.00000000
