10
Lattice="6.260995155330621 0.06201159715130927 0.04281813644773252 3.4873868227179012 5.200196046495575 0.04281813644773612 3.4873868227179075 1.8825025154105919 4.847685694666049" Properties=species:S:1:pos:R:3:spacegroup_kinds:I:1:forces:R:3 spacegroup="P 1" unit_cell=conventional occupancy="_JSON {\"0\": {\"In\": 1}, \"1\": {\"In\": 1}, \"2\": {\"In\": 1}, \"3\": {\"In\": 1}, \"4\": {\"O\": 1}, \"5\": {\"O\": 1}, \"6\": {\"O\": 1}, \"7\": {\"O\": 1}, \"8\": {\"O\": 1}, \"9\": {\"O\": 1}}" n_minim_iter=5 energy=-11285.113635443287 stress="0.23403822870299912 0.00016375359586152523 0.00011306956497356382 0.00016375359586152523 0.23382326547362817 6.103529289342336e-05 0.00011306956497356382 6.103529289342336e-05 0.23377701478803864" free_energy=-11285.113635443287 pbc="T T T"
In      11.19386697       6.04248505       4.17225102        0       0.00025908       0.00013985       0.00009657
In       8.65978624       4.67458020       3.22773194        1      -0.00025908      -0.00013985      -0.00009657
In       4.57598257       2.47012997       1.70559003        2       0.00025908       0.00013985       0.00009657
In       2.04190184       1.10222512       0.76107095        3      -0.00025908      -0.00013985      -0.00009656
O        6.43943978       2.49550690       0.27235381        4      -0.00000000      -0.00007659       0.00011093
O        7.61605132       5.46781588       1.27614863        5       0.00006403      -0.00011862       0.00000000
O        8.75021507       2.38622365       2.69619665        6      -0.00006403       0.00004203       0.00011093
O        4.48555374       4.75848653       2.23712532        7       0.00006403      -0.00004203      -0.00011093
O        6.79632903       4.64920327       4.66096817        8      -0.00000000       0.00007660      -0.00011093
O        5.61971749       1.67689429       3.65717334        9      -0.00006403       0.00011863       0.00000000
