10
Lattice="5.639900532179521 -0.08909296707198511 -0.06151744183132335 3.0202544656358192 4.7638722204176975 -0.06151744183131802 3.020254465635823 1.6303429810829926 4.476633187134089" Properties=species:S:1:pos:R:3:spacegroup_kinds:I:1:forces:R:3 spacegroup="P 1" unit_cell=conventional occupancy="_JSON {\"0\": {\"In\": 1}, \"1\": {\"In\": 1}, \"2\": {\"In\": 1}, \"3\": {\"In\": 1}, \"4\": {\"O\": 1}, \"5\": {\"O\": 1}, \"6\": {\"O\": 1}, \"7\": {\"O\": 1}, \"8\": {\"O\": 1}, \"9\": {\"O\": 1}}" n_minim_iter=1 energy=-11287.14895760947 stress="-0.12395803979639479 0.006463235476425712 0.0044627732800369396 0.006463235476425712 -0.13244248318346769 0.0024090192539688027 0.0044627732800369396 0.0024090192539688027 -0.13426796435239888" free_energy=-11287.14895760947 pbc="T T T"
In      10.03669985       5.41784255       3.74094415        0       0.00219411       0.00118439       0.00081781
In       7.48391436       4.03984081       2.78945331        1      -0.00219411      -0.00118439      -0.00081780
In       4.19649512       2.26528143       1.56414500        2       0.00219412       0.00118439       0.00081781
In       1.64370962       0.88727969       0.61265416        3      -0.00219412      -0.00118439      -0.00081780
O        5.74005264       2.17479679       0.12632181        4      -0.00000000       0.06207120      -0.08989495
O        6.71257623       4.90959546       1.02688214        5      -0.05189183       0.09613102       0.00000000
O        7.78778350       1.99404301       2.36463841        6       0.05189183      -0.03405982      -0.08989495
O        3.89262597       4.31107923       1.98895990        7      -0.05189183       0.03405982       0.08989495
O        5.94035684       4.13032545       4.22727650        8      -0.00000000      -0.06207120       0.08989495
O        4.96783324       1.39552678       3.32671617        9       0.05189183      -0.09613102       0.00000000
10
Lattice="5.616314895034989 -0.11415298009186378 -0.07882102867894634 2.986362215463596 4.757905486777466 -0.07882102867894099 2.9863622154636027 1.612047836481739 4.477184287983201" Properties=species:S:1:pos:R:3:spacegroup_kinds:I:1:forces:R:3 spacegroup="P 1" unit_cell=conventional occupancy="_JSON {\"0\": {\"In\": 1}, \"1\": {\"In\": 1}, \"2\": {\"In\": 1}, \"3\": {\"In\": 1}, \"4\": {\"O\": 1}, \"5\": {\"O\": 1}, \"6\": {\"O\": 1}, \"7\": {\"O\": 1}, \"8\": {\"O\": 1}, \"9\": {\"O\": 1}}" n_minim_iter=2 energy=-11287.157536541354 stress="-0.12562059172552267 -4.163391288003376e-05 -2.874766997815948e-05 -4.163391288003376e-05 -0.1255659378895969 -1.5518041786122986e-05 -2.874766997815948e-05 -1.5518041786122986e-05 -0.1255541788137964" free_energy=-11287.157536541354 pbc="T T T"
In       9.95819986       5.37546801       3.71168512        0       0.07038140       0.03799210       0.02623301
In       7.42535914       4.00823252       2.76762823        1      -0.07038140      -0.03799210      -0.02623301
In       4.16368019       2.24756783       1.55191401        2       0.07038140       0.03799210       0.02623301
In       1.63083948       0.88033235       0.60785711        3      -0.07038140      -0.03799210      -0.02623301
O        5.70541728       2.15281584       0.10498571        4      -0.00000000       0.03566905      -0.05165789
O        6.65858746       4.88621121       1.00106453        5      -0.02981950       0.05524143       0.00000000
O        7.73860933       1.95845490       2.34357785        6       0.02981950      -0.01957238      -0.05165789
O        3.85043001       4.29734545       1.97596438        7      -0.02981950       0.01957239       0.05165789
O        5.88362205       4.10298451       4.21455653        8       0.00000000      -0.03566905       0.05165789
O        4.93045188       1.36958915       3.31847770        9       0.02981950      -0.05524143       0.00000000
10
Lattice="5.614462150218601 -0.1161295335086292 -0.08018581103874943 2.983693165397422 4.757441160913175 -0.08018581103874405 2.9836931653974292 1.610607074754191 4.477233634131077" Properties=species:S:1:pos:R:3:spacegroup_kinds:I:1:forces:R:3 spacegroup="P 1" unit_cell=conventional occupancy="_JSON {\"0\": {\"In\": 1}, \"1\": {\"In\": 1}, \"2\": {\"In\": 1}, \"3\": {\"In\": 1}, \"4\": {\"O\": 1}, \"5\": {\"O\": 1}, \"6\": {\"O\": 1}, \"7\": {\"O\": 1}, \"8\": {\"O\": 1}, \"9\": {\"O\": 1}}" n_minim_iter=3 energy=-11287.159540089167 stress="-0.12448576921464888 -0.00021751687550846985 -0.00015019230350213795 -0.00021751687550846985 -0.12420022970754191 -8.107431449721683e-05 -0.00015019230350213795 -8.107431449721683e-05 -0.12413879402729922" free_energy=-11287.159540089167 pbc="T T T"
In       9.95700718       5.37482419       3.71124058        0      -0.00855582      -0.00461846      -0.00318898
In       7.41576555       4.00305387       2.76405245        1       0.00855582       0.00461846       0.00318898
In       4.16608294       2.24886484       1.55280957        2      -0.00855582      -0.00461846      -0.00318898
In       1.62484131       0.87709452       0.60562144        3       0.00855582       0.00461846       0.00318898
O        5.70269320       2.15370283       0.09951201        4      -0.00000000       0.01124385      -0.01628397
O        6.65214985       4.88842751       0.99902969        5      -0.00939992       0.01741360      -0.00000000
O        7.73692971       1.95421435       2.33812882        6       0.00939992      -0.00616975      -0.01628397
O        3.84491878       4.29770436       1.97873319        7      -0.00939992       0.00616975       0.01628397
O        5.87915529       4.09821589       4.21735001        8      -0.00000000      -0.01124385       0.01628397
O        4.92969864       1.36349121       3.31783232        9       0.00939992      -0.01741360       0.00000000
10
Lattice="5.615258165845837 -0.11528018048786431 -0.07959934471299622 2.984840019921582 4.75764057538883 -0.07959934471299082 2.984840019921589 1.6112261504794518 4.477212323787656" Properties=species:S:1:pos:R:3:spacegroup_kinds:I:1:forces:R:3 spacegroup="P 1" unit_cell=conventional occupancy="_JSON {\"0\": {\"In\": 1}, \"1\": {\"In\": 1}, \"2\": {\"In\": 1}, \"3\": {\"In\": 1}, \"4\": {\"O\": 1}, \"5\": {\"O\": 1}, \"6\": {\"O\": 1}, \"7\": {\"O\": 1}, \"8\": {\"O\": 1}, \"9\": {\"O\": 1}}" n_minim_iter=4 energy=-11287.159603225695 stress="-0.12431162788437604 -2.5381424760033383e-05 -1.7525530078158304e-05 -2.5381424760033383e-05 -0.12427830909242657 -9.460340981845338e-06 -1.7525530078158304e-05 -9.460340981845338e-06 -0.12427114037428313" free_energy=-11287.159603225695 pbc="T T T"
In       9.95989692       5.37638409       3.71231766        0      -0.01232886      -0.00665516      -0.00459529
In       7.41751039       4.00399574       2.76470279        1       0.01232886       0.00665516       0.00459529
In       4.16742782       2.24959081       1.55331084        2      -0.01232886      -0.00665516      -0.00459529
In       1.62504129       0.87720247       0.60569598        3       0.01232886       0.00665516       0.00459529
O        5.70386364       2.15484262       0.09966134        4      -0.00000000       0.00737701      -0.01068379
O        6.65364446       4.88983061       0.99990407        5      -0.00616722       0.01142493      -0.00000000
O        7.73892284       1.95520192       2.33826750        6       0.00616722      -0.00404792      -0.01068379
O        3.84601538       4.29838463       1.97974614        7      -0.00616722       0.00404793       0.01068379
O        5.88107458       4.09874394       4.21835230        8       0.00000000      -0.00737701       0.01068379
O        4.93129375       1.36375594       3.31810957        9       0.00616722      -0.01142493       0.00000000
10
Lattice="5.615874742802774 -0.11462243875111591 -0.07914518328634002 2.985728224538629 4.757795119538955 -0.07914518328633458 2.9857282245386365 1.6117056061609663 4.4771959303357995" Properties=species:S:1:pos:R:3:spacegroup_kinds:I:1:forces:R:3 spacegroup="P 1" unit_cell=conventional occupancy="_JSON {\"0\": {\"In\": 1}, \"1\": {\"In\": 1}, \"2\": {\"In\": 1}, \"3\": {\"In\": 1}, \"4\": {\"O\": 1}, \"5\": {\"O\": 1}, \"6\": {\"O\": 1}, \"7\": {\"O\": 1}, \"8\": {\"O\": 1}, \"9\": {\"O\": 1}}" n_minim_iter=5 energy=-11287.159644022182 stress="-0.12420359481567092 6.292682146410071e-05 4.3450077366713864e-05 6.292682146410071e-05 -0.12428620037630941 2.345454548354674e-05 4.3450077366713864e-05 2.345454548354674e-05 -0.12430397348904632" free_energy=-11287.159644022182 pbc="T T T"
In       9.96183502       5.37743028       3.71304004        0      -0.00797763      -0.00430635      -0.00297347
In       7.41916178       4.00488716       2.76531831        1       0.00797763       0.00430635       0.00297347
In       4.16816942       2.24999114       1.55358726        2      -0.00797763      -0.00430635      -0.00297347
In       1.62549618       0.87744802       0.60586553        3       0.00797763       0.00430635       0.00297347
O        5.70477017       2.15581890       0.09964148        4       0.00000000       0.00228468      -0.00330880
O        6.65472384       4.89106221       1.00058121        5      -0.00191000       0.00353833      -0.00000000
O        7.74054473       1.95591541       2.33823945        6       0.00191000      -0.00125365      -0.00330880
O        3.84678647       4.29896289       1.98066612        7      -0.00191000       0.00125365       0.00330880
O        5.88256103       4.09905940       4.21926408        8      -0.00000000      -0.00228468       0.00330880
O        4.93260736       1.36381609       3.31832436        9       0.00191000      -0.00353833      -0.00000000
