10
Lattice="5.937326823207541 0.013249681307859765 0.009148718758923074 3.269017733328642 4.956364435633985 0.009148718758924658 3.2690177333286443 1.7646261853787877 4.631600861877869" Properties=species:S:1:pos:R:3:spacegroup_kinds:I:1:forces:R:3 spacegroup="P 1" unit_cell=conventional occupancy="_JSON {\"0\": {\"In\": 1}, \"1\": {\"In\": 1}, \"2\": {\"In\": 1}, \"3\": {\"In\": 1}, \"4\": {\"O\": 1}, \"5\": {\"O\": 1}, \"6\": {\"O\": 1}, \"7\": {\"O\": 1}, \"8\": {\"O\": 1}, \"9\": {\"O\": 1}}" n_minim_iter=6 energy=-11287.619267596669 stress="0.03988761646813013 1.0481320234176765e-05 7.2371993629201284e-06 1.0481320234176765e-05 0.039873857401188116 3.906657850844441e-06 7.2371993629201284e-06 3.906657850844441e-06 0.03987089704066978" free_energy=-11287.619267596669 pbc="T T T"
In      10.68004012       5.76511968       3.98073413        0      -0.00020714      -0.00011181      -0.00007721
In       8.03300332       4.33624078       2.99411333        1       0.00020714       0.00011181       0.00007721
In       4.44235898       2.39799953       1.65578498        2      -0.00020714      -0.00011181      -0.00007721
In       1.79532218       0.96912063       0.66916418        3       0.00020714       0.00011181       0.00007721
O        6.08750399       2.33679394       0.23059393        4       0.00000000       0.00004071      -0.00005896
O        7.18144449       5.16978466       1.17162330        5      -0.00003403       0.00006305      -0.00000000
O        8.26258122       2.21768952       2.54639436        6       0.00003403      -0.00002234      -0.00005896
O        4.21278108       4.51655080       2.10350394        7      -0.00003403       0.00002234       0.00005896
O        6.38785831       4.39744637       4.41930437        8      -0.00000000      -0.00004071       0.00005896
O        5.29391781       1.56445565       3.47827501        9       0.00003403      -0.00006305      -0.00000000
