10
Lattice="5.7638003266615225 -0.010657132038740524 -0.007358599919024877 3.1538137386972425 4.824413610138675 -0.007358599919024655 3.15381373869724 1.7024387021130465 4.5140584063824125" Properties=species:S:1:pos:R:3:spacegroup_kinds:I:1:forces:R:3 spacegroup="P 1" unit_cell=conventional occupancy="_JSON {\"0\": {\"In\": 1}, \"1\": {\"In\": 1}, \"2\": {\"In\": 1}, \"3\": {\"In\": 1}, \"4\": {\"O\": 1}, \"5\": {\"O\": 1}, \"6\": {\"O\": 1}, \"7\": {\"O\": 1}, \"8\": {\"O\": 1}, \"9\": {\"O\": 1}}" n_minim_iter=1 energy=-11287.511217822946 stress="-0.054174682219562426 0.002367170073183615 0.0016344976715629842 0.002367170073183615 -0.0572821228545487 0.0008823070490542137 0.0016344976715629842 0.0008823070490542137 -0.0579507081812664" free_energy=-11287.511217822946 pbc="T T T"
In      10.35494679       5.58963326       3.85956322        0       0.03725413       0.02010990       0.01388560
In       7.75219493       4.18465952       2.88944859        1      -0.03725413      -0.02010990      -0.01388560
In       4.31923289       2.33153567       1.60989262        2       0.03725413       0.02010990       0.01388560
In       1.71648102       0.92656193       0.63977799        3      -0.03725413      -0.02010990      -0.01388560
O        5.89975712       2.26096215       0.19826697        4       0.00000000       0.02172498      -0.03146332
O        6.94392657       5.02283751       1.11747670        5      -0.01816219       0.03364595      -0.00000000
O        8.00940140       2.12527103       2.45529617        6       0.01816219      -0.01192097      -0.03146332
O        4.06202641       4.39092416       2.04404504        7      -0.01816219       0.01192097       0.03146332
O        6.17167069       4.25523304       4.30107424        8       0.00000000      -0.02172498       0.03146332
O        5.12750124       1.49335768       3.38186451        9       0.01816219      -0.03364595      -0.00000000
10
Lattice="5.7518370475289196 -0.023057795994358074 -0.015921084126595157 3.1368822091980832 4.821216764355121 -0.01592108412659497 3.136882209198081 1.6932990085567483 4.514102683528522" Properties=species:S:1:pos:R:3:spacegroup_kinds:I:1:forces:R:3 spacegroup="P 1" unit_cell=conventional occupancy="_JSON {\"0\": {\"In\": 1}, \"1\": {\"In\": 1}, \"2\": {\"In\": 1}, \"3\": {\"In\": 1}, \"4\": {\"O\": 1}, \"5\": {\"O\": 1}, \"6\": {\"O\": 1}, \"7\": {\"O\": 1}, \"8\": {\"O\": 1}, \"9\": {\"O\": 1}}" n_minim_iter=2 energy=-11287.512787738715 stress="-0.055650981426951886 -0.00010570576953563508 -7.298834895140457e-05 -0.00010570576953563508 -0.055512218941361144 -3.939934280235685e-05 -7.298834895140457e-05 -3.939934280235685e-05 -0.05548236332377841" free_energy=-11287.512787738715 pbc="T T T"
In      10.31590497       5.56855837       3.84501130        0       0.07320659       0.03951715       0.02728604
In       7.72249724       4.16862861       2.87837948        1      -0.07320659      -0.03951715      -0.02728604
In       4.30310424       2.32282938       1.60388104        2       0.07320659       0.03951715       0.02728604
In       1.70969650       0.92289962       0.63724922        3      -0.07320659      -0.03951715      -0.02728604
O        5.88231889       2.24994790       0.18773089        4      -0.00000000       0.01169771      -0.01694127
O        6.91687694       5.01097679       1.10464405        5      -0.00977934       0.01811650      -0.00000000
O        7.98464306       2.10756459       2.44478223        6       0.00977934      -0.00641879      -0.01694127
O        4.04095841       4.38389340       2.03747829        7      -0.00977934       0.00641879       0.01694127
O        6.14328258       4.24151009       4.29452963        8      -0.00000000      -0.01169771       0.01694127
O        5.10872454       1.48048119       3.37761647        9       0.00977934      -0.01811650       0.00000000
10
Lattice="5.7480598928455855 -0.02698207288062372 -0.018630742172732334 3.1315288868665636 4.82021238066511 -0.01863074217273216 3.131528886866561 1.6904092681100502 4.514123503578386" Properties=species:S:1:pos:R:3:spacegroup_kinds:I:1:forces:R:3 spacegroup="P 1" unit_cell=conventional occupancy="_JSON {\"0\": {\"In\": 1}, \"1\": {\"In\": 1}, \"2\": {\"In\": 1}, \"3\": {\"In\": 1}, \"4\": {\"O\": 1}, \"5\": {\"O\": 1}, \"6\": {\"O\": 1}, \"7\": {\"O\": 1}, \"8\": {\"O\": 1}, \"9\": {\"O\": 1}}" n_minim_iter=3 energy=-11287.514379923728 stress="-0.05480264925880674 -9.475598869678523e-05 -6.542767849088232e-05 -9.475598869678523e-05 -0.0546782608117043 -3.531806923602148e-05 -6.542767849088232e-05 -3.531806923602148e-05 -0.05465149785838445" free_energy=-11287.514379923728 pbc="T T T"
In      10.30888805       5.56477061       3.84239591        0       0.01694180       0.00914524       0.00631466
In       7.70778846       4.16068876       2.87289712        1      -0.01694180      -0.00914524      -0.00631466
In       4.30332922       2.32295082       1.60396490        2       0.01694180       0.00914524       0.00631466
In       1.70222963       0.91886898       0.63446611        3      -0.01694180      -0.00914524      -0.00631466
O        5.87680937       2.24737835       0.18307536        4      -0.00000000       0.01517356      -0.02197518
O        6.90756449       5.00864428       1.10058476        5      -0.01268517       0.02349962       0.00000000
O        7.97758313       2.10146375       2.44013711        6       0.01268517      -0.00832606      -0.02197518
O        4.03353455       4.38217584       2.03672491        7      -0.01268517       0.00832606       0.02197518
O        6.13430831       4.23626124       4.29378666        8       0.00000000      -0.01517356       0.02197518
O        5.10355318       1.47499530       3.37627726        9       0.01268517      -0.02349962      -0.00000000
10
Lattice="5.746794693670278 -0.0282975274533077 -0.01953904507043972 3.1297349178586833 4.819876486508027 -0.019539045070439565 3.1297349178586815 1.6894408779251988 4.514131216465753" Properties=species:S:1:pos:R:3:spacegroup_kinds:I:1:forces:R:3 spacegroup="P 1" unit_cell=conventional occupancy="_JSON {\"0\": {\"In\": 1}, \"1\": {\"In\": 1}, \"2\": {\"In\": 1}, \"3\": {\"In\": 1}, \"4\": {\"O\": 1}, \"5\": {\"O\": 1}, \"6\": {\"O\": 1}, \"7\": {\"O\": 1}, \"8\": {\"O\": 1}, \"9\": {\"O\": 1}}" n_minim_iter=4 energy=-11287.514632277667 stress="-0.05434349602203332 -3.0237130679635612e-05 -2.087831392643517e-05 -3.0237130679635612e-05 -0.05430380301831846 -1.127018042793321e-05 -2.087831392643517e-05 -1.127018042793321e-05 -0.05429526282020906" free_energy=-11287.514632277667 pbc="T T T"
In      10.30721797       5.56386909       3.84177342        0      -0.00696924      -0.00376202      -0.00259762
In       7.70217884       4.15766067       2.87080627        1       0.00696924       0.00376202       0.00259762
In       4.30408570       2.32335917       1.60424686        2      -0.00696924      -0.00376202      -0.00259762
In       1.69904657       0.91715076       0.63327971        3       0.00696924       0.00376202       0.00259762
O        5.87496348       2.24690433       0.18095441        4      -0.00000000       0.01365726      -0.01977920
O        6.90412051       5.00846251       1.09922424        5      -0.01141754       0.02115130       0.00000000
O        7.97554137       2.09920671       2.43802002        6       0.01141754      -0.00749404      -0.01977920
O        4.03072316       4.38181314       2.03703311        7      -0.01141754       0.00749404       0.01977920
O        6.13130105       4.23411552       4.29409872        8      -0.00000000      -0.01365726       0.01977920
O        5.10214403       1.47255734       3.37582889        9       0.01141754      -0.02115130       0.00000000
10
Lattice="5.7466847757081645 -0.02841183465639423 -0.019617972587929314 3.129579042079954 4.8198473174031635 -0.01961797258792914 3.1295790420799534 1.689356735683324 4.5141319040905685" Properties=species:S:1:pos:R:3:spacegroup_kinds:I:1:forces:R:3 spacegroup="P 1" unit_cell=conventional occupancy="_JSON {\"0\": {\"In\": 1}, \"1\": {\"In\": 1}, \"2\": {\"In\": 1}, \"3\": {\"In\": 1}, \"4\": {\"O\": 1}, \"5\": {\"O\": 1}, \"6\": {\"O\": 1}, \"7\": {\"O\": 1}, \"8\": {\"O\": 1}, \"9\": {\"O\": 1}}" n_minim_iter=5 energy=-11287.514733129934 stress="-0.0540188042932365 2.2588909291741113e-05 1.559732402737508e-05 2.2588909291741113e-05 -0.05404845729214746 8.419485602364045e-06 1.559732402737508e-05 8.419485602364045e-06 -0.054054837320788356" free_energy=-11287.514733129934 pbc="T T T"
In      10.30808837       5.56433894       3.84209785        0      -0.01294477      -0.00698763      -0.00482486
In       7.70067592       4.15684940       2.87024609        1       0.01294477       0.00698763       0.00482486
In       4.30516694       2.32394283       1.60464987        2      -0.01294477      -0.00698763      -0.00482486
In       1.69775449       0.91645329       0.63279812        3       0.01294477       0.00698763       0.00482486
O        5.87480311       2.24779227       0.17942450        4      -0.00000000       0.00494492      -0.00716151
O        6.90304452       5.00988569       1.09910602        5      -0.00413398       0.00765831      -0.00000000
O        7.97614074       2.09850076       2.43649045        6       0.00413398      -0.00271339      -0.00716151
O        4.02970213       4.38229147       2.03840551        7      -0.00413398       0.00271339       0.00716151
O        6.13103976       4.23299996       4.29547146        8      -0.00000000      -0.00494492       0.00716151
O        5.10279835       1.47090654       3.37578994        9       0.00413398      -0.00765831      -0.00000000
10
Lattice="5.747131724318227 -0.02794706158974847 -0.019297053316388594 3.1302128451471356 4.8199659375344535 -0.01929705331638845 3.1302128451471347 1.689698864597866 4.514129125560742" Properties=species:S:1:pos:R:3:spacegroup_kinds:I:1:forces:R:3 spacegroup="P 1" unit_cell=conventional occupancy="_JSON {\"0\": {\"In\": 1}, \"1\": {\"In\": 1}, \"2\": {\"In\": 1}, \"3\": {\"In\": 1}, \"4\": {\"O\": 1}, \"5\": {\"O\": 1}, \"6\": {\"O\": 1}, \"7\": {\"O\": 1}, \"8\": {\"O\": 1}, \"9\": {\"O\": 1}}" n_minim_iter=6 energy=-11287.514767648288 stress="-0.05408594920074333 1.057589824506287e-05 7.30250794022186e-06 1.057589824506287e-05 -0.05409983243228582 3.9419176897930986e-06 7.30250794022186e-06 3.9419176897930986e-06 -0.054102819496496084" free_energy=-11287.514767648288 pbc="T T T"
In      10.30901137       5.56483718       3.84244187        0      -0.00536867      -0.00289803      -0.00200105
In       7.70232476       4.15773944       2.87086066        1       0.00536867       0.00289803       0.00200105
In       4.30523266       2.32397831       1.60467436        2      -0.00536867      -0.00289803      -0.00200105
In       1.69854605       0.91688057       0.63309315        3       0.00536867       0.00289803       0.00200105
O        5.87545522       2.24831086       0.17966534        4      -0.00000000       0.00204778      -0.00296571
O        6.90396771       5.01049366       1.09958670        5      -0.00171195       0.00317144      -0.00000000
O        7.97715558       2.09910551       2.43672990        6       0.00171195      -0.00112366      -0.00296571
O        4.03040184       4.38261224       2.03880512        7      -0.00171195       0.00112366       0.00296571
O        6.13210220       4.23340689       4.29586968        8       0.00000000      -0.00204778       0.00296571
O        5.10358972       1.47122409       3.37594832        9       0.00171195      -0.00317144       0.00000000
