10
Lattice="6.165886129959087 0.10212150712226986 0.07051346565935468 3.4687305074682886 5.098675243276193 0.07051346565935379 3.468730507468293 1.872431777012165 4.742937974048562" Properties=species:S:1:pos:R:3:spacegroup_kinds:I:1:forces:R:3 spacegroup="P 1" unit_cell=conventional occupancy="_JSON {\"0\": {\"In\": 1}, \"1\": {\"In\": 1}, \"2\": {\"In\": 1}, \"3\": {\"In\": 1}, \"4\": {\"O\": 1}, \"5\": {\"O\": 1}, \"6\": {\"O\": 1}, \"7\": {\"O\": 1}, \"8\": {\"O\": 1}, \"9\": {\"O\": 1}}" n_minim_iter=1 energy=-11286.867845807345 stress="0.12433235934074018 0.0014431507772661378 0.0009964753121977999 0.0014431507772661378 0.122437900908398 0.0005379005552533009 0.0009964753121977999 0.0005379005552533009 0.1220302962559709" free_energy=-11286.867845807345 pbc="T T T"
In      11.11601515       6.00046039       4.14323358        0      -0.16664862      -0.08995746      -0.06211436
In       8.53900558       4.60938241       3.18271378        1       0.16664862       0.08995746       0.06211436
In       4.56434158       2.46384612       1.70125113        2      -0.16664862      -0.08995746      -0.06211436
In       1.98733201       1.07276815       0.74073133        3       0.16664862       0.08995746       0.06211436
O        6.35877986       2.46254878       0.32475777        4      -0.00000000       0.03154085      -0.04567921
O        7.55544268       5.36481381       1.29150469        5      -0.02636831       0.04884800      -0.00000000
O        8.63084754       2.40265637       2.69622675        6       0.02636831      -0.01730715      -0.04567921
O        4.47249961       4.67057217       2.18773816        7      -0.02636831       0.01730715       0.04567921
O        6.74456730       4.61067976       4.55920714        8       0.00000000      -0.03154085       0.04567921
O        5.54790448       1.70841473       3.59246022        9       0.02636831      -0.04884800      -0.00000000
10
Lattice="6.157225091285749 0.09340893649317701 0.06449755806876524 3.4566942538575542 5.096215349602459 0.06449755806876435 3.4566942538575596 1.8659345689735483 4.742769128771719" Properties=species:S:1:pos:R:3:spacegroup_kinds:I:1:forces:R:3 spacegroup="P 1" unit_cell=conventional occupancy="_JSON {\"0\": {\"In\": 1}, \"1\": {\"In\": 1}, \"2\": {\"In\": 1}, \"3\": {\"In\": 1}, \"4\": {\"O\": 1}, \"5\": {\"O\": 1}, \"6\": {\"O\": 1}, \"7\": {\"O\": 1}, \"8\": {\"O\": 1}, \"9\": {\"O\": 1}}" n_minim_iter=2 energy=-11286.869156590526 stress="0.12110981299903532 -0.0010267681023043357 -0.0007089689515712938 -0.0010267681023043357 0.12245767596020254 -0.00038270368817456597 -0.0007089689515712938 -0.00038270368817456597 0.12274767714546873" free_energy=-11286.869156590526 pbc="T T T"
In      11.08712789       5.98486696       4.13246653        0      -0.13626900      -0.07355844      -0.05079107
In       8.51879252       4.59847134       3.17517984        1       0.13626900       0.07355844       0.05079107
In       4.55182109       2.45708753       1.69658441        2      -0.13626900      -0.07355844      -0.05079107
In       1.98348572       1.07069191       0.73929772        3       0.13626900       0.07355844       0.05079107
O        6.34626595       2.45479240       0.31722631        4      -0.00000000       0.03379977      -0.04895071
O        7.53606016       5.35638571       1.28243862        5      -0.02825678       0.05234645      -0.00000000
O        8.61316599       2.39007584       2.68861087        6       0.02825678      -0.01854667      -0.04895071
O        4.45744761       4.66548303       2.18315338        7      -0.02825678       0.01854668       0.04895071
O        6.72434766       4.60076647       4.55453794        8      -0.00000000      -0.03379977       0.04895071
O        5.53455345       1.69917316       3.58932563        9       0.02825678      -0.05234645      -0.00000000
10
Lattice="6.163707836816298 0.09993204823700917 0.06900167506529724 3.465704831890428 5.098055583269645 0.06900167506529634 3.4657048318904353 1.8707985076974365 4.742894148604378" Properties=species:S:1:pos:R:3:spacegroup_kinds:I:1:forces:R:3 spacegroup="P 1" unit_cell=conventional occupancy="_JSON {\"0\": {\"In\": 1}, \"1\": {\"In\": 1}, \"2\": {\"In\": 1}, \"3\": {\"In\": 1}, \"4\": {\"O\": 1}, \"5\": {\"O\": 1}, \"6\": {\"O\": 1}, \"7\": {\"O\": 1}, \"8\": {\"O\": 1}, \"9\": {\"O\": 1}}" n_minim_iter=3 energy=-11286.874492950157 stress="0.11893486130871204 -4.190162455541665e-05 -2.8932472934470073e-05 -4.190162455541665e-05 0.1189898665602101 -1.5617848822732378e-05 -2.8932472934470073e-05 -1.5617848822732378e-05 0.11900170127788871" free_energy=-11286.874492950157 pbc="T T T"
In      11.09691335       5.99014918       4.13611383        0      -0.00460669      -0.00248671      -0.00171704
In       8.54576291       4.61303005       3.18523242        1       0.00460669       0.00248671       0.00171704
In       4.54935460       2.45575611       1.69566508        2      -0.00460670      -0.00248671      -0.00171704
In       1.99820416       1.07863698       0.74478367        3       0.00460669       0.00248671       0.00171704
O        6.35563330       2.46321953       0.31906973        4       0.00000000      -0.01441894       0.02088231
O        7.54837887       5.36675289       1.28922605        5       0.01205431      -0.02233093       0.00000000
O        8.62859256       2.39805625       2.69051680        6      -0.01205431       0.00791199       0.02088231
O        4.46652495       4.67072990       2.19038070        7       0.01205431      -0.00791199      -0.02088231
O        6.73948421       4.60556662       4.56182777        8       0.00000000       0.01441894      -0.02088231
O        5.54673864       1.70203326       3.59167145        9      -0.01205431       0.02233093      -0.00000000
10
Lattice="6.164258429453861 0.10048557678761136 0.06938387875132034 3.4664697067267722 5.098212148251668 0.06938387875131945 3.46646970672678 1.8712113895704807 4.7429051399699285" Properties=species:S:1:pos:R:3:spacegroup_kinds:I:1:forces:R:3 spacegroup="P 1" unit_cell=conventional occupancy="_JSON {\"0\": {\"In\": 1}, \"1\": {\"In\": 1}, \"2\": {\"In\": 1}, \"3\": {\"In\": 1}, \"4\": {\"O\": 1}, \"5\": {\"O\": 1}, \"6\": {\"O\": 1}, \"7\": {\"O\": 1}, \"8\": {\"O\": 1}, \"9\": {\"O\": 1}}" n_minim_iter=4 energy=-11286.874596996433 stress="0.11939954190359389 6.96005875027803e-05 4.805821516639439e-05 6.96005875027803e-05 0.11930817554147978 2.594196665443579e-05 4.805821516639439e-05 2.594196665443579e-05 0.1192885174735784" free_energy=-11286.874596996433 pbc="T T T"
In      11.09923879       5.99140446       4.13698059        0      -0.01566681      -0.00845699      -0.00583944
In       8.54655798       4.61345922       3.18552876        1       0.01566681       0.00845699       0.00583943
In       4.55063987       2.45644990       1.69614414        2      -0.01566681      -0.00845699      -0.00583944
In       1.99795906       1.07850467       0.74469232        3       0.01566681       0.00845699       0.00583943
O        6.35642868       2.46290318       0.32072024        4      -0.00000000      -0.00356171       0.00515826
O        7.55028724       5.36603533       1.28980211        5       0.00297760      -0.00551609       0.00000000
O        8.62903983       2.39929970       2.69217281        6      -0.00297760       0.00195439       0.00515826
O        4.46815802       4.67060943       2.18950009        7       0.00297760      -0.00195439      -0.00515826
O        6.74076917       4.60700594       4.56095266        8       0.00000000       0.00356171      -0.00515826
O        5.54691062       1.70387380       3.59187080        9      -0.00297760       0.00551609       0.00000000
10
Lattice="6.164681197710914 0.10091054716850842 0.0696773148276578 3.4670569662622923 5.098332394090483 0.0696773148276569 3.4670569662623003 1.8715283941383747 4.7429136191551935" Properties=species:S:1:pos:R:3:spacegroup_kinds:I:1:forces:R:3 spacegroup="P 1" unit_cell=conventional occupancy="_JSON {\"0\": {\"In\": 1}, \"1\": {\"In\": 1}, \"2\": {\"In\": 1}, \"3\": {\"In\": 1}, \"4\": {\"O\": 1}, \"5\": {\"O\": 1}, \"6\": {\"O\": 1}, \"7\": {\"O\": 1}, \"8\": {\"O\": 1}, \"9\": {\"O\": 1}}" n_minim_iter=5 energy=-11286.874668920353 stress="0.11905833784341427 -6.862347450569367e-06 -4.738363031975514e-06 -6.862347450569367e-06 0.11906734623091528 -2.5577844664348655e-06 -4.738363031975514e-06 -2.5577844664348655e-06 0.11906928442694857" free_energy=-11286.874668920353 pbc="T T T"
In      11.09924145       5.99140590       4.13698158        0       0.00008289       0.00004474       0.00003090
In       8.54895125       4.61475112       3.18642080        1      -0.00008289      -0.00004474      -0.00003090
In       4.54984389       2.45602023       1.69584745        2       0.00008289       0.00004475       0.00003090
In       1.99955369       1.07936545       0.74528668        3      -0.00008289      -0.00004474      -0.00003090
O        6.35703939       2.46289670       0.32164510        4       0.00000000       0.00002065      -0.00002991
O        7.55155483       5.36585054       1.29024438        5      -0.00001726       0.00003198       0.00000000
O        8.62958091       2.40012467       2.69310191        6       0.00001726      -0.00001133      -0.00002991
O        4.46921423       4.67064667       2.18916635        7      -0.00001726       0.00001133       0.00002991
O        6.74175575       4.60787464       4.56062316        8       0.00000000      -0.00002065       0.00002991
O        5.54724031       1.70492081       3.59202387        9       0.00001726      -0.00003198       0.00000000
