10
Lattice="6.091008059623891 0.02848711602178655 0.01966995331288679 3.366084556432022 5.076481602166236 0.01966995331289345 3.36608455643202 1.817023165680671 4.740198221548905" Properties=species:S:1:pos:R:3:spacegroup_kinds:I:1:forces:R:3 spacegroup="P 1" unit_cell=conventional occupancy="_JSON {\"0\": {\"In\": 1}, \"1\": {\"In\": 1}, \"2\": {\"In\": 1}, \"3\": {\"In\": 1}, \"4\": {\"O\": 1}, \"5\": {\"O\": 1}, \"6\": {\"O\": 1}, \"7\": {\"O\": 1}, \"8\": {\"O\": 1}, \"9\": {\"O\": 1}}" n_minim_iter=1 energy=-11287.149570987362 stress="0.07306959149975915 -0.0005132446357396652 -0.00035438820915277975 -0.0005132446357396652 0.07374333997818333 -0.00019129988344266123 -0.00035438820915277975 -0.00019129988344266123 0.07388830118651252" free_energy=-11287.149570987362 pbc="T T T"
In      10.97013104       5.92171168       4.08885870        0      -0.05987253      -0.03231938      -0.02231608
In       8.26463473       4.46127616       3.08044849        1       0.05987253       0.03231938       0.02231608
In       4.55854245       2.46071574       1.69908964        2      -0.05987253      -0.03231938      -0.02231608
In       1.85304614       1.00028021       0.69067943        3       0.05987253       0.03231938       0.02231608
O        6.25129833       2.40351999       0.25064006        4       0.00000000      -0.00531025       0.00769059
O        7.38359854       5.30324691       1.21455449        5       0.00443939      -0.00822410      -0.00000000
O        8.48508268       2.29176699       2.62073918        6      -0.00443939       0.00291385       0.00769059
O        4.33809451       4.63022491       2.15879896        7       0.00443939      -0.00291385      -0.00769059
O        6.57187885       4.51847191       4.52889807        8       0.00000000       0.00531025      -0.00769059
O        5.43957865       1.61874498       3.56498365        9      -0.00443939       0.00822410       0.00000000
10
Lattice="6.097367896159878 0.03499383748942224 0.024162753054020877 3.3750139892619155 5.078228077003802 0.024162753054027538 3.375013989261914 1.821843301965514 4.740239574513956" Properties=species:S:1:pos:R:3:spacegroup_kinds:I:1:forces:R:3 spacegroup="P 1" unit_cell=conventional occupancy="_JSON {\"0\": {\"In\": 1}, \"1\": {\"In\": 1}, \"2\": {\"In\": 1}, \"3\": {\"In\": 1}, \"4\": {\"O\": 1}, \"5\": {\"O\": 1}, \"6\": {\"O\": 1}, \"7\": {\"O\": 1}, \"8\": {\"O\": 1}, \"9\": {\"O\": 1}}" n_minim_iter=2 energy=-11287.150012726006 stress="0.07354954442669878 0.0002025067232826889 0.00013982804647312677 0.0002025067232826889 0.07328370901932556 7.54796253532153e-05 0.00013982804647312677 7.54796253532153e-05 0.07322651286474914" free_energy=-11287.150012726006 pbc="T T T"
In      10.98999302       5.93243324       4.09626179        0      -0.07168635      -0.03869652      -0.02671940
In       8.28110080       4.47016460       3.08658584        1       0.07168635       0.03869652       0.02671940
In       4.56629508       2.46490063       1.70197925        2      -0.07168635      -0.03869652      -0.02671940
In       1.85740287       1.00263199       0.69230330        3       0.07168635       0.03869652       0.02671940
O        6.26053292       2.40934466       0.25615266        4      -0.00000000      -0.00375104       0.00543246
O        7.39788056       5.30956236       1.22130403        5       0.00313589      -0.00580932       0.00000000
O        8.49819928       2.30108122       2.62627245        6      -0.00313589       0.00205828       0.00543246
O        4.34919661       4.63398401       2.16229264        7       0.00313589      -0.00205828      -0.00543246
O        6.58686296       4.52572056       4.53241243        8      -0.00000000       0.00375104      -0.00543246
O        5.44951533       1.62550287       3.56726106        9      -0.00313589       0.00580932       0.00000000
10
Lattice="6.120820300159927 0.05889337277824548 0.04066504633535084 3.4078629663283557 5.084720206553625 0.04066504633535747 3.407862966328354 1.8395752844210884 4.740463690175811" Properties=species:S:1:pos:R:3:spacegroup_kinds:I:1:forces:R:3 spacegroup="P 1" unit_cell=conventional occupancy="_JSON {\"0\": {\"In\": 1}, \"1\": {\"In\": 1}, \"2\": {\"In\": 1}, \"3\": {\"In\": 1}, \"4\": {\"O\": 1}, \"5\": {\"O\": 1}, \"6\": {\"O\": 1}, \"7\": {\"O\": 1}, \"8\": {\"O\": 1}, \"9\": {\"O\": 1}}" n_minim_iter=3 energy=-11287.153157708999 stress="0.07327380499241651 0.0016108992865804946 0.0011123033210098333 0.0016108992865804946 0.07115913906412898 0.0006004248754667596 0.0011123033210098333 0.0006004248754667596 0.07070415543710992" free_energy=-11287.153157708999 pbc="T T T"
In      11.05311992       5.96650934       4.11979086        0      -0.07634323      -0.04121032      -0.02845515
In       8.35169944       4.50827396       3.11289982        1       0.07634323       0.04121032       0.02845515
In       4.58484680       2.47491491       1.70889397        2      -0.07634323      -0.04121032      -0.02845515
In       1.88342632       1.01667953       0.70200293        3       0.07634323       0.04121032       0.02845515
O        6.29454671       2.43017464       0.27727401        4       0.00000000      -0.00095635       0.00138504
O        7.45095284       5.33190954       1.24611349        5       0.00079951      -0.00148112      -0.00000000
O        8.54600355       2.33565675       2.64750585        6      -0.00079951       0.00052477       0.00138504
O        4.39054269       4.64753212       2.17428793        7       0.00079951      -0.00052477      -0.00138504
O        6.64199953       4.55301424       4.54451978        8      -0.00000000       0.00095635      -0.00138504
O        5.48559340       1.65127934       3.57568029        9      -0.00079951       0.00148112      -0.00000000
10
Lattice="6.142395705353915 0.08075121421054883 0.05575757869857887 3.4379751269022423 5.090763477765211 0.05575757869858548 3.4379751269022405 1.8558299246162964 4.7407675523093475" Properties=species:S:1:pos:R:3:spacegroup_kinds:I:1:forces:R:3 spacegroup="P 1" unit_cell=conventional occupancy="_JSON {\"0\": {\"In\": 1}, \"1\": {\"In\": 1}, \"2\": {\"In\": 1}, \"3\": {\"In\": 1}, \"4\": {\"O\": 1}, \"5\": {\"O\": 1}, \"6\": {\"O\": 1}, \"7\": {\"O\": 1}, \"8\": {\"O\": 1}, \"9\": {\"O\": 1}}" n_minim_iter=4 energy=-11287.156820563812 stress="0.06961874725834916 0.00101520911705165 0.0007009876295598711 0.00101520911705165 0.06828605802723178 0.00037839535524014433 0.0007009876295598711 0.00037839535524014433 0.06799932158755528" free_energy=-11287.156820563812 pbc="T T T"
In      11.09600287       5.98965770       4.13577447        0      -0.00400682      -0.00216289      -0.00149345
In       8.43151608       4.55135924       3.14264960        1       0.00400682       0.00216289       0.00149345
In       4.58682989       2.47598539       1.70963312        2      -0.00400682      -0.00216289      -0.00149345
In       1.92234310       1.03768693       0.71650824        3       0.00400682       0.00216289       0.00149345
O        6.32578435       2.44833434       0.29795769        4       0.00000000      -0.00469907       0.00680545
O        7.50043019       5.35100126       1.26882826        5       0.00392844      -0.00727755      -0.00000000
O        8.58911363       2.36784155       2.66834146        6      -0.00392844       0.00257848       0.00680545
O        4.42923234       4.65950308       2.18394125        7       0.00392844      -0.00257848      -0.00680545
O        6.69256162       4.57901029       4.55432503        8       0.00000000       0.00469907      -0.00680545
O        5.51791578       1.67634337       3.58345446        9      -0.00392844       0.00727755      -0.00000000
