10
Lattice="6.233657601704624 0.07918386704743742 0.05467534750675532 3.48674221307878 5.1679189157362915 0.05467534750675079 3.486742213078791 1.8821545530741 4.813301315271282" Properties=species:S:1:pos:R:3:spacegroup_kinds:I:1:forces:R:3 spacegroup="P 1" unit_cell=conventional occupancy="_JSON {\"0\": {\"In\": 1}, \"1\": {\"In\": 1}, \"2\": {\"In\": 1}, \"3\": {\"In\": 1}, \"4\": {\"O\": 1}, \"5\": {\"O\": 1}, \"6\": {\"O\": 1}, \"7\": {\"O\": 1}, \"8\": {\"O\": 1}, \"9\": {\"O\": 1}}" n_minim_iter=3 energy=-11285.82756000557 stress="0.1962984821504859 -0.00027023257301476923 -0.00018659177576071505 -0.00027023257301476923 0.19665322284389175 -0.00010072285422166647 -0.00018659177576071505 -0.00010072285422166647 0.19672954756035024" free_energy=-11285.82756000557 pbc="T T T"
In      11.17499947       6.03230031       4.16521860        0      -0.00336694      -0.00181748      -0.00125495
In       8.63571358       4.66158570       3.21875942        1       0.00336694       0.00181748       0.00125495
In       4.57142845       2.46767164       1.70389259        2      -0.00336694      -0.00181748      -0.00125495
In       2.03214257       1.09695704       0.75743342        3       0.00336694       0.00181748       0.00125495
O        6.41861431       2.48697377       0.29481309        4      -0.00000000      -0.00168140       0.00243509
O        7.60598568       5.43587029       1.28533835        5       0.00140566      -0.00260402       0.00000000
O        8.71798516       2.39804649       2.70146375        6      -0.00140566       0.00092262       0.00243509
O        4.48915688       4.73121086       2.22118827        7       0.00140566      -0.00092262      -0.00243509
O        6.78852773       4.64228358       4.62783892        8      -0.00000000       0.00168140      -0.00243509
O        5.60115636       1.69338706       3.63731366        9      -0.00140566       0.00260402      -0.00000000
