10
Lattice="5.366781121911662 -0.15215939914252097 -0.10506392696828515 2.8176640270692452 4.570148960790525 -0.1050639269682816 2.817664027069249 1.5209840170256377 4.310905655719834" Properties=species:S:1:pos:R:3:spacegroup_kinds:I:1:forces:R:3 spacegroup="P 1" unit_cell=conventional occupancy="_JSON {\"0\": {\"In\": 1}, \"1\": {\"In\": 1}, \"2\": {\"In\": 1}, \"3\": {\"In\": 1}, \"4\": {\"O\": 1}, \"5\": {\"O\": 1}, \"6\": {\"O\": 1}, \"7\": {\"O\": 1}, \"8\": {\"O\": 1}, \"9\": {\"O\": 1}}" n_minim_iter=1 energy=-11283.140065817417 stress="-0.5468208125761891 0.0044663540472282175 0.0030839547106033976 0.0044663540472282175 -0.5526839021840502 0.0016647286115653167 0.0030839547106033976 0.0016647286115653167 -0.5539453826123681" free_energy=-11283.140065817417 pbc="T T T"
In       9.47028197       5.11208837       3.52982519        0      -0.02275161      -0.01228139      -0.00848013
In       7.03288181       3.79637200       2.62134152        1       0.02275160       0.01228139       0.00848013
In       3.96922738       2.14260158       1.47943628        2      -0.02275161      -0.01228139      -0.00848013
In       1.53182722       0.82688522       0.57095262        3       0.02275161       0.01228139       0.00848013
O        5.43391786       2.05132156       0.04192977        4       0.00000000      -0.00858391       0.01243170
O        6.30548469       4.68903645       0.92013053        5       0.00717619      -0.01329409       0.00000000
O        7.38001505       1.81651530       2.19738260        6      -0.00717619       0.00471018       0.01243170
O        3.62209413       4.12245829       1.90339521        7       0.00717619      -0.00471018      -0.01243170
O        5.56819133       3.88765203       4.05884804        8       0.00000000       0.00858391      -0.01243170
O        4.69662449       1.24993714       3.18064728        9      -0.00717619       0.01329409      -0.00000000
10
Lattice="5.35657780582814 -0.16320760185806138 -0.11269255569432976 2.8028288920824687 4.567681327862377 -0.11269255569432614 2.8028288920824735 1.51297596390485 4.311300970433135" Properties=species:S:1:pos:R:3:spacegroup_kinds:I:1:forces:R:3 spacegroup="P 1" unit_cell=conventional occupancy="_JSON {\"0\": {\"In\": 1}, \"1\": {\"In\": 1}, \"2\": {\"In\": 1}, \"3\": {\"In\": 1}, \"4\": {\"O\": 1}, \"5\": {\"O\": 1}, \"6\": {\"O\": 1}, \"7\": {\"O\": 1}, \"8\": {\"O\": 1}, \"9\": {\"O\": 1}}" n_minim_iter=2 energy=-11283.142424539325 stress="-0.5497493138320866 -3.7019149916819347e-06 -2.556149041671207e-06 -3.7019149916819347e-06 -0.5497444542093265 -1.379828675454772e-06 -2.556149041671207e-06 -1.379828675454772e-06 -0.549743408625821" free_energy=-11283.142424539325 pbc="T T T"
In       9.43586462       5.09350978       3.51699693        0       0.04623234       0.02495636       0.01723202
In       7.00748877       3.78266476       2.61187686        1      -0.04623234      -0.02495636      -0.01723202
In       3.95474683       2.13478494       1.47403900        2       0.04623234       0.02495636       0.01723202
In       1.52637098       0.82393992       0.56891893        3      -0.04623234      -0.02495636      -0.01723202
O        5.41884780       2.04154804       0.03276120        4       0.00000000      -0.04295931       0.06221606
O        6.28205109       4.67865002       0.90878641        5       0.03591420      -0.06653203      -0.00000000
O        7.35847341       1.80098529       2.18841168        6      -0.03591420       0.02357271       0.06221606
O        3.60376219       4.11646441       1.89750418        7       0.03591420      -0.02357271      -0.06221606
O        5.54338779       3.87590166       4.05315467        8       0.00000000       0.04295931      -0.06221606
O        4.68018451       1.23879968       3.17712945        9      -0.03591420       0.06653203       0.00000000
10
Lattice="5.353438100971548 -0.16661522859576064 -0.11504547407283536 2.7982572744965024 4.566926358182415 -0.11504547407283178 2.798257274496507 1.5105081901697965 4.3114286297694715" Properties=species:S:1:pos:R:3:spacegroup_kinds:I:1:forces:R:3 spacegroup="P 1" unit_cell=conventional occupancy="_JSON {\"0\": {\"In\": 1}, \"1\": {\"In\": 1}, \"2\": {\"In\": 1}, \"3\": {\"In\": 1}, \"4\": {\"O\": 1}, \"5\": {\"O\": 1}, \"6\": {\"O\": 1}, \"7\": {\"O\": 1}, \"8\": {\"O\": 1}, \"9\": {\"O\": 1}}" n_minim_iter=3 energy=-11283.143164205634 stress="-0.5490075967970877 5.863342619700168e-06 4.048569232039914e-06 5.863342619700168e-06 -0.5490152938074102 2.18541733651951e-06 4.048569232039914e-06 2.18541733651951e-06 -0.5490169498583349" free_energy=-11283.143164205634 pbc="T T T"
In       9.42672444       5.08857589       3.51359014        0      -0.01729686      -0.00933690      -0.00644700
In       6.99820454       3.77765310       2.60841638        1       0.01729686       0.00933690       0.00644700
In       3.95174812       2.13316623       1.47292130        2      -0.01729686      -0.00933690      -0.00644700
In       1.52322821       0.82224344       0.56774754        3       0.01729686       0.00933690       0.00644700
O        5.41420722       2.03716004       0.03192697        4       0.00000000      -0.00542166       0.00785194
O        6.27598293       4.67332122       0.90528895        5       0.00453253      -0.00839664      -0.00000000
O        7.35068877       1.79695332       2.18764128        6      -0.00453253       0.00297498       0.00785194
O        3.59926388       4.11386601       1.89369641        7       0.00453253      -0.00297498      -0.00785194
O        5.53574544       3.87365929       4.04941072        8      -0.00000000       0.00542165      -0.00785194
O        4.67396972       1.23749811       3.17604874        9      -0.00453253       0.00839664       0.00000000
10
Lattice="5.353372254354805 -0.16668673437548728 -0.11509484780893944 2.7981613638310705 4.566910546865971 -0.11509484780893585 2.7981613638310754 1.5104564172870893 4.311431337565755" Properties=species:S:1:pos:R:3:spacegroup_kinds:I:1:forces:R:3 spacegroup="P 1" unit_cell=conventional occupancy="_JSON {\"0\": {\"In\": 1}, \"1\": {\"In\": 1}, \"2\": {\"In\": 1}, \"3\": {\"In\": 1}, \"4\": {\"O\": 1}, \"5\": {\"O\": 1}, \"6\": {\"O\": 1}, \"7\": {\"O\": 1}, \"8\": {\"O\": 1}, \"9\": {\"O\": 1}}" n_minim_iter=4 energy=-11283.143244160628 stress="-0.5489054867297929 -7.233595440465709e-05 -4.994695546020958e-05 -7.233595440465709e-05 -0.5488105295817517 -2.696152559098192e-05 -4.994695546020958e-05 -2.696152559098192e-05 -0.5487900989183359" free_energy=-11283.143244160628 pbc="T T T"
In       9.42545055       5.08788823       3.51311533        0       0.00094116       0.00050804       0.00035079
In       6.99909193       3.77813212       2.60874714        1      -0.00094116      -0.00050804      -0.00035079
In       3.95060306       2.13254812       1.47249451        2       0.00094116       0.00050804       0.00035079
In       1.52424444       0.82279201       0.56812632        3      -0.00094116      -0.00050804      -0.00035079
O        5.41410988       2.03654834       0.03266203        4      -0.00000000      -0.00065585       0.00094983
O        6.27629007       4.67240465       0.90521556        5       0.00054829      -0.00101572       0.00000000
O        7.35009105       1.79715386       2.18837770        6      -0.00054829       0.00035988       0.00094983
O        3.59960394       4.11352638       1.89286394        7       0.00054829      -0.00035988      -0.00094983
O        5.53558511       3.87413190       4.04857961        8       0.00000000       0.00065585      -0.00094983
O        4.67340492       1.23827559       3.17602608        9      -0.00054829       0.00101572      -0.00000000
