10
Lattice="5.878499209106989 0.004960081116027304 0.003424866311697805 3.2298075892450626 4.911732941674574 0.0034248663117004696 3.229807589245061 1.7434604247048888 4.591892634581983" Properties=species:S:1:pos:R:3:spacegroup_kinds:I:1:forces:R:3 spacegroup="P 1" unit_cell=conventional occupancy="_JSON {\"0\": {\"In\": 1}, \"1\": {\"In\": 1}, \"2\": {\"In\": 1}, \"3\": {\"In\": 1}, \"4\": {\"O\": 1}, \"5\": {\"O\": 1}, \"6\": {\"O\": 1}, \"7\": {\"O\": 1}, \"8\": {\"O\": 1}, \"9\": {\"O\": 1}}" n_minim_iter=1 energy=-11287.685855659349 stress="-4.304544627046005e-05 1.2188936106688748e-05 8.416288368345599e-06 1.2188936106688748e-05 -5.9046152253968815e-05 4.54313896907749e-06 8.416288368345599e-06 4.54313896907749e-06 -6.248880515424841e-05" free_energy=-11287.685855659349 pbc="T T T"
In      10.57619727       5.70906498       3.94202914        0       0.00459609       0.00248098       0.00171308
In       7.93097432       4.28116521       2.95608441        1      -0.00459609      -0.00248098      -0.00171308
In       4.40714007       2.37898825       1.64265796        2       0.00459609       0.00248098       0.00171308
In       1.76191713       0.95108848       0.65671323        3      -0.00459609      -0.00248098      -0.00171308
O        6.02377821       2.31253090       0.21725521        4       0.00000000       0.00044703      -0.00064742
O        7.09944834       5.12232982       1.15311046        5      -0.00037372       0.00069233      -0.00000000
O        8.17791566       2.18531618       2.51320152        6       0.00037372      -0.00024530      -0.00064742
O        4.16019874       4.47483728       2.08554085        7      -0.00037372       0.00024530       0.00064742
O        6.31433619       4.34762256       4.38148717        8       0.00000000      -0.00044703       0.00064742
O        5.23866606       1.53782364       3.44563191        9       0.00037372      -0.00069233       0.00000000
