10
Lattice="6.320969898905862 0.08091723794913719 0.0558722157571061 3.5361014846779777 5.239961293018251 0.05587221575711654 3.5361014846779826 1.9087988451093105 4.880246205442144" Properties=species:S:1:pos:R:3:spacegroup_kinds:I:1:forces:R:3 spacegroup="P 1" unit_cell=conventional occupancy="_JSON {\"0\": {\"In\": 1}, \"1\": {\"In\": 1}, \"2\": {\"In\": 1}, \"3\": {\"In\": 1}, \"4\": {\"O\": 1}, \"5\": {\"O\": 1}, \"6\": {\"O\": 1}, \"7\": {\"O\": 1}, \"8\": {\"O\": 1}, \"9\": {\"O\": 1}}" n_minim_iter=1 energy=-11285.965322237975 stress="0.10990404410333984 -0.00020218250207536953 -0.0001396041770839255 -0.00020218250207536953 0.11016945389866648 -7.535877901737106e-05 -0.0001396041770839255 -7.535877901737106e-05 0.11022655847894634" free_energy=-11285.965322237975 pbc="T T T"
In      11.39006468       6.14839320       4.24537910        0      -0.02963893      -0.01599919      -0.01104722
In       8.69969464       4.69612288       3.24260686        1       0.02963893       0.01599919       0.01104722
In       4.69347824       2.53355451       1.74938379        2      -0.02963893      -0.01599919      -0.01104722
In       2.00310820       1.08128419       0.74661154        3       0.02963893       0.01599919       0.01104722
O        6.50877817       2.52221648       0.29931939        4      -0.00000000       0.03194290      -0.04626148
O        7.71307856       5.51222139       1.30386988        5      -0.02670442       0.04947067      -0.00000000
O        8.84057927       2.43225312       2.73944249        6       0.02670442      -0.01752777      -0.04626148
O        4.55259361       4.79742427       2.25254815        7      -0.02670442       0.01752777       0.04626148
O        6.88439471       4.70746091       4.69267125        8      -0.00000000      -0.03194290       0.04626148
O        5.68009432       1.71745600       3.68812076        9       0.02670442      -0.04947067      -0.00000000
10
Lattice="6.326487626741788 0.08649086293197983 0.0597207254873363 3.5437887607542766 5.241515771209635 0.05972072548734672 3.543788760754282 1.9129484612218735 4.880336292675015" Properties=species:S:1:pos:R:3:spacegroup_kinds:I:1:forces:R:3 spacegroup="P 1" unit_cell=conventional occupancy="_JSON {\"0\": {\"In\": 1}, \"1\": {\"In\": 1}, \"2\": {\"In\": 1}, \"3\": {\"In\": 1}, \"4\": {\"O\": 1}, \"5\": {\"O\": 1}, \"6\": {\"O\": 1}, \"7\": {\"O\": 1}, \"8\": {\"O\": 1}, \"9\": {\"O\": 1}}" n_minim_iter=2 energy=-11285.965717726562 stress="0.1105507455620661 0.000796027251743342 0.0005496456322483419 0.000796027251743342 0.10950578159563144 0.0002967004633906992 0.0005496456322483419 0.0002967004633906992 0.10928095104984333" free_energy=-11285.965717726562 pbc="T T T"
In      11.40701709       6.15754416       4.25169772        0      -0.02346493      -0.01266645      -0.00874600
In       8.71408064       4.70388849       3.24796890        1       0.02346493       0.01266645       0.00874600
In       4.69998452       2.53706662       1.75180885        2      -0.02346493      -0.01266645      -0.00874600
In       2.00704807       1.08341094       0.74808003        3       0.02346493       0.01266645       0.00874600
O        6.51676011       2.52817387       0.30268186        4       0.00000000       0.02526047      -0.03658362
O        7.72461057       5.51914871       1.30966516        5      -0.02111788       0.03912145       0.00000000
O        8.85269840       2.43974149       2.74285001        6       0.02111788      -0.01386097      -0.03658362
O        4.56136676       4.80121362       2.25692774        7      -0.02111788       0.01386097       0.03658362
O        6.89730505       4.71278124       4.69709588        8      -0.00000000      -0.02526047       0.03658362
O        5.68945459       1.72180640       3.69011258        9       0.02111788      -0.03912145      -0.00000000
10
Lattice="6.321393388517407 0.08134528925284737 0.056167779167352994 3.536691715703299 5.240080451343364 0.056167779167363416 3.536691715703304 1.909117453696864 4.880252913933604" Properties=species:S:1:pos:R:3:spacegroup_kinds:I:1:forces:R:3 spacegroup="P 1" unit_cell=conventional occupancy="_JSON {\"0\": {\"In\": 1}, \"1\": {\"In\": 1}, \"2\": {\"In\": 1}, \"3\": {\"In\": 1}, \"4\": {\"O\": 1}, \"5\": {\"O\": 1}, \"6\": {\"O\": 1}, \"7\": {\"O\": 1}, \"8\": {\"O\": 1}, \"9\": {\"O\": 1}}" n_minim_iter=3 energy=-11285.967093126837 stress="0.1089057449495667 1.2083089254048818e-05 8.34320391538168e-06 1.2083089254048818e-05 0.10888988319045496 4.503687821699402e-06 8.34320391538168e-06 4.503687821699402e-06 0.1088864704333522" free_energy=-11285.967093126837 pbc="T T T"
In      11.38706087       6.14677173       4.24425951        0      -0.00438724      -0.00236825      -0.00163524
In       8.70510437       4.69904307       3.24462321        1       0.00438724       0.00236825       0.00163524
In       4.68967246       2.53150014       1.74796527        2      -0.00438724      -0.00236825      -0.00163524
In       2.00771596       1.08377147       0.74832897        3       0.00438724       0.00236825       0.00163524
O        6.50939090       2.52731045       0.29286270        4      -0.00000000      -0.00150850       0.00218469
O        7.71008771       5.51993390       1.30431490        5       0.00126111      -0.00233624      -0.00000000
O        8.84538582       2.43028395       2.73298916        6      -0.00126111       0.00082775       0.00218469
O        4.54939101       4.80025926       2.25959932        7       0.00126111      -0.00082775      -0.00218469
O        6.88538593       4.70323276       4.69972577        8       0.00000000       0.00150850      -0.00218469
O        5.68468912       1.71060930       3.68827358        9      -0.00126111       0.00233624       0.00000000
