10
Lattice="5.564818510052129 -0.1135803589008088 -0.07842564179297988 2.958583738213043 4.714540042435539 -0.07842564179297448 2.9585837382130507 1.5970529259780382 4.436491896154407" Properties=species:S:1:pos:R:3:spacegroup_kinds:I:1:forces:R:3 spacegroup="P 1" unit_cell=conventional occupancy="_JSON {\"0\": {\"In\": 1}, \"1\": {\"In\": 1}, \"2\": {\"In\": 1}, \"3\": {\"In\": 1}, \"4\": {\"O\": 1}, \"5\": {\"O\": 1}, \"6\": {\"O\": 1}, \"7\": {\"O\": 1}, \"8\": {\"O\": 1}, \"9\": {\"O\": 1}}" n_minim_iter=5 energy=-11287.159644022182 stress="-0.12420359481567092 6.292682146410071e-05 4.3450077366713864e-05 6.292682146410071e-05 -0.12428620037630941 2.345454548354674e-05 4.3450077366713864e-05 2.345454548354674e-05 -0.12430397348904632" free_energy=-11287.159644022182 pbc="T T T"
In       9.87126787       5.32854184       3.67928326        0      -0.00797763      -0.00430635      -0.00297347
In       7.35171112       3.96847708       2.74017766        1       0.00797763       0.00430635       0.00297347
In       4.13027488       2.22953554       1.53946296        2      -0.00797763      -0.00430635      -0.00297347
In       1.61071812       0.86947078       0.60035735        3       0.00797763       0.00430635       0.00297347
O        5.65290576       2.13621946       0.09873560        4       0.00000000       0.00228468      -0.00330880
O        6.59422300       4.84659554       0.99148451        5      -0.00191000       0.00353833      -0.00000000
O        7.67017225       1.93813338       2.31698155        6       0.00191000      -0.00125365      -0.00330880
O        3.81181374       4.25987924       1.96265907        7      -0.00191000       0.00125365       0.00330880
O        5.82908024       4.06179316       4.18090502        8      -0.00000000      -0.00228468       0.00330880
O        4.88776300       1.35141708       3.28815610        9       0.00191000      -0.00353833      -0.00000000
