10
Lattice="6.320348625672702 0.03411535192630923 0.023556171117135843 3.4966339684330756 5.265123122784487 0.023556171117128676 3.4966339684330827 1.8874941541229444 4.915225550209181" Properties=species:S:1:pos:R:3:spacegroup_kinds:I:1:forces:R:3 spacegroup="P 1" unit_cell=conventional occupancy="_JSON {\"0\": {\"In\": 1}, \"1\": {\"In\": 1}, \"2\": {\"In\": 1}, \"3\": {\"In\": 1}, \"4\": {\"O\": 1}, \"5\": {\"O\": 1}, \"6\": {\"O\": 1}, \"7\": {\"O\": 1}, \"8\": {\"O\": 1}, \"9\": {\"O\": 1}}" n_minim_iter=5 energy=-11284.28151504781 stress="0.26755121545575056 -3.242538925283894e-05 -2.238929255782042e-05 -3.242538925283894e-05 0.26759378103573006 -1.208582598276962e-05 -2.238929255782042e-05 -1.208582598276962e-05 0.2676029392660922" free_energy=-11284.28151504781 pbc="T T T"
In      11.26058268       6.07849840       4.19711773        0      -0.00059265      -0.00031991      -0.00022090
In       8.70984218       4.70160055       3.24638911        1       0.00059265       0.00031991       0.00022090
In       4.60377440       2.48513209       1.71594878        2      -0.00059265      -0.00031991      -0.00022090
In       2.05303390       1.10823424       0.76522017        3       0.00059265       0.00031991       0.00022090
O        6.48857846       2.51404098       0.23814910        4       0.00000000       0.00045468      -0.00065849
O        7.65144103       5.53087253       1.26414065        5      -0.00038011       0.00070417      -0.00000000
O        8.82234986       2.37321793       2.69576187        6       0.00038011      -0.00024949      -0.00065849
O        4.49126672       4.81351471       2.26657602        7      -0.00038011       0.00024949       0.00065849
O        6.82503811       4.67269166       4.72418880        8       0.00000000      -0.00045468       0.00065849
O        5.66217554       1.65586011       3.69819725        9       0.00038011      -0.00070417       0.00000000
