10
Lattice="6.211033924625054 0.10166930157699189 0.07020122408471982 3.4931260426019732 5.136667159766369 0.07020122408471893 3.4931260426019817 1.8856005645853666 4.778575962870176" Properties=species:S:1:pos:R:3:spacegroup_kinds:I:1:forces:R:3 spacegroup="P 1" unit_cell=conventional occupancy="_JSON {\"0\": {\"In\": 1}, \"1\": {\"In\": 1}, \"2\": {\"In\": 1}, \"3\": {\"In\": 1}, \"4\": {\"O\": 1}, \"5\": {\"O\": 1}, \"6\": {\"O\": 1}, \"7\": {\"O\": 1}, \"8\": {\"O\": 1}, \"9\": {\"O\": 1}}" n_minim_iter=5 energy=-11286.874668920353 stress="0.11905833784341427 -6.862347450569367e-06 -4.738363031975514e-06 -6.862347450569367e-06 0.11906734623091528 -2.5577844664348655e-06 -4.738363031975514e-06 -2.5577844664348655e-06 0.11906928442694857" free_energy=-11286.874668920353 pbc="T T T"
In      11.18269753       6.03645575       4.16808787        0       0.00008289       0.00004474       0.00003090
In       8.61323149       4.64944980       3.21037975        1      -0.00008289      -0.00004474      -0.00003090
In       4.58405453       2.47448724       1.70859867        2       0.00008289       0.00004475       0.00003090
In       2.01458849       1.08748129       0.75089055        3      -0.00008289      -0.00004474      -0.00003090
O        6.40483847       2.48141542       0.32406357        4       0.00000000       0.00002065      -0.00002991
O        7.60833557       5.40619679       1.29994583        5      -0.00001726       0.00003198       0.00000000
O        8.69446741       2.41817140       2.71335155        6       0.00001726      -0.00001133      -0.00002991
O        4.50281861       4.70576564       2.20562686        7      -0.00001726       0.00001133       0.00002991
O        6.79244755       4.64252162       4.59491484        8       0.00000000      -0.00002065       0.00002991
O        5.58895045       1.71774024       3.61903259        9       0.00001726      -0.00003198       0.00000000
