320
Lattice="17.823177401269902 1.396932551354976e-09 -1.2120805388546904e-15 -5.941059135073675 16.803852803172724 -2.4195600366745206e-09 -5.941059133098113 -8.401926400189438 14.552563410614967" Properties=species:S:1:pos:R:3:spacegroup_kinds:I:1:forces:R:3 spacegroup="P 1" unit_cell=conventional occupancy="_JSON {\"0\": {\"In\": 1}, \"1\": {\"In\": 1}, \"2\": {\"In\": 1}, \"3\": {\"In\": 1}, \"4\": {\"In\": 1}, \"5\": {\"In\": 1}, \"6\": {\"In\": 1}, \"7\": {\"In\": 1}, \"8\": {\"In\": 1}, \"9\": {\"In\": 1}, \"10\": {\"In\": 1}, \"11\": {\"In\": 1}, \"12\": {\"In\": 1}, \"13\": {\"In\": 1}, \"14\": {\"In\": 1}, \"15\": {\"In\": 1}, \"16\": {\"O\": 1}, \"17\": {\"O\": 1}, \"18\": {\"O\": 1}, \"19\": {\"O\": 1}, \"20\": {\"O\": 1}, \"21\": {\"O\": 1}, \"22\": {\"O\": 1}, \"23\": {\"O\": 1}, \"24\": {\"O\": 1}, \"25\": {\"O\": 1}, \"26\": {\"O\": 1}, \"27\": {\"O\": 1}, \"28\": {\"O\": 1}, \"29\": {\"O\": 1}, \"30\": {\"O\": 1}, \"31\": {\"O\": 1}, \"32\": {\"O\": 1}, \"33\": {\"O\": 1}, \"34\": {\"O\": 1}, \"35\": {\"O\": 1}, \"36\": {\"O\": 1}, \"37\": {\"O\": 1}, \"38\": {\"O\": 1}, \"39\": {\"O\": 1}}" n_minim_iter=7 energy=-361215.2444789586 stress="1.9942574461074053e-05 9.906100823982211e-06 6.674656067038353e-06 9.906100823982211e-06 1.1884828172235729e-05 -5.687541445736821e-06 6.674656067038353e-06 -5.687541445736821e-06 2.6544353558247202e-05" free_energy=-45151.90561343428 pbc="T T T"
In      -4.25491387       3.00867845       5.70323862        0      -0.00083988       0.00047843      -0.00045712
In       4.65667483       3.00867845       5.70323862        0      -0.00094982      -0.00051756      -0.00141546
In      -7.22544344      11.41060485       5.70323862        0      -0.00051319       0.00035125      -0.00064795
In       1.68614526      11.41060485       5.70323862        0      -0.00057852       0.00060794      -0.00068300
In      -7.22544344      -1.19228475      12.97952033        0      -0.00049762       0.00046083      -0.00050882
In       1.68614526      -1.19228475      12.97952033        0      -0.00050990       0.00038305      -0.00063471
In     -10.19597300       7.20964165      12.97952032        0      -0.00043229       0.00055635      -0.00040765
In      -1.28438430       7.20964165      12.97952032        0      -0.00053805       0.00037005      -0.00064558
In       7.22544343       1.19228476       1.57304308        1       0.00020556      -0.00048262       0.00080100
In      16.13703213       1.19228476       1.57304308        1       0.00225155       0.00016927       0.00292816
In       4.25491386       9.59421116       1.57304308        1       0.00044840      -0.00037447       0.00067146
In      13.16650256       9.59421116       1.57304308        1       0.00058725      -0.00036472       0.00050358
In       4.25491386      -3.00867844       8.84932479        1       0.00050151      -0.00036469       0.00062181
In      13.16650256      -3.00867844       8.84932479        1       0.00054925      -0.00035184       0.00062324
In       1.28438430       5.39324796       8.84932478        1       0.00001609      -0.00063572       0.00113018
In      10.19597300       5.39324796       8.84932478        1       0.00054310      -0.00038304       0.00064439
In       1.28438429      -0.90819684       5.21118393        2       0.00097343       0.00232171      -0.00050218
In      10.19597299      -0.90819684       5.21118393        2       0.00051355      -0.00037826       0.00063986
In      -1.68614528       7.49372956       5.21118393        2      -0.00045975       0.00032499       0.00071733
In       7.22544342       7.49372956       5.21118393        2       0.00069863      -0.00039998       0.00061664
In      -1.68614528      -5.10916004      12.48746564        2       0.00043833      -0.00034592       0.00079048
In       7.22544342      -5.10916004      12.48746564        2       0.00054205      -0.00038970       0.00063155
In      -4.65667484       3.29276636      12.48746563        2       0.00047009      -0.00036457       0.00066092
In       4.25491386       3.29276636      12.48746563        2       0.00051622      -0.00038078       0.00059488
In      -4.45579435       6.30144480       3.63814085        3      -0.00096423       0.00036332       0.00010348
In       4.45579435       6.30144480       3.63814085        3       0.00220636      -0.00122335      -0.00017125
In      -7.42632392      14.70337120       3.63814085        3      -0.00007110      -0.00010480      -0.00004838
In       1.48526479      14.70337120       3.63814085        3      -0.00004564      -0.00000807       0.00000537
In      -7.42632391       2.10048160      10.91442255        3       0.00001668      -0.00003510       0.00007690
In       1.48526479       2.10048160      10.91442255        3      -0.00003165      -0.00002888      -0.00004076
In     -10.39685348      10.50240800      10.91442255        3      -0.00004155       0.00004903      -0.00001923
In      -1.48526478      10.50240800      10.91442255        3      -0.00002397       0.00001393       0.00003784
In      -1.28438430       4.05891925       3.39211350        4       0.00703710      -0.00434213       0.00090423
In       7.62720440       4.05891925       3.39211350        4      -0.00045544       0.00041940       0.00068525
In      -4.25491387      12.46084565       3.39211350        4      -0.00054962       0.00012022       0.00064032
In       4.65667483      12.46084565       3.39211350        4      -0.00058022       0.00032170       0.00068912
In      -4.25491387      -0.14204395      10.66839521        4      -0.00054054       0.00029139       0.00069975
In       4.65667483      -0.14204395      10.66839521        4      -0.00054593       0.00037898       0.00065296
In      -7.22544343       8.25988245      10.66839520        4      -0.00052308       0.00036433       0.00062581
In       1.68614527       8.25988245      10.66839520        4      -0.00049225       0.00044112       0.00086471
In       4.65667484      -2.86663449       5.45721128        5      -0.00061380      -0.00064748       0.00002482
In      13.56826354      -2.86663449       5.45721128        5      -0.00051232      -0.00074450      -0.00001072
In       1.68614527       5.53529191       5.45721128        5      -0.00760541      -0.01921497      -0.01492496
In      10.59773397       5.53529191       5.45721128        5      -0.00057669      -0.00074821       0.00002153
In       1.68614527      -7.06759769      12.73349299        5      -0.00047816      -0.00074371      -0.00005430
In      10.59773397      -7.06759769      12.73349299        5      -0.00049866      -0.00065769       0.00018205
In      -1.28438429       1.33432871      12.73349298        5      -0.00049365      -0.00077715       0.00003669
In       7.62720441       1.33432871      12.73349298        5      -0.00047266      -0.00078703       0.00003787
In      -1.28438430       1.33432871       5.45721128        6       0.00185119      -0.00024271      -0.00240332
In       7.62720440       1.33432871       5.45721128        6      -0.00074392      -0.00080101      -0.00004603
In      -4.25491387       9.73625511       5.45721128        6      -0.00066654      -0.00062084       0.00011480
In       4.65667483       9.73625511       5.45721128        6      -0.00041325      -0.00070289      -0.00005609
In      -4.25491387      -2.86663449      12.73349299        6      -0.00064590      -0.00085227      -0.00017023
In       4.65667483      -2.86663449      12.73349299        6      -0.00054398      -0.00074803      -0.00000611
In      -7.22544343       5.53529191      12.73349298        6      -0.00046072      -0.00075514      -0.00001311
In       1.68614527       5.53529191      12.73349298        6      -0.00052202      -0.00072178       0.00004998
In      -1.68614527       7.06759769       1.81907042        7      -0.00080172       0.00139660      -0.00042677
In       7.22544343       7.06759769       1.81907042        7       0.00072905       0.00076599       0.00000813
In      -4.65667484      15.46952409       1.81907042        7       0.00073325       0.00208114       0.00066156
In       4.25491386      15.46952409       1.81907042        7       0.00050269       0.00075620       0.00000052
In      -4.65667484       2.86663449       9.09535213        7       0.00056185       0.00066075       0.00004258
In       4.25491386       2.86663449       9.09535213        7       0.00053551       0.00059667      -0.00023190
In      -7.62720440      11.26856089       9.09535212        7       0.00051936       0.00073754       0.00004282
In       1.28438430      11.26856089       9.09535212        7       0.00057650       0.00063144      -0.00009358
In       4.25491386       0.14204396       3.88416820        8      -0.00216645       0.00221642      -0.00094579
In      13.16650256       0.14204396       3.88416820        8       0.00057187      -0.00026952      -0.00066568
In       1.28438429       8.54397036       3.88416820        8      -0.00056871       0.00181087      -0.00047402
In      10.19597299       8.54397036       3.88416820        8       0.00050821      -0.00032895      -0.00064793
In       1.28438429      -4.05891924      11.16044991        8       0.00051629      -0.00038638      -0.00063664
In      10.19597299      -4.05891924      11.16044991        8       0.00048128      -0.00043301      -0.00067513
In      -1.68614527       4.34300716      11.16044990        8       0.00051713      -0.00047646      -0.00061350
In       7.22544343       4.34300716      11.16044990        8       0.00053512      -0.00035918      -0.00061388
In       7.42632391       4.20096320      -0.00000000        9      -0.00002254      -0.00000433       0.00004835
In      16.33791261       4.20096320      -0.00000000        9      -0.00093431      -0.00110705      -0.00188198
In       4.45579434      12.60288960      -0.00000000        9      -0.00002698       0.00000064       0.00000740
In      13.36738304      12.60288960      -0.00000000        9       0.00000315      -0.00009540      -0.00001040
In       4.45579434       0.00000000       7.27628171        9       0.00000965      -0.00009322      -0.00002201
In      13.36738304       0.00000000       7.27628171        9       0.00001323       0.00007551      -0.00004649
In       1.48526478       8.40192640       7.27628170        9       0.00037596       0.00134619       0.00112139
In      10.39685348       8.40192640       7.27628170        9       0.00001381      -0.00000070      -0.00000295
In       4.25491386       6.44348876       0.24602734       10       0.00083000      -0.00032159      -0.00049477
In      13.16650256       6.44348876       0.24602734       10       0.00063063      -0.00020312      -0.00050579
In       1.28438429      14.84541516       0.24602734       10       0.00049929      -0.00037239      -0.00066421
In      10.19597299      14.84541516       0.24602734       10       0.00054930      -0.00032330      -0.00050450
In       1.28438429       2.24252556       7.52230905       10       0.00059782      -0.00084845      -0.00204029
In      10.19597299       2.24252556       7.52230905       10       0.00048910      -0.00036052      -0.00064203
In      -1.68614527      10.64445196       7.52230904       10       0.00043971      -0.00037288      -0.00067849
In       7.22544343      10.64445196       7.52230904       10       0.00059996      -0.00035294      -0.00062763
In      -1.28438430      -2.24252555       7.03025436       11      -0.00044064       0.00051027       0.00048006
In       7.62720440      -2.24252555       7.03025436       11      -0.00051804       0.00037974       0.00067087
In      -4.25491387       6.15940085       7.03025436       11      -0.00055801       0.00052786       0.00054522
In       4.65667483       6.15940085       7.03025436       11       0.00007043       0.00034018       0.00048500
In      -4.25491387      -6.44348875      14.30653607       11      -0.00048035       0.00160635       0.00330945
In       4.65667483      -6.44348875      14.30653607       11      -0.00050751       0.00036702       0.00065210
In      -7.22544343       1.95843765      14.30653606       11      -0.00057165       0.00049056       0.00073316
In       1.68614527       1.95843765      14.30653606       11      -0.00053870       0.00035998       0.00065479
In       4.25491386       2.86663449       1.81907042       12      -0.00131897       0.00049567       0.00072229
In      13.16650256       2.86663449       1.81907042       12       0.00038120       0.00069669      -0.00000908
In       1.28438429      11.26856089       1.81907042       12       0.00049237       0.00065253       0.00003943
In      10.19597299      11.26856089       1.81907042       12       0.00052269       0.00070364       0.00000985
In       1.28438429      -1.33432871       9.09535213       12       0.00053509       0.00090597      -0.00025595
In      10.19597299      -1.33432871       9.09535213       12       0.00053928       0.00074171      -0.00000295
In      -1.68614527       7.06759769       9.09535212       12       0.00060860       0.00085260      -0.00018926
In       7.22544343       7.06759769       9.09535212       12       0.00048397       0.00075106      -0.00003085
In       1.68614527       5.10916005       2.06509777       13      -0.00055531      -0.00789632       0.00296330
In      10.59773397       5.10916005       2.06509777       13      -0.00057529       0.00036907      -0.00065258
In      -1.28438430      13.51108645       2.06509777       13      -0.00044272       0.00022691      -0.00063440
In       7.62720440      13.51108645       2.06509777       13      -0.00056919       0.00034286      -0.00061183
In      -1.28438430       0.90819685       9.34137948       13      -0.00062501       0.00043238      -0.00056107
In       7.62720440       0.90819685       9.34137948       13      -0.00050690       0.00037208      -0.00062304
In      -4.25491386       9.31012325       9.34137947       13      -0.00048606       0.00032443      -0.00068592
In       4.65667484       9.31012325       9.34137947       13      -0.00054663       0.00035937      -0.00067658
In       1.48526478       8.40192640      -0.00000000       14       0.00004490       0.00040552      -0.00001493
In      10.39685348       8.40192640      -0.00000000       14      -0.00000910       0.00000126       0.00001484
In      -1.48526479      16.80385280      -0.00000000       14       0.00001200      -0.00008798      -0.00005206
In       7.42632392      16.80385280      -0.00000000       14      -0.00001833       0.00010088      -0.00001630
In      -1.48526478       4.20096320       7.27628170       14       0.00003825      -0.00037400       0.00031692
In       7.42632392       4.20096320       7.27628170       14      -0.00005582      -0.00003251      -0.00004105
In      -4.45579435      12.60288960       7.27628170       14       0.00002052       0.00001194      -0.00003784
In       4.45579435      12.60288960       7.27628170       14      -0.00001448       0.00000895      -0.00001186
In       1.48526478       2.10048160       3.63814085       15       0.01030665      -0.03460244      -0.00523633
In      10.39685348       2.10048160       3.63814085       15      -0.00000591       0.00001977      -0.00000553
In      -1.48526479      10.50240800       3.63814085       15      -0.00005693      -0.00015111      -0.00001619
In       7.42632391      10.50240800       3.63814085       15       0.00001648       0.00002223      -0.00002515
In      -1.48526479      -2.10048160      10.91442256       15      -0.00006003       0.00002585       0.00007196
In       7.42632391      -2.10048160      10.91442256       15      -0.00002108       0.00002601      -0.00002280
In      -4.45579435       6.30144480      10.91442255       15      -0.00000548       0.00002206       0.00000374
In       4.45579435       6.30144480      10.91442255       15      -0.00002990       0.00001492      -0.00005085
O        0.87855143       4.19180209       3.95934683       16      -0.00851237       0.08982469       0.02086122
O        9.78680680       4.20123018       3.95934683       16       0.00057539      -0.00097812       0.00244608
O       -2.09531147      12.60315658       3.95934683       16       0.00051579      -0.00089749       0.00239976
O        6.81627723      12.60315658       3.95934683       16       0.00068215      -0.00082974       0.00243321
O       -2.09531147       0.00026698      11.23562854       16       0.00059574      -0.00099513       0.00236596
O        6.81627723       0.00026698      11.23562854       16       0.00055448      -0.00100431       0.00244173
O       -5.06584103       8.40219338      11.23562853       16       0.00056542      -0.00099914       0.00246789
O        3.84574767       8.40219338      11.23562853       16       0.00053469      -0.00094628       0.00253193
O       -2.09531147       3.42876145       5.29637707       17       0.00140419       0.00346682      -0.00115150
O        6.81627723       3.42876145       5.29637707       17       0.00110748       0.00264441      -0.00039130
O       -5.06584104      11.83068785       5.29637707       17       0.00060533       0.00254822      -0.00039775
O        3.84574766      11.83068785       5.29637707       17       0.00052625       0.00248873      -0.00038323
O       -5.06584104      -0.77220175      12.57265878       17       0.00060847       0.00278203      -0.00043763
O        3.84574766      -0.77220175      12.57265878       17       0.00055671       0.00261982      -0.00038672
O       -8.03637060       7.62972465      12.57265877       17       0.00064981       0.00247026      -0.00054128
O        0.87521810       7.62972465      12.57265877       17       0.00057314       0.00252097      -0.00044607
O       -0.43604771       2.25548480       0.05227014       18       0.00140717       0.00159394       0.00007808
O        8.47554099       2.25548480       0.05227014       18       0.00182564       0.00180700       0.00101057
O       -3.40657728      10.65741120       0.05227014       18       0.00179170       0.00165344       0.00104392
O        5.50501142      10.65741120       0.05227014       18       0.00162603       0.00171571       0.00110104
O       -3.40657728      -1.94547840       7.32855185       18       0.00160411       0.00169247       0.00114672
O        5.50501142      -1.94547840       7.32855185       18       0.00178652       0.00173229       0.00123951
O       -6.37710684       6.45644800       7.32855184       18       0.00177299       0.00181503       0.00099618
O        2.53448186       6.45644800       7.32855184       18       0.00172792       0.00180532       0.00084830
O       -0.87521810      -0.77193477       1.97944220       19      -0.00019329       0.00184182       0.00192051
O        8.03637060      -0.77193477       1.97944220       19      -0.00047527       0.00163240       0.00200793
O       -3.84574767       7.62999163       1.97944220       19      -0.00056315       0.00145143       0.00215461
O        5.06584103       7.62999163       1.97944220       19      -0.00102197       0.00152046       0.00221378
O       -3.84574767      -4.97289797       9.25572391       19      -0.00054209       0.00164907       0.00202899
O        5.06584103      -4.97289797       9.25572391       19      -0.00052169       0.00158846       0.00206733
O       -6.81627723       3.42902843       9.25572390       19      -0.00055045       0.00162027       0.00205595
O        2.09531147       3.42902843       9.25572390       19      -0.00049544       0.00155350       0.00206508
O        3.93110445       5.00307615       1.92717206       20       0.00196820      -0.00007017       0.00097981
O       12.84269315       5.00307615       1.92717206       20       0.00234912      -0.00096869       0.00116587
O        0.96057488      13.40500255       1.92717206       20       0.00229462      -0.00126116       0.00094843
O        9.87216358      13.40500255       1.92717206       20       0.00219673      -0.00105948       0.00092944
O        0.96057488       0.80211295       9.20345377       20       0.00219601      -0.00116682       0.00134895
O        9.87216358       0.80211295       9.20345377       20       0.00226130      -0.00101499       0.00099090
O       -2.00995468       9.20403935       9.20345376       20       0.00220538      -0.00086977       0.00126210
O        6.90163402       9.20403935       9.20345376       20       0.00225288      -0.00113195       0.00089156
O        2.00995468       2.93303972       1.65823622       21       0.00255060      -0.00530773      -0.01377699
O       10.92154338       2.93303972       1.65823622       21      -0.00223279      -0.00139140      -0.00036438
O       -0.96057489      11.33496612       1.65823622       21      -0.00227087      -0.00116547      -0.00057197
O        7.95101381      11.33496612       1.65823622       21      -0.00226522      -0.00139731      -0.00037944
O       -0.96057489      -1.26792348       8.93451793       21      -0.00210098      -0.00120292      -0.00055121
O        7.95101381      -1.26792348       8.93451793       21      -0.00228318      -0.00139336      -0.00037563
O       -3.93110445       7.13400292       8.93451792       21      -0.00231833      -0.00135108      -0.00033476
O        4.98048425       7.13400292       8.93451792       21      -0.00209034      -0.00129357      -0.00026471
O        2.00995468       6.27099964       0.26893584       22      -0.00217472       0.00040959       0.00121748
O       10.92154338       6.27099964       0.26893584       22      -0.00213244       0.00038700       0.00143354
O       -0.96057489      14.67292604       0.26893584       22      -0.00229107       0.00029010       0.00131736
O        7.95101381      14.67292604       0.26893584       22      -0.00235465       0.00032846       0.00136574
O       -0.96057489       2.07003644       7.54521755       22      -0.00266359       0.00015243       0.00200695
O        7.95101381       2.07003644       7.54521755       22      -0.00212561       0.00037365       0.00148357
O       -3.93110445      10.47196284       7.54521754       22      -0.00214588       0.00026249       0.00128954
O        4.98048425      10.47196284       7.54521754       22      -0.00235382       0.00035566       0.00137344
O       -2.27184070       5.96072626       3.69041099       23       0.00044312      -0.00459351       0.00036105
O        6.63974800       5.96072626       3.69041099       23      -0.00069022      -0.00224354       0.00102915
O       -5.24237027      14.36265266       3.69041099       23      -0.00088288      -0.00155605       0.00127540
O        3.66921843      14.36265266       3.69041099       23      -0.00110687      -0.00211583       0.00104800
O       -5.24237027       1.75976306      10.96669270       23      -0.00121211      -0.00221937       0.00107396
O        3.66921843       1.75976306      10.96669270       23      -0.00107010      -0.00226117       0.00099443
O       -8.21289983      10.16168946      10.96669269       23      -0.00107283      -0.00222354       0.00094652
O        0.69868887      10.16168946      10.96669269       23      -0.00108413      -0.00222202       0.00103665
O        3.40657728       1.94547840       7.22401156       24      -0.00136180      -0.00143377      -0.00054400
O       12.31816598       1.94547840       7.22401156       24      -0.00169645      -0.00175449      -0.00106052
O        0.43604771      10.34740480       7.22401156       24      -0.00168244      -0.00176777      -0.00118492
O        9.34763641      10.34740480       7.22401156       24      -0.00174325      -0.00179804      -0.00105709
O        0.43604771      -2.25548480      14.50029327       24      -0.00167259      -0.00165866      -0.00110794
O        9.34763641      -2.25548480      14.50029327       24      -0.00105881      -0.00155077      -0.00071389
O       -2.53448185       6.14644160      14.50029326       24      -0.00171553      -0.00180062      -0.00105469
O        6.37710685       6.14644160      14.50029326       24      -0.00185006      -0.00193417      -0.00132586
O        5.24237026      -1.75976306       3.58587070       25       0.00089540       0.00247753      -0.00101465
O       14.15395896      -1.75976306       3.58587070       25       0.00102178       0.00226474      -0.00112650
O        2.27184069       6.64216334       3.58587070       25      -0.00934576      -0.01081820       0.00121670
O       11.18342939       6.64216334       3.58587070       25       0.00117918       0.00226267      -0.00103136
O        2.27184069      -5.96072626      10.86215241       25       0.00110555       0.00222470      -0.00103788
O       11.18342939      -5.96072626      10.86215241       25       0.00111331       0.00215853      -0.00098458
O       -0.69868887       2.44120014      10.86215240       25       0.00104055       0.00220931      -0.00112950
O        8.21289983       2.44120014      10.86215240       25       0.00111117       0.00221056      -0.00104292
O        6.37710684       3.27349128       1.71096879       26      -0.00156983       0.00181533      -0.00109123
O       15.28869554       3.27349128       1.71096879       26      -0.00206073       0.00252844      -0.00014750
O        3.40657727      11.67541768       1.71096879       26      -0.00174362       0.00174158      -0.00095459
O       12.31816597      11.67541768       1.71096879       26      -0.00166380       0.00169887      -0.00103743
O        3.40657727      -0.92747192       8.98725050       26      -0.00179571       0.00196108      -0.00124169
O       12.31816597      -0.92747192       8.98725050       26      -0.00171993       0.00176725      -0.00102026
O        0.43604771       7.47445448       8.98725049       26      -0.00185225       0.00157164      -0.00134424
O        9.34763641       7.47445448       8.98725049       26      -0.00175152       0.00177904      -0.00102619
O        3.66921843       2.31610815       3.90707669       27       0.00545548       0.00036661       0.00160203
O       12.58080713       2.31610815       3.90707669       27      -0.00090288       0.00198533       0.00133188
O        0.69868886      10.71803455       3.90707669       27      -0.00074174       0.00230293       0.00154166
O        9.61027756      10.71803455       3.90707669       27      -0.00107809       0.00206686       0.00139309
O        0.69868886      -1.88485505      11.18335840       27      -0.00110068       0.00203883       0.00137324
O        9.61027756      -1.88485505      11.18335840       27      -0.00108977       0.00205121       0.00151963
O       -2.27184070       6.51707135      11.18335839       27      -0.00108087       0.00199669       0.00143569
O        6.63974800       6.51707135      11.18335839       27      -0.00118924       0.00198096       0.00135074
O        0.69868887       4.32605520       6.95507572       28      -0.00061444       0.00305664      -0.00388457
O        9.61027757       4.32605520       6.95507572       28      -0.00105039       0.00017289      -0.00244067
O       -2.27184070      12.72798160       6.95507572       28      -0.00104954       0.00013037      -0.00239421
O        6.63974800      12.72798160       6.95507572       28      -0.00106346       0.00027381      -0.00244606
O       -2.27184070       0.12509200      14.23135743       28      -0.00125373       0.00027320      -0.00251281
O        6.63974800       0.12509200      14.23135743       28      -0.00097533       0.00013317      -0.00237633
O       -5.24237026       8.52701840      14.23135742       28      -0.00097974       0.00015753      -0.00254299
O        3.66921844       8.52701840      14.23135742       28      -0.00125394       0.00021782      -0.00252033
O        2.27184070      -0.12509199       0.32120598       29       0.00106778      -0.00073687       0.00255241
O       11.18342940      -0.12509199       0.32120598       29       0.00107638      -0.00020457       0.00243740
O       -0.69868887       8.27683441       0.32120598       29       0.00109408      -0.00067680       0.00217794
O        8.21289983       8.27683441       0.32120598       29       0.00109556      -0.00020569       0.00245473
O       -0.69868887      -4.32605519       7.59748769       29       0.00107577      -0.00029432       0.00253891
O        8.21289983      -4.32605519       7.59748769       29       0.00109590      -0.00034150       0.00241178
O       -3.66921843       4.07587121       7.59748768       29       0.00107712      -0.00019154       0.00256049
O        5.24237027       4.07587121       7.59748768       29       0.00109669      -0.00015997       0.00250007
O       -3.40657728       0.92747193       5.56531291       30       0.00184818      -0.00177062       0.00121171
O        5.50501142       0.92747193       5.56531291       30       0.00232387      -0.00219742       0.00149926
O       -6.37710685       9.32939833       5.56531291       30       0.00179446      -0.00188077       0.00101863
O        2.53448185       9.32939833       5.56531291       30       0.00109669      -0.00220440       0.00065705
O       -6.37710685      -3.27349127      12.84159462       30       0.00173357      -0.00180173       0.00150045
O        2.53448185      -3.27349127      12.84159462       30       0.00168469      -0.00182106       0.00102840
O       -9.34763641       5.12843513      12.84159461       30       0.00169168      -0.00176921       0.00106134
O       -0.43604771       5.12843513      12.84159461       30       0.00170769      -0.00179161       0.00103463
O        5.06584103       0.77220175       1.97990463       31      -0.00039832      -0.00321898       0.00028690
O       13.97742973       0.77220175       1.97990463       31      -0.00089840      -0.00256058       0.00029740