40
Lattice="5.8549640089679995 -1.0636869646931726e-42 0.0 -3.78621295297271e-43 6.095153919035795 0.0 0.0 0.0 17.150020735138867" Properties=species:S:1:pos:R:3:spacegroup_kinds:I:1:forces:R:3 spacegroup="P 1" unit_cell=conventional occupancy="_JSON {\"0\": {\"In\": 1}, \"1\": {\"In\": 1}, \"2\": {\"In\": 1}, \"3\": {\"In\": 1}, \"4\": {\"In\": 1}, \"5\": {\"In\": 1}, \"6\": {\"In\": 1}, \"7\": {\"In\": 1}, \"8\": {\"In\": 1}, \"9\": {\"In\": 1}, \"10\": {\"In\": 1}, \"11\": {\"In\": 1}, \"12\": {\"In\": 1}, \"13\": {\"In\": 1}, \"14\": {\"In\": 1}, \"15\": {\"In\": 1}, \"16\": {\"O\": 1}, \"17\": {\"O\": 1}, \"18\": {\"O\": 1}, \"19\": {\"O\": 1}, \"20\": {\"O\": 1}, \"21\": {\"O\": 1}, \"22\": {\"O\": 1}, \"23\": {\"O\": 1}, \"24\": {\"O\": 1}, \"25\": {\"O\": 1}, \"26\": {\"O\": 1}, \"27\": {\"O\": 1}, \"28\": {\"O\": 1}, \"29\": {\"O\": 1}, \"30\": {\"O\": 1}, \"31\": {\"O\": 1}, \"32\": {\"O\": 1}, \"33\": {\"O\": 1}, \"34\": {\"O\": 1}, \"35\": {\"O\": 1}, \"36\": {\"O\": 1}, \"37\": {\"O\": 1}, \"38\": {\"O\": 1}, \"39\": {\"O\": 1}}" n_minim_iter=18 energy=-45147.569420494605 stress="0.0457798660819841 -4.365898236402277e-13 2.1075094990471144e-13 -4.365898236402277e-13 0.04577771292920686 -4.276406485964174e-13 2.1075094990471144e-13 -4.276406485964174e-13 0.04578476069615017" free_energy=-45147.569420494605 pbc="T T T"
In       2.67474748       5.08164736       9.90535480        0      -0.00139738      -0.00064995       0.00043554
In      -0.25273453       4.06108352       7.24466594        1      -0.00139738       0.00064995      -0.00043554
In       3.18021653       2.03407040      15.81967631        2       0.00139738      -0.00064995      -0.00043554
In       6.10769854       1.01350656       1.33034443        3       0.00139738       0.00064995       0.00043554
In       3.18021653       1.01350656       7.24466594        4       0.00139738       0.00064995      -0.00043554
In       6.10769854       2.03407040       9.90535480        5       0.00139738      -0.00064995       0.00043554
In       2.67474748       4.06108352       1.33034443        6      -0.00139738       0.00064995       0.00043554
In      -0.25273453       5.08164736      15.81967631        7      -0.00139738      -0.00064995      -0.00043554
In       2.68136067       4.77977816      13.92908275        8       0.00087363       0.00099465       0.00243453
In       5.60884267       4.36295272       3.22093798        9       0.00087363      -0.00099465      -0.00243453
In       3.17360334       1.73220120      11.79594835       10      -0.00087363       0.00099465      -0.00243453
In       0.24612134       1.31537576       5.35407239       11      -0.00087363      -0.00099465       0.00243453
In       3.17360334       1.31537576       3.22093798       12      -0.00087363      -0.00099465      -0.00243453
In       0.24612134       1.73220120      13.92908275       13      -0.00087363       0.00099465       0.00243453
In       2.68136067       4.36295272       5.35407239       14       0.00087363      -0.00099465       0.00243453
In       5.60884267       4.77977816      11.79594835       15       0.00087363       0.00099465      -0.00243453
O        4.84299820       5.59745286      13.70107542       16       0.00126777       0.00113473       0.00119808
O        1.91551619       3.54527802       3.44894532       17       0.00126777      -0.00113473      -0.00119808
O        1.01196581       2.54987590      12.02395569       18      -0.00126777       0.00113473      -0.00119808
O        3.93944782       0.49770106       5.12606505       19      -0.00126777      -0.00113473       0.00119808
O        1.01196581       0.49770106       3.44894532       20      -0.00126777      -0.00113473      -0.00119808
O        3.93944782       2.54987590      13.70107542       21      -0.00126777       0.00113473       0.00119808
O        4.84299820       3.54527802       5.12606505       22       0.00126777      -0.00113473       0.00119808
O        1.91551619       5.59745286      12.02395569       23       0.00126777       0.00113473      -0.00119808
O        4.07447704       3.50307453      10.80795531       24       0.00319237      -0.00097691       0.00313189
O        1.14699504       5.63965635       6.34206543       25       0.00319237       0.00097691      -0.00313189
O        1.78048697       0.45549757      14.91707579       26      -0.00319237      -0.00097691      -0.00313189
O        4.70796897       2.59207939       2.23294494       27      -0.00319237       0.00097691       0.00313189
O        1.78048697       2.59207939       6.34206543       28      -0.00319237       0.00097691      -0.00313189
O        4.70796897       0.45549757      10.80795531       29      -0.00319237      -0.00097691       0.00313189
O        4.07447704       5.63965635       2.23294494       30       0.00319237       0.00097691       0.00313189
O        1.14699504       3.50307453      14.91707579       31       0.00319237      -0.00097691      -0.00313189
O        3.68908956       4.12005964      16.36746335       32      -0.00058275       0.00069183       0.00007735
O        0.76160756       5.02267124       0.78255739       33      -0.00058275      -0.00069183      -0.00007735
O        2.16587445       1.07248268       9.35756776       34       0.00058275       0.00069183      -0.00007735
O        5.09335645       1.97509428       7.79245298       35       0.00058275      -0.00069183       0.00007735
O        2.16587445       1.97509428       0.78255739       36       0.00058275      -0.00069183      -0.00007735
O        5.09335645       1.07248268      16.36746335       37       0.00058275       0.00069183       0.00007735
O        3.68908956       5.02267124       7.79245298       38      -0.00058275      -0.00069183       0.00007735
O        0.76160756       4.12005964       9.35756776       39      -0.00058275       0.00069183      -0.00007735
