40
Lattice="5.873341735418336 -1.3952982047625661e-42 0.0 7.785783577819114e-43 6.17283638495675 0.0 0.0 0.0 17.240382594914948" Properties=species:S:1:pos:R:3:spacegroup_kinds:I:1:forces:R:3 spacegroup="P 1" unit_cell=conventional occupancy="_JSON {\"0\": {\"In\": 1}, \"1\": {\"In\": 1}, \"2\": {\"In\": 1}, \"3\": {\"In\": 1}, \"4\": {\"In\": 1}, \"5\": {\"In\": 1}, \"6\": {\"In\": 1}, \"7\": {\"In\": 1}, \"8\": {\"In\": 1}, \"9\": {\"In\": 1}, \"10\": {\"In\": 1}, \"11\": {\"In\": 1}, \"12\": {\"In\": 1}, \"13\": {\"In\": 1}, \"14\": {\"In\": 1}, \"15\": {\"In\": 1}, \"16\": {\"O\": 1}, \"17\": {\"O\": 1}, \"18\": {\"O\": 1}, \"19\": {\"O\": 1}, \"20\": {\"O\": 1}, \"21\": {\"O\": 1}, \"22\": {\"O\": 1}, \"23\": {\"O\": 1}, \"24\": {\"O\": 1}, \"25\": {\"O\": 1}, \"26\": {\"O\": 1}, \"27\": {\"O\": 1}, \"28\": {\"O\": 1}, \"29\": {\"O\": 1}, \"30\": {\"O\": 1}, \"31\": {\"O\": 1}, \"32\": {\"O\": 1}, \"33\": {\"O\": 1}, \"34\": {\"O\": 1}, \"35\": {\"O\": 1}, \"36\": {\"O\": 1}, \"37\": {\"O\": 1}, \"38\": {\"O\": 1}, \"39\": {\"O\": 1}}" n_minim_iter=9 energy=-45146.90058723929 stress="0.05620875234136625 -9.93929087008103e-13 8.628683642227452e-14 -9.93929087008103e-13 0.05612305146773493 -1.1050415972319112e-13 8.628683642227452e-14 -1.1050415972319112e-13 0.05620484018497099" free_energy=-45146.90058723929 pbc="T T T"
In       2.68199434       5.15533853       9.95974849        0      -0.00189310       0.00460043       0.00694742
In      -0.25467652       4.10391605       7.28063411        1      -0.00189310      -0.00460043      -0.00694742
In       3.19134739       2.06892034      15.90082541        2       0.00189310       0.00460043      -0.00694742
In       6.12801826       1.01749785       1.33955719        3       0.00189310      -0.00460043       0.00694742
In       3.19134739       1.01749785       7.28063411        4       0.00189310      -0.00460043      -0.00694742
In       6.12801826       2.06892034       9.95974849        5       0.00189310       0.00460043       0.00694742
In       2.68199434       4.10391605       1.33955719        6      -0.00189310      -0.00460043       0.00694742
In      -0.25467652       5.15533853      15.90082541        7      -0.00189310       0.00460043      -0.00694742
In       2.68842458       4.86447617      14.00634479        8       0.00392722       0.00403211       0.00528729
In       5.62509544       4.39477841       3.23403781        9       0.00392722      -0.00403211      -0.00528729
In       3.18491716       1.77805798      11.85422911       10      -0.00392722       0.00403211      -0.00528729
In       0.24824629       1.30836021       5.38615349       11      -0.00392722      -0.00403211       0.00528729
In       3.18491716       1.30836021       3.23403781       12      -0.00392722      -0.00403211      -0.00528729
In       0.24824629       1.77805798      14.00634479       13      -0.00392722       0.00403211       0.00528729
In       2.68842458       4.39477841       5.38615349       14       0.00392722      -0.00403211       0.00528729
In       5.62509544       4.86447617      11.85422911       15       0.00392722       0.00403211      -0.00528729
O        4.84909793       5.63801174      13.78332119       16       0.00719598       0.00041710       0.00011669
O        1.91242706       3.62124284       3.45706141       17       0.00719598      -0.00041710      -0.00011669
O        1.02424380       2.55159354      12.07725270       18      -0.00719598       0.00041710      -0.00011669
O        3.96091467       0.53482465       5.16312989       19      -0.00719598      -0.00041710       0.00011669
O        1.02424380       0.53482465       3.45706141       20      -0.00719598      -0.00041710      -0.00011669
O        3.96091467       2.55159354      13.78332119       21      -0.00719598       0.00041710       0.00011669
O        4.84909793       3.62124284       5.16312989       22       0.00719598      -0.00041710       0.00011669
O        1.91242706       5.63801174      12.07725270       23       0.00719598       0.00041710      -0.00011669
O        4.09047132       3.57339770      10.88063563       24       0.00064715       0.00327075      -0.00809930
O        1.15380045       5.68585688       6.35974696       25       0.00064715      -0.00327075       0.00809930
O        1.78287042       0.48697951      14.97993826       26      -0.00064715       0.00327075       0.00809930
O        4.71954129       2.59943868       2.26044434       27      -0.00064715      -0.00327075      -0.00809930
O        1.78287042       2.59943868       6.35974696       28      -0.00064715      -0.00327075       0.00809930
O        4.71954129       0.48697951      10.88063563       29      -0.00064715       0.00327075      -0.00809930
O        4.09047132       5.68585688       2.26044434       30       0.00064715      -0.00327075      -0.00809930
O        1.15380045       3.57339770      14.97993826       31       0.00064715       0.00327075       0.00809930
O        3.70298848       4.15868346      16.46241372       32       0.00255035      -0.00163275      -0.00016334
O        0.76631762       5.10057112       0.77796888       33       0.00255035       0.00163275       0.00016334
O        2.17035325       1.07226526       9.39816018       34      -0.00255035      -0.00163275       0.00016334
O        5.10702412       2.01415293       7.84222242       35      -0.00255035       0.00163275      -0.00016334
O        2.17035325       2.01415293       0.77796888       36      -0.00255035       0.00163275       0.00016334
O        5.10702412       1.07226526      16.46241372       37      -0.00255035      -0.00163275      -0.00016334
O        3.70298848       5.10057112       7.84222242       38       0.00255035       0.00163275      -0.00016334
O        0.76631762       4.15868346       9.39816018       39       0.00255035      -0.00163275       0.00016334
