40
Lattice="5.417223087256804 2.3538925716038275e-42 0.0 -2.4687940871578445e-42 5.681656201294765 0.0 0.0 0.0 15.654015192594207" Properties=species:S:1:pos:R:3:spacegroup_kinds:I:1:forces:R:3 spacegroup="P 1" unit_cell=conventional occupancy="_JSON {\"0\": {\"In\": 1}, \"1\": {\"In\": 1}, \"2\": {\"In\": 1}, \"3\": {\"In\": 1}, \"4\": {\"In\": 1}, \"5\": {\"In\": 1}, \"6\": {\"In\": 1}, \"7\": {\"In\": 1}, \"8\": {\"In\": 1}, \"9\": {\"In\": 1}, \"10\": {\"In\": 1}, \"11\": {\"In\": 1}, \"12\": {\"In\": 1}, \"13\": {\"In\": 1}, \"14\": {\"In\": 1}, \"15\": {\"In\": 1}, \"16\": {\"O\": 1}, \"17\": {\"O\": 1}, \"18\": {\"O\": 1}, \"19\": {\"O\": 1}, \"20\": {\"O\": 1}, \"21\": {\"O\": 1}, \"22\": {\"O\": 1}, \"23\": {\"O\": 1}, \"24\": {\"O\": 1}, \"25\": {\"O\": 1}, \"26\": {\"O\": 1}, \"27\": {\"O\": 1}, \"28\": {\"O\": 1}, \"29\": {\"O\": 1}, \"30\": {\"O\": 1}, \"31\": {\"O\": 1}, \"32\": {\"O\": 1}, \"33\": {\"O\": 1}, \"34\": {\"O\": 1}, \"35\": {\"O\": 1}, \"36\": {\"O\": 1}, \"37\": {\"O\": 1}, \"38\": {\"O\": 1}, \"39\": {\"O\": 1}}" n_minim_iter=1 energy=-45149.52599891573 stress="-0.045832096614683196 4.90011602540551e-13 -1.0766399698197106e-13 4.90011602540551e-13 -0.04800479929003999 -2.9178253733991596e-13 -1.0766399698197106e-13 -2.9178253733991596e-13 -0.044521497944401835" free_energy=-45149.52599891573 pbc="T T T"
In       2.70250163       4.57341223       8.95216551        0      -0.00778884       0.03899136       0.03950981
In      -0.00610991       3.94907208       6.70184968        1      -0.00778884      -0.03899136      -0.03950981
In       2.71472146       1.73258413      14.52885728        2       0.00778884       0.03899136      -0.03950981
In       5.42333300       1.10824397       1.12515791        3       0.00778884      -0.03899136       0.03950981
In       2.71472146       1.10824397       6.70184968        4       0.00778884      -0.03899136      -0.03950981
In       5.42333300       1.73258413       8.95216551        5       0.00778884       0.03899136       0.03950981
In       2.70250163       3.94907208       1.12515791        6      -0.00778884      -0.03899136       0.03950981
In      -0.00610991       4.57341223      14.52885728        7      -0.00778884       0.03899136      -0.03950981
In       2.70191275       4.27788981      12.81361519        8       0.04418980      -0.03676963      -0.00345048
In       5.41052429       4.24459450       2.84040000        9       0.04418980       0.03676963       0.00345048
In       2.71531034       1.43706171      10.66740760       10      -0.04418980      -0.03676963       0.00345048
In       0.00669879       1.40376639       4.98660759       11      -0.04418980       0.03676963      -0.00345048
In       2.71531034       1.40376639       2.84040000       12      -0.04418980       0.03676963       0.00345048
In       0.00669879       1.43706171      12.81361519       13      -0.04418980      -0.03676963      -0.00345048
In       2.70191275       4.24459450       4.98660759       14       0.04418980       0.03676963      -0.00345048
In       5.41052429       4.27788981      10.66740760       15       0.04418980      -0.03676963       0.00345048
O        4.65453619       5.05475464      12.48844778       16       0.05593019       0.04920660      -0.00753771
O        1.94592465       3.46772966       3.16556741       17       0.05593019      -0.04920660       0.00753771
O        0.76268689       2.21392654      10.99257501       18      -0.05593019       0.04920660       0.00753771
O        3.47129844       0.62690156       4.66144019       19      -0.05593019      -0.04920660      -0.00753771
O        0.76268689       0.62690156       3.16556741       20      -0.05593019      -0.04920660       0.00753771
O        3.47129844       2.21392654      12.48844778       21      -0.05593019       0.04920660      -0.00753771
O        4.65453619       3.46772966       4.66144019       22       0.05593019      -0.04920660      -0.00753771
O        1.94592465       5.05475464      10.99257501       23       0.05593019       0.04920660       0.00753771
O        3.83551333       3.02782126       9.78416368       24       0.08618303      -0.03949153       0.06188236
O        1.12690179       5.49466304       5.86985151       25       0.08618303       0.03949153      -0.06188236
O        1.58170975       0.18699316      13.69685910       26      -0.08618303      -0.03949153      -0.06188236
O        4.29032130       2.65383494       1.95715609       27      -0.08618303       0.03949153       0.06188236
O        1.58170975       2.65383494       5.86985151       28      -0.08618303       0.03949153      -0.06188236
O        4.29032130       0.18699316       9.78416368       29      -0.08618303      -0.03949153       0.06188236
O        3.83551333       5.49466304       1.95715609       30       0.08618303       0.03949153       0.06188236
O        1.12690179       3.02782126      13.69685910       31       0.08618303      -0.03949153      -0.06188236
O        3.48792980       3.77207992      14.83162838       32      -0.06778088      -0.01648484      -0.08021623
O        0.77931826       4.75040438       0.82238681       33      -0.06778088       0.01648484       0.08021623
O        1.92929329       0.93125182       8.64939441       34       0.06778088      -0.01648484       0.08021623
O        4.63790483       1.90957628       7.00462079       35       0.06778088       0.01648484      -0.08021623
O        1.92929329       1.90957628       0.82238681       36       0.06778088       0.01648484       0.08021623
O        4.63790483       0.93125182      14.83162838       37       0.06778088      -0.01648484      -0.08021623
O        3.48792980       4.75040438       7.00462079       38      -0.06778088       0.01648484      -0.08021623
O        0.77931826       3.77207992       8.64939441       39      -0.06778088      -0.01648484       0.08021623
40
Lattice="5.415200073972627 2.354634137227541e-42 0.0 -2.4731244606907593e-42 5.695596123241241 0.0 0.0 0.0 15.621535848828975" Properties=species:S:1:pos:R:3:spacegroup_kinds:I:1:forces:R:3 spacegroup="P 1" unit_cell=conventional occupancy="_JSON {\"0\": {\"In\": 1}, \"1\": {\"In\": 1}, \"2\": {\"In\": 1}, \"3\": {\"In\": 1}, \"4\": {\"In\": 1}, \"5\": {\"In\": 1}, \"6\": {\"In\": 1}, \"7\": {\"In\": 1}, \"8\": {\"In\": 1}, \"9\": {\"In\": 1}, \"10\": {\"In\": 1}, \"11\": {\"In\": 1}, \"12\": {\"In\": 1}, \"13\": {\"In\": 1}, \"14\": {\"In\": 1}, \"15\": {\"In\": 1}, \"16\": {\"O\": 1}, \"17\": {\"O\": 1}, \"18\": {\"O\": 1}, \"19\": {\"O\": 1}, \"20\": {\"O\": 1}, \"21\": {\"O\": 1}, \"22\": {\"O\": 1}, \"23\": {\"O\": 1}, \"24\": {\"O\": 1}, \"25\": {\"O\": 1}, \"26\": {\"O\": 1}, \"27\": {\"O\": 1}, \"28\": {\"O\": 1}, \"29\": {\"O\": 1}, \"30\": {\"O\": 1}, \"31\": {\"O\": 1}, \"32\": {\"O\": 1}, \"33\": {\"O\": 1}, \"34\": {\"O\": 1}, \"35\": {\"O\": 1}, \"36\": {\"O\": 1}, \"37\": {\"O\": 1}, \"38\": {\"O\": 1}, \"39\": {\"O\": 1}}" n_minim_iter=2 energy=-45149.528365005724 stress="-0.04522419248783046 3.629847344311694e-13 -1.62582975841106e-13 3.629847344311694e-13 -0.04579290141341512 -5.000530222221516e-13 -1.62582975841106e-13 -5.000530222221516e-13 -0.046630629471973224" free_energy=-45149.528365005724 pbc="T T T"
In       2.70147140       4.58473852       8.93369769        0      -0.01484651       0.03956129       0.06789564
In      -0.00612863       3.95865567       6.68783816        1      -0.01484651      -0.03956129      -0.06789564
In       2.71372867       1.73694046      14.49860608        2       0.01484651       0.03956129      -0.06789564
In       5.42132871       1.11085760       1.12292977        3       0.01484651      -0.03956129       0.06789564
In       2.71372867       1.11085760       6.68783816        4       0.01484651      -0.03956129      -0.06789564
In       5.42132871       1.73694046       8.93369769        5       0.01484651       0.03956129       0.06789564
In       2.70147140       3.95865567       1.12292977        6      -0.01484651      -0.03956129       0.06789564
In      -0.00612863       4.58473852      14.49860608        7      -0.01484651       0.03956129      -0.06789564
In       2.70102291       4.28828616      12.78701989        8       0.04738897      -0.04879517       0.00305467
In       5.40862295       4.25510803       2.83451596        9       0.04738897       0.04879517      -0.00305467
In       2.71417716       1.44048810      10.64528388       10      -0.04738897      -0.04879517      -0.00305467
In       0.00657713       1.40730997       4.97625196       11      -0.04738897       0.04879517       0.00305467
In       2.71417716       1.40730997       2.83451596       12      -0.04738897       0.04879517      -0.00305467
In       0.00657713       1.44048810      12.78701989       13      -0.04738897      -0.04879517       0.00305467
In       2.70102291       4.25510803       4.97625196       14       0.04738897       0.04879517       0.00305467
In       5.40862295       4.28828616      10.64528388       15       0.04738897      -0.04879517      -0.00305467
O        4.65294882       5.06728953      12.46251615       16       0.04689565       0.05805905      -0.00616433
O        1.94534879       3.47610466       3.15901970       17       0.04689565      -0.05805905       0.00616434
O        0.76225125       2.21949147      10.96978763       18      -0.04689565       0.05805905       0.00616434
O        3.46985129       0.62830659       4.65174822       19      -0.04689565      -0.05805905      -0.00616434
O        0.76225125       0.62830659       3.15901970       20      -0.04689565      -0.05805905       0.00616434
O        3.46985129       2.21949147      12.46251615       21      -0.04689565       0.05805905      -0.00616433
O        4.65294882       3.47610466       4.65174822       22       0.04689565      -0.05805905      -0.00616434
O        1.94534879       5.06728953      10.96978763       23       0.04689565       0.05805905       0.00616433
O        3.83431340       3.03514321       9.76402985       24       0.07286561      -0.03231814       0.05750793
O        1.12671337       5.50825097       5.85750600       25       0.07286561       0.03231814      -0.05750793
O        1.58088667       0.18734515      13.66827393       26      -0.07286561      -0.03231814      -0.05750793
O        4.28848671       2.66045291       1.95326192       27      -0.07286561       0.03231814       0.05750793
O        1.58088667       2.66045291       5.85750600       28      -0.07286561       0.03231814      -0.05750793
O        4.28848671       0.18734515       9.76402985       29      -0.07286561      -0.03231814       0.05750793
O        3.83431340       5.50825097       1.95326192       30       0.07286561       0.03231814       0.05750793
O        1.12671337       3.03514321      13.66827393       31       0.07286561      -0.03231814      -0.05750793
O        3.48644448       3.78129013      14.80063940       32      -0.05775727      -0.03020477      -0.09514644
O        0.77884445       4.76210406       0.82089645       33      -0.05775727       0.03020477       0.09514644
O        1.92875559       0.93349207       8.63166437       34       0.05775727      -0.03020477       0.09514644
O        4.63635563       1.91430599       6.98987147       35       0.05775727       0.03020477      -0.09514644
O        1.92875559       1.91430599       0.82089645       36       0.05775727       0.03020477       0.09514644
O        4.63635563       0.93349207      14.80063940       37       0.05775727      -0.03020477      -0.09514644
O        3.48644448       4.76210406       6.98987147       38      -0.05775727       0.03020477      -0.09514644
O        0.77884445       3.78129013       8.63166437       39      -0.05775727      -0.03020477       0.09514644
40
Lattice="5.401122146380987 2.3254637358509917e-42 0.0 -2.485001604378488e-42 5.705467465240891 0.0 0.0 0.0 15.635154978053771" Properties=species:S:1:pos:R:3:spacegroup_kinds:I:1:forces:R:3 spacegroup="P 1" unit_cell=conventional occupancy="_JSON {\"0\": {\"In\": 1}, \"1\": {\"In\": 1}, \"2\": {\"In\": 1}, \"3\": {\"In\": 1}, \"4\": {\"In\": 1}, \"5\": {\"In\": 1}, \"6\": {\"In\": 1}, \"7\": {\"In\": 1}, \"8\": {\"In\": 1}, \"9\": {\"In\": 1}, \"10\": {\"In\": 1}, \"11\": {\"In\": 1}, \"12\": {\"In\": 1}, \"13\": {\"In\": 1}, \"14\": {\"In\": 1}, \"15\": {\"In\": 1}, \"16\": {\"O\": 1}, \"17\": {\"O\": 1}, \"18\": {\"O\": 1}, \"19\": {\"O\": 1}, \"20\": {\"O\": 1}, \"21\": {\"O\": 1}, \"22\": {\"O\": 1}, \"23\": {\"O\": 1}, \"24\": {\"O\": 1}, \"25\": {\"O\": 1}, \"26\": {\"O\": 1}, \"27\": {\"O\": 1}, \"28\": {\"O\": 1}, \"29\": {\"O\": 1}, \"30\": {\"O\": 1}, \"31\": {\"O\": 1}, \"32\": {\"O\": 1}, \"33\": {\"O\": 1}, \"34\": {\"O\": 1}, \"35\": {\"O\": 1}, \"36\": {\"O\": 1}, \"37\": {\"O\": 1}, \"38\": {\"O\": 1}, \"39\": {\"O\": 1}}" n_minim_iter=3 energy=-45149.53043967153 stress="-0.04703882299205869 9.971964464563607e-13 -1.0927560134782762e-13 9.971964464563607e-13 -0.0448798158946442 6.95066021918889e-14 -1.0927560134782762e-13 6.95066021918889e-14 -0.04521700374655834" free_energy=-45149.53043967153 pbc="T T T"
In       2.69432401       4.59306036       8.94206391        0       0.01436397       0.04830089       0.05660216
In      -0.00623707       3.96514083       6.69309107        1       0.01436397      -0.04830089      -0.05660216
In       2.70679814       1.74032663      14.51066856        2      -0.01436397       0.04830089      -0.05660216
In       5.40735921       1.11240710       1.12448642        3      -0.01436397      -0.04830089       0.05660216
In       2.70679814       1.11240710       6.69309107        4      -0.01436397      -0.04830089      -0.05660216
In       5.40735921       1.74032663       8.94206391        5      -0.01436397       0.04830089       0.05660216
In       2.69432401       3.96514083       1.12448642        6       0.01436397      -0.04830089       0.05660216
In      -0.00623707       4.59306036      14.51066856        7       0.01436397       0.04830089      -0.05660216
In       2.69444137       4.29528050      12.79818208        8       0.01902207      -0.05061179      -0.00132373
In       5.39500244       4.26292070       2.83697290        9       0.01902207       0.05061179       0.00132373
In       2.70668078       1.44254676      10.65455039       10      -0.01902207      -0.05061179       0.00132373
In       0.00611971       1.41018697       4.98060459       11      -0.01902207       0.05061179      -0.00132373
In       2.70668078       1.41018697       2.83697290       12      -0.01902207       0.05061179       0.00132373
In       0.00611971       1.44254676      12.79818208       13      -0.01902207      -0.05061179      -0.00132373
In       2.69444137       4.26292070       4.98060459       14       0.01902207       0.05061179      -0.00132373
In       5.39500244       4.29528050      10.65455039       15       0.01902207      -0.05061179       0.00132373
O        4.64131563       5.07660530      12.47331986       16       0.06553475       0.05770780      -0.01731554
O        1.94075456       3.48159589       3.16183512       17       0.06553475      -0.05770780       0.01731554
O        0.75980652       2.22387157      10.97941261       18      -0.06553475       0.05770780       0.01731554
O        3.46036759       0.62886216       4.65574237       19      -0.06553475      -0.05770780      -0.01731554
O        0.75980652       0.62886216       3.16183512       20      -0.06553475      -0.05770780       0.01731554
O        3.46036759       2.22387157      12.47331986       21      -0.06553475       0.05770780      -0.01731554
O        4.64131563       3.48159589       4.65574237       22       0.06553475      -0.05770780      -0.01731554
O        1.94075456       5.07660530      10.97941261       23       0.06553475       0.05770780       0.01731554
O        3.82506326       3.04007934       9.77309544       24       0.05682997      -0.02619827       0.04896696
O        1.12450219       5.51812186       5.86205954       25       0.05682997       0.02619827      -0.04896696
O        1.57605888       0.18734560      13.67963703       26      -0.05682997      -0.02619827      -0.04896696
O        4.27661995       2.66538813       1.95551795       27      -0.05682997       0.02619827       0.04896696
O        1.57605888       2.66538813       5.86205954       28      -0.05682997       0.02619827      -0.04896696
O        4.27661995       0.18734560       9.77309544       29      -0.05682997      -0.02619827       0.04896696
O        3.82506326       5.51812186       1.95551795       30       0.05682997       0.02619827       0.04896696
O        1.12450219       3.04007934      13.67963703       31       0.05682997      -0.02619827      -0.04896696
O        3.47681286       3.78758679      14.81267751       32      -0.07871583      -0.04313089      -0.06700745
O        0.77625179       4.77061441       0.82247747       33      -0.07871583       0.04313089       0.06700745
O        1.92430928       0.93485306       8.64005496       34       0.07871583      -0.04313089       0.06700745
O        4.62487036       1.91788068       6.99510002       35       0.07871583       0.04313088      -0.06700745
O        1.92430928       1.91788068       0.82247747       36       0.07871583       0.04313089       0.06700745
O        4.62487036       0.93485306      14.81267751       37       0.07871583      -0.04313089      -0.06700745
O        3.47681286       4.77061441       6.99510002       38      -0.07871583       0.04313089      -0.06700745
O        0.77625179       3.78758679       8.64005496       39      -0.07871583      -0.04313088       0.06700745
40
Lattice="5.404228091424977 2.2009832602213713e-42 0.0 -2.418451700613152e-42 5.705786244958803 0.0 0.0 0.0 15.625296036396632" Properties=species:S:1:pos:R:3:spacegroup_kinds:I:1:forces:R:3 spacegroup="P 1" unit_cell=conventional occupancy="_JSON {\"0\": {\"In\": 1}, \"1\": {\"In\": 1}, \"2\": {\"In\": 1}, \"3\": {\"In\": 1}, \"4\": {\"In\": 1}, \"5\": {\"In\": 1}, \"6\": {\"In\": 1}, \"7\": {\"In\": 1}, \"8\": {\"In\": 1}, \"9\": {\"In\": 1}, \"10\": {\"In\": 1}, \"11\": {\"In\": 1}, \"12\": {\"In\": 1}, \"13\": {\"In\": 1}, \"14\": {\"In\": 1}, \"15\": {\"In\": 1}, \"16\": {\"O\": 1}, \"17\": {\"O\": 1}, \"18\": {\"O\": 1}, \"19\": {\"O\": 1}, \"20\": {\"O\": 1}, \"21\": {\"O\": 1}, \"22\": {\"O\": 1}, \"23\": {\"O\": 1}, \"24\": {\"O\": 1}, \"25\": {\"O\": 1}, \"26\": {\"O\": 1}, \"27\": {\"O\": 1}, \"28\": {\"O\": 1}, \"29\": {\"O\": 1}, \"30\": {\"O\": 1}, \"31\": {\"O\": 1}, \"32\": {\"O\": 1}, \"33\": {\"O\": 1}, \"34\": {\"O\": 1}, \"35\": {\"O\": 1}, \"36\": {\"O\": 1}, \"37\": {\"O\": 1}, \"38\": {\"O\": 1}, \"39\": {\"O\": 1}}" n_minim_iter=4 energy=-45149.537523246625 stress="-0.044690571302695145 -6.45710926247911e-14 -1.598262083644092e-13 -6.45710926247911e-14 -0.04444934068824735 2.785743634690148e-14 -1.598262083644092e-13 2.785743634690148e-14 -0.044724269438884" free_energy=-45149.537523246625 pbc="T T T"
In       2.69566297       4.59529607       8.93919471        0       0.01925869      -0.04143720       0.00335899
In      -0.00645107       3.96338330       6.68610133        1       0.01925869       0.04143720      -0.00335899
In       2.70856512       1.74240295      14.49874935        2      -0.01925869      -0.04143720      -0.00335899
In       5.41067916       1.11049017       1.12654669        3      -0.01925869       0.04143720       0.00335899
In       2.70856512       1.11049017       6.68610133        4      -0.01925869       0.04143720      -0.00335899
In       5.41067916       1.74240295       8.93919471        5      -0.01925869      -0.04143720       0.00335899
In       2.69566297       3.96338330       1.12654669        6       0.01925869       0.04143720       0.00335899
In      -0.00645107       4.59529607      14.49874935        7       0.01925869      -0.04143720      -0.00335899
In       2.69775292       4.29329868      12.79014025        8       0.01405968       0.00946660      -0.03866092
In       5.39986697       4.26538069       2.83515579        9       0.01405968      -0.00946660       0.03866092
In       2.70647517       1.44040556      10.64780381       10      -0.01405968       0.00946660       0.03866092
In       0.00436112       1.41248757       4.97749223       11      -0.01405968      -0.00946660      -0.03866092
In       2.70647517       1.41248757       2.83515579       12      -0.01405968      -0.00946660       0.03866092
In       0.00436112       1.44040556      12.79014025       13      -0.01405968       0.00946660      -0.03866092
In       2.69775292       4.26538069       4.97749223       14       0.01405968      -0.00946660      -0.03866092
In       5.39986697       4.29329868      10.64780381       15       0.01405968       0.00946660       0.03866092
O        4.64650048       5.07953755      12.46499564       16       0.02527507       0.02166236      -0.04449294
O        1.94438643       3.47914182       3.16030040       17       0.02527507      -0.02166236       0.04449294
O        0.75772762       2.22664442      10.97294841       18      -0.02527507       0.02166236       0.04449294
O        3.45984166       0.62624870       4.65234762       19      -0.02527507      -0.02166236      -0.04449294
O        0.75772762       0.62624870       3.16030040       20      -0.02527507      -0.02166236       0.04449294
O        3.45984166       2.22664442      12.46499564       21      -0.02527507       0.02166236      -0.04449294
O        4.64650048       3.47914182       4.65234762       22       0.02527507      -0.02166236      -0.04449294
O        1.94438643       5.07953755      10.97294841       23       0.02527507       0.02166236       0.04449294
O        3.83051256       3.03876901       9.76951086       24      -0.02017934       0.00049198       0.02086017
O        1.12839851       5.51991035       5.85578517       25      -0.02017934      -0.00049198      -0.02086017
O        1.57371553       0.18587589      13.66843319       26       0.02017934       0.00049198      -0.02086017
O        4.27582958       2.66701723       1.95686285       27       0.02017934      -0.00049198       0.02086017
O        1.57371553       2.66701723       5.85578517       28       0.02017934      -0.00049198      -0.02086017
O        4.27582958       0.18587589       9.76951086       29       0.02017934       0.00049198       0.02086017
O        3.83051256       5.51991035       1.95686285       30      -0.02017934      -0.00049198       0.02086017
O        1.12839851       3.03876901      13.66843319       31      -0.02017934       0.00049198      -0.02086017
O        3.47575116       3.78629751      14.79944559       32      -0.02096031       0.00534277       0.00989235
O        0.77363711       4.77238185       0.82585045       33      -0.02096031      -0.00534277      -0.00989235
O        1.92847693       0.93340439       8.63849847       34       0.02096031       0.00534277      -0.00989235
O        4.63059098       1.91948873       6.98679757       35       0.02096031      -0.00534277       0.00989235
O        1.92847693       1.91948873       0.82585045       36       0.02096031      -0.00534277      -0.00989235
O        4.63059098       0.93340439      14.79944559       37       0.02096031       0.00534277       0.00989235
O        3.47575116       4.77238185       6.98679757       38      -0.02096031      -0.00534277       0.00989235
O        0.77363711       3.78629751       8.63849847       39      -0.02096031       0.00534277      -0.00989235
40
Lattice="5.405164486506115 2.201762952870551e-42 0.0 -2.416528576276989e-42 5.701419206913722 0.0 0.0 0.0 15.634555318206967" Properties=species:S:1:pos:R:3:spacegroup_kinds:I:1:forces:R:3 spacegroup="P 1" unit_cell=conventional occupancy="_JSON {\"0\": {\"In\": 1}, \"1\": {\"In\": 1}, \"2\": {\"In\": 1}, \"3\": {\"In\": 1}, \"4\": {\"In\": 1}, \"5\": {\"In\": 1}, \"6\": {\"In\": 1}, \"7\": {\"In\": 1}, \"8\": {\"In\": 1}, \"9\": {\"In\": 1}, \"10\": {\"In\": 1}, \"11\": {\"In\": 1}, \"12\": {\"In\": 1}, \"13\": {\"In\": 1}, \"14\": {\"In\": 1}, \"15\": {\"In\": 1}, \"16\": {\"O\": 1}, \"17\": {\"O\": 1}, \"18\": {\"O\": 1}, \"19\": {\"O\": 1}, \"20\": {\"O\": 1}, \"21\": {\"O\": 1}, \"22\": {\"O\": 1}, \"23\": {\"O\": 1}, \"24\": {\"O\": 1}, \"25\": {\"O\": 1}, \"26\": {\"O\": 1}, \"27\": {\"O\": 1}, \"28\": {\"O\": 1}, \"29\": {\"O\": 1}, \"30\": {\"O\": 1}, \"31\": {\"O\": 1}, \"32\": {\"O\": 1}, \"33\": {\"O\": 1}, \"34\": {\"O\": 1}, \"35\": {\"O\": 1}, \"36\": {\"O\": 1}, \"37\": {\"O\": 1}, \"38\": {\"O\": 1}, \"39\": {\"O\": 1}}" n_minim_iter=5 energy=-45149.539938779555 stress="-0.04381937709514628 7.402347252365814e-13 3.4342484847207375e-13 7.402347252365814e-13 -0.044635368961846805 4.2561194738333213e-13 3.4342484847207375e-13 4.2561194738333213e-13 -0.043692024347944794" free_energy=-45149.539938779555 pbc="T T T"
In       2.69726181       4.58981211       8.94586486        0      -0.00946470      -0.02646865      -0.02223550
In      -0.00532043       3.96231670       6.68869045        1      -0.00946470       0.02646865       0.02223550
In       2.70790267       1.73910251      14.50596811        2       0.00946470      -0.02646865       0.02223550
In       5.41048492       1.11160710       1.12858721        3       0.00946470       0.02646865      -0.02223550
In       2.70790267       1.11160710       6.68869045        4       0.00946470       0.02646865       0.02223550
In       5.41048492       1.73910251       8.94586486        5       0.00946470      -0.02646865      -0.02223550
In       2.69726181       3.96231670       1.12858721        6      -0.00946470       0.02646865      -0.02223550
In      -0.00532043       4.58981211      14.50596811        7      -0.00946470      -0.02646865       0.02223550
In       2.70001488       4.28972879      12.79512915        8       0.02277100       0.01474046       0.00352867
In       5.40259712       4.26240002       2.83942616        9       0.02277100      -0.01474046      -0.00352867
In       2.70514961       1.43901918      10.65670382       10      -0.02277100       0.01474046      -0.00352867
In       0.00256736       1.41169042       4.97785149       11      -0.02277100      -0.01474046       0.00352867
In       2.70514961       1.41169042       2.83942616       12      -0.02277100      -0.01474046      -0.00352867
In       0.00256736       1.43901918      12.79512915       13      -0.02277100       0.01474046       0.00352867
In       2.70001488       4.26240002       4.97785149       14       0.02277100      -0.01474046       0.00352867
In       5.40259712       4.28972879      10.65670382       15       0.02277100       0.01474046      -0.00352867
O        4.65008275       5.07824992      12.46922702       16      -0.00363983       0.00562585      -0.00175118
O        1.94750051       3.47387889       3.16532830       17      -0.00363983      -0.00562585       0.00175118
O        0.75508173       2.22754032      10.98260595       18       0.00363983       0.00562585       0.00175118
O        3.45766398       0.62316929       4.65194936       19       0.00363983      -0.00562585      -0.00175118
O        0.75508173       0.62316929       3.16532830       20       0.00363983      -0.00562585       0.00175118
O        3.45766398       2.22754032      12.46922702       21       0.00363983       0.00562585      -0.00175118
O        4.65008275       3.47387889       4.65194936       22      -0.00363983      -0.00562585      -0.00175118
O        1.94750051       5.07824992      10.98260595       23      -0.00363983       0.00562585       0.00175118
O        3.83135984       3.03577825       9.77787893       24      -0.02368642      -0.00575987       0.01815574
O        1.12877760       5.51635056       5.85667639       25      -0.02368642       0.00575987      -0.01815574
O        1.57380465       0.18506865      13.67395405       26       0.02368642      -0.00575987      -0.01815574
O        4.27638689       2.66564095       1.96060127       27       0.02368642       0.00575987       0.01815574
O        1.57380465       2.66564095       5.85667639       28       0.02368642       0.00575987      -0.01815574
O        4.27638689       0.18506865       9.77787893       29       0.02368643      -0.00575987       0.01815574
O        3.83135984       5.51635056       1.96060127       30      -0.02368643       0.00575987       0.01815574
O        1.12877760       3.03577825      13.67395405       31      -0.02368642      -0.00575987      -0.01815574
O        3.47362808       3.78319513      14.80713133       32       0.01141697       0.02371638       0.01675264
O        0.77104583       4.76893369       0.82742398       33       0.01141697      -0.02371638      -0.01675264
O        1.93153641       0.93248552       8.64470164       34      -0.01141697       0.02371638      -0.01675264
O        4.63411865       1.91822408       6.98985367       35      -0.01141697      -0.02371638       0.01675264
O        1.93153641       1.91822408       0.82742398       36      -0.01141697      -0.02371638      -0.01675264
O        4.63411865       0.93248552      14.80713133       37      -0.01141697       0.02371638       0.01675264
O        3.47362808       4.76893369       6.98985367       38       0.01141697      -0.02371638       0.01675264
O        0.77104583       3.78319513       8.64470164       39       0.01141697       0.02371638      -0.01675264
40