40
Lattice="5.478538553292312 1.877954319903981e-42 0.0 -1.9551660200789533e-42 5.703787523243542 0.0 0.0 0.0 15.835480071035187" Properties=species:S:1:pos:R:3:spacegroup_kinds:I:1:forces:R:3 spacegroup="P 1" unit_cell=conventional occupancy="_JSON {\"0\": {\"In\": 1}, \"1\": {\"In\": 1}, \"2\": {\"In\": 1}, \"3\": {\"In\": 1}, \"4\": {\"In\": 1}, \"5\": {\"In\": 1}, \"6\": {\"In\": 1}, \"7\": {\"In\": 1}, \"8\": {\"In\": 1}, \"9\": {\"In\": 1}, \"10\": {\"In\": 1}, \"11\": {\"In\": 1}, \"12\": {\"In\": 1}, \"13\": {\"In\": 1}, \"14\": {\"In\": 1}, \"15\": {\"In\": 1}, \"16\": {\"O\": 1}, \"17\": {\"O\": 1}, \"18\": {\"O\": 1}, \"19\": {\"O\": 1}, \"20\": {\"O\": 1}, \"21\": {\"O\": 1}, \"22\": {\"O\": 1}, \"23\": {\"O\": 1}, \"24\": {\"O\": 1}, \"25\": {\"O\": 1}, \"26\": {\"O\": 1}, \"27\": {\"O\": 1}, \"28\": {\"O\": 1}, \"29\": {\"O\": 1}, \"30\": {\"O\": 1}, \"31\": {\"O\": 1}, \"32\": {\"O\": 1}, \"33\": {\"O\": 1}, \"34\": {\"O\": 1}, \"35\": {\"O\": 1}, \"36\": {\"O\": 1}, \"37\": {\"O\": 1}, \"38\": {\"O\": 1}, \"39\": {\"O\": 1}}" n_minim_iter=1 energy=-45149.9665242517 stress="-0.02699874667652545 2.777351736694894e-13 4.1352242694058695e-13 2.777351736694894e-13 -0.029971777333902508 -3.2178231138996067e-13 4.1352242694058695e-13 -3.2178231138996067e-13 -0.025332132022287884" free_energy=-45149.9665242517 pbc="T T T"
In       2.73567961       4.57631542       9.04522834        0      -0.00199784       0.07300473       0.04858784
In      -0.00358966       3.97936587       6.79025173        1      -0.00199784      -0.07300473      -0.04858784
In       2.74285894       1.72442166      14.70799177        2       0.00199784       0.07300473      -0.04858784
In       5.48212822       1.12747210       1.12748830        3       0.00199784      -0.07300473       0.04858784
In       2.74285894       1.12747210       6.79025173        4       0.00199784      -0.07300473      -0.04858784
In       5.48212822       1.72442166       9.04522834        5       0.00199784       0.07300473       0.04858784
In       2.73567961       3.97936587       1.12748830        6      -0.00199784      -0.07300473       0.04858784
In      -0.00358966       4.57631542      14.70799177        7      -0.00199784       0.07300473      -0.04858784
In       2.72930489       4.27990078      12.96157513        8       0.03653827      -0.04113747       0.02703311
In       5.46857416       4.27578051       2.87390494        9       0.03653827       0.04113747      -0.02703311
In       2.74923367       1.42800701      10.79164498       10      -0.03653827      -0.04113747      -0.02703311
In       0.00996439       1.42388675       5.04383509       11      -0.03653827       0.04113747       0.02703311
In       2.74923367       1.42388675       2.87390494       12      -0.03653827       0.04113747      -0.02703311
In       0.00996439       1.42800701      12.96157513       13      -0.03653827      -0.04113747       0.02703311
In       2.72930489       4.27578051       5.04383509       14       0.03653827       0.04113747       0.02703311
In       5.46857416       4.27990078      10.79164498       15       0.03653827      -0.04113747      -0.02703311
O        4.70821075       5.05026603      12.63723533       16       0.02291670       0.03528375       0.00090075
O        1.96894147       3.50541526       3.19824474       17       0.02291670      -0.03528375      -0.00090075
O        0.77032780       2.19837227      11.11598478       18      -0.02291670       0.03528375      -0.00090075
O        3.50959708       0.65352150       4.71949529       19      -0.02291670      -0.03528375       0.00090075
O        0.77032780       0.65352150       3.19824474       20      -0.02291670      -0.03528375      -0.00090075
O        3.50959708       2.19837227      12.63723533       21      -0.02291670       0.03528375       0.00090075
O        4.70821075       3.50541526       4.71949529       22       0.02291670      -0.03528375       0.00090075
O        1.96894147       5.05026603      11.11598478       23       0.02291670       0.03528375      -0.00090075
O        3.87345311       3.02460788       9.89001669       24       0.08368856      -0.02290408       0.04498777
O        1.13418383       5.53107341       5.94546338       25       0.08368856       0.02290408      -0.04498777
O        1.60508545       0.17271412      13.86320341       26      -0.08368856      -0.02290408      -0.04498777
O        4.34435472       2.67917964       1.97227666       27      -0.08368856       0.02290408       0.04498777
O        1.60508545       2.67917964       5.94546338       28      -0.08368856       0.02290408      -0.04498777
O        4.34435472       0.17271412       9.89001669       29      -0.08368856      -0.02290408       0.04498777
O        3.87345311       5.53107341       1.97227666       30       0.08368856       0.02290408       0.04498777
O        1.13418383       3.02460788      13.86320341       31       0.08368856      -0.02290407      -0.04498777
O        3.53699046       3.77379180      15.00550148       32      -0.06937040      -0.01786723      -0.06632424
O        0.79772119       4.78188948       0.82997859       33      -0.06937040       0.01786723       0.06632424
O        1.94154809       0.92189804       8.74771862       34       0.06937040      -0.01786723       0.06632424
O        4.68081737       1.92999572       7.08776145       35       0.06937040       0.01786723      -0.06632424
O        1.94154809       1.92999572       0.82997859       36       0.06937040       0.01786723       0.06632424
O        4.68081737       0.92189804      15.00550148       37       0.06937040      -0.01786723      -0.06632424
O        3.53699046       4.78188948       7.08776145       38      -0.06937040       0.01786723      -0.06632424
O        0.79772119       3.77379180       8.74771862       39      -0.06937040      -0.01786723       0.06632424
40
Lattice="5.47539507076235 1.9103772223824016e-42 0.0 -1.950826492235012e-42 5.722895582941083 0.0 0.0 0.0 15.791668271283" Properties=species:S:1:pos:R:3:spacegroup_kinds:I:1:forces:R:3 spacegroup="P 1" unit_cell=conventional occupancy="_JSON {\"0\": {\"In\": 1}, \"1\": {\"In\": 1}, \"2\": {\"In\": 1}, \"3\": {\"In\": 1}, \"4\": {\"In\": 1}, \"5\": {\"In\": 1}, \"6\": {\"In\": 1}, \"7\": {\"In\": 1}, \"8\": {\"In\": 1}, \"9\": {\"In\": 1}, \"10\": {\"In\": 1}, \"11\": {\"In\": 1}, \"12\": {\"In\": 1}, \"13\": {\"In\": 1}, \"14\": {\"In\": 1}, \"15\": {\"In\": 1}, \"16\": {\"O\": 1}, \"17\": {\"O\": 1}, \"18\": {\"O\": 1}, \"19\": {\"O\": 1}, \"20\": {\"O\": 1}, \"21\": {\"O\": 1}, \"22\": {\"O\": 1}, \"23\": {\"O\": 1}, \"24\": {\"O\": 1}, \"25\": {\"O\": 1}, \"26\": {\"O\": 1}, \"27\": {\"O\": 1}, \"28\": {\"O\": 1}, \"29\": {\"O\": 1}, \"30\": {\"O\": 1}, \"31\": {\"O\": 1}, \"32\": {\"O\": 1}, \"33\": {\"O\": 1}, \"34\": {\"O\": 1}, \"35\": {\"O\": 1}, \"36\": {\"O\": 1}, \"37\": {\"O\": 1}, \"38\": {\"O\": 1}, \"39\": {\"O\": 1}}" n_minim_iter=2 energy=-45149.97060876162 stress="-0.026295942842569135 -7.477295599465168e-14 2.0376285648044439e-13 -7.477295599465168e-14 -0.02695458826874948 -1.1037058904393163e-13 2.0376285648044439e-13 -1.1037058904393163e-13 -0.027433785347320643" free_energy=-45149.97060876162 pbc="T T T"
In       2.73410461       4.59184147       9.02033209        0      -0.01161435       0.07381887       0.08163946
In      -0.00359292       3.99250190       6.77133619        1      -0.01161435      -0.07381887      -0.08163946
In       2.74129046       1.73039368      14.66717032        2       0.01161435       0.07381887      -0.08163946
In       5.47898799       1.13105411       1.12449795        3       0.01161435      -0.07381887       0.08163946
In       2.74129046       1.13105411       6.77133619        4       0.01161435      -0.07381887      -0.08163946
In       5.47898799       1.73039368       9.02033209        5       0.01161435       0.07381887       0.08163946
In       2.73410461       3.99250190       1.12449795        6      -0.01161435      -0.07381887       0.08163946
In      -0.00359292       4.59184147      14.66717032        7      -0.01161435       0.07381887      -0.08163947
In       2.72783613       4.29412879      12.92578632        8       0.04201853      -0.05403922       0.04175695
In       5.46553366       4.29021459       2.86588195        9       0.04201853       0.05403922      -0.04175695
In       2.74755895       1.43268099      10.76171608       10      -0.04201853      -0.05403922      -0.04175695
In       0.00986141       1.42876680       5.02995219       11      -0.04201853       0.05403922       0.04175695
In       2.74755895       1.42876680       2.86588195       12      -0.04201853       0.05403922      -0.04175695
In       0.00986141       1.43268099      12.92578632       13      -0.04201853      -0.05403922       0.04175695
In       2.72783613       4.29021459       5.02995219       14       0.04201853       0.05403922       0.04175695
In       5.46553366       4.29412879      10.76171608       15       0.04201853      -0.05403922      -0.04175695
O        4.70557027       5.06727904      12.60227446       16       0.01080570       0.04355686       0.00661589
O        1.96787273       3.51706433       3.18939381       17       0.01080570      -0.04355686      -0.00661589
O        0.76982480       2.20583125      11.08522795       18      -0.01080570       0.04355686      -0.00661589
O        3.50752234       0.65561654       4.70644032       19      -0.01080570      -0.04355686       0.00661589
O        0.76982480       0.65561654       3.18939381       20      -0.01080570      -0.04355686      -0.00661589
O        3.50752234       2.20583125      12.60227446       21      -0.01080570       0.04355686       0.00661589
O        4.70557027       3.51706433       4.70644032       22       0.01080570      -0.04355686       0.00661589
O        1.96787273       5.06727904      11.08522795       23       0.01080570       0.04355686      -0.00661589
O        3.87145337       3.03467930       9.86277362       24       0.06797527      -0.01206498       0.04098794
O        1.13375583       5.54966407       5.92889465       25       0.06797527       0.01206498      -0.04098794
O        1.60394170       0.17323151      13.82472879       26      -0.06797527      -0.01206498      -0.04098794
O        4.34163924       2.68821628       1.96693948       27      -0.06797527       0.01206498       0.04098794
O        1.60394170       2.68821628       5.92889465       28      -0.06797527       0.01206498      -0.04098794
O        4.34163924       0.17323151       9.86277362       29      -0.06797527      -0.01206498       0.04098794
O        3.87145337       5.54966407       1.96693948       30       0.06797527       0.01206498       0.04098794
O        1.13375583       3.03467930      13.82472879       31       0.06797527      -0.01206498      -0.04098794
O        3.53477634       3.78638650      14.96380981       32      -0.05840840      -0.03211677      -0.08473490
O        0.79707881       4.79795687       0.82785846       33      -0.05840840       0.03211677       0.08473490
O        1.94061873       0.92493871       8.72369260       34       0.05840840      -0.03211677       0.08473490
O        4.67831626       1.93650908       7.06797567       35       0.05840840       0.03211677      -0.08473490
O        1.94061873       1.93650908       0.82785846       36       0.05840840       0.03211677       0.08473490
O        4.67831626       0.92493871      14.96380981       37       0.05840840      -0.03211677      -0.08473490
O        3.53477634       4.79795687       7.06797567       38      -0.05840840       0.03211677      -0.08473490
O        0.79707881       3.78638650       8.72369260       39      -0.05840840      -0.03211677       0.08473490
40
Lattice="5.460677773470528 1.9066915423926044e-42 0.0 -1.9542906985661027e-42 5.7324015189311925 0.0 0.0 0.0 15.807971435276887" Properties=species:S:1:pos:R:3:spacegroup_kinds:I:1:forces:R:3 spacegroup="P 1" unit_cell=conventional occupancy="_JSON {\"0\": {\"In\": 1}, \"1\": {\"In\": 1}, \"2\": {\"In\": 1}, \"3\": {\"In\": 1}, \"4\": {\"In\": 1}, \"5\": {\"In\": 1}, \"6\": {\"In\": 1}, \"7\": {\"In\": 1}, \"8\": {\"In\": 1}, \"9\": {\"In\": 1}, \"10\": {\"In\": 1}, \"11\": {\"In\": 1}, \"12\": {\"In\": 1}, \"13\": {\"In\": 1}, \"14\": {\"In\": 1}, \"15\": {\"In\": 1}, \"16\": {\"O\": 1}, \"17\": {\"O\": 1}, \"18\": {\"O\": 1}, \"19\": {\"O\": 1}, \"20\": {\"O\": 1}, \"21\": {\"O\": 1}, \"22\": {\"O\": 1}, \"23\": {\"O\": 1}, \"24\": {\"O\": 1}, \"25\": {\"O\": 1}, \"26\": {\"O\": 1}, \"27\": {\"O\": 1}, \"28\": {\"O\": 1}, \"29\": {\"O\": 1}, \"30\": {\"O\": 1}, \"31\": {\"O\": 1}, \"32\": {\"O\": 1}, \"33\": {\"O\": 1}, \"34\": {\"O\": 1}, \"35\": {\"O\": 1}, \"36\": {\"O\": 1}, \"37\": {\"O\": 1}, \"38\": {\"O\": 1}, \"39\": {\"O\": 1}}" n_minim_iter=3 energy=-45149.97260470281 stress="-0.02783471431919124 -7.055304989646702e-13 3.51018136023106e-13 -7.055304989646702e-13 -0.025931755510290422 7.281303437874112e-14 3.51018136023106e-13 7.281303437874112e-14 -0.025948358367081314" free_energy=-45149.97260470281 pbc="T T T"
In       2.72665777       4.60016649       9.03037085        0       0.01563077       0.07881606       0.06994793
In      -0.00368112       3.99843578       6.77760059        1       0.01563077      -0.07881606      -0.06994793
In       2.73402000       1.73396573      14.68158630        2      -0.01563077       0.07881606      -0.06994793
In       5.46435889       1.13223502       1.12638513        3      -0.01563077      -0.07881606       0.06994793
In       2.73402000       1.13223502       6.77760059        4      -0.01563077      -0.07881606      -0.06994793
In       5.46435889       1.73396573       9.03037085        5      -0.01563077       0.07881606       0.06994793
In       2.72665777       3.99843578       1.12638513        6       0.01563077      -0.07881606       0.06994793
In      -0.00368112       4.60016649      14.68158630        7       0.01563077       0.07881606      -0.06994793
In       2.72089092       4.30076459      12.93950470        8       0.01358298      -0.05156784       0.03395330
In       5.45122981       4.29783768       2.86846674        9       0.01358298       0.05156784      -0.03395330
In       2.73978685       1.43456383      10.77245245       10      -0.01358298      -0.05156784      -0.03395330
In       0.00944797       1.43163692       5.03551898       11      -0.01358298       0.05156784       0.03395330
In       2.73978685       1.43163692       2.86846674       12      -0.01358298       0.05156784      -0.03395330
In       0.00944797       1.43456383      12.93950470       13      -0.01358298      -0.05156784       0.03395330
In       2.72089092       4.29783768       5.03551898       14       0.01358298       0.05156784       0.03395330
In       5.45122981       4.30076459      10.77245245       15       0.01358298      -0.05156784      -0.03395330
O        4.69303688       5.07609889      12.61534036       16       0.02630399       0.04318250      -0.00450115
O        1.96269799       3.52250339       3.19263107       17       0.02630399      -0.04318250       0.00450115
O        0.76764090       2.20989813      11.09661679       18      -0.02630399       0.04318250       0.00450115
O        3.49797978       0.65630263       4.71135464       19      -0.02630399      -0.04318250      -0.00450115
O        0.76764090       0.65630263       3.19263107       20      -0.02630399      -0.04318250       0.00450115
O        3.49797978       2.20989813      12.61534036       21      -0.02630399       0.04318250      -0.00450115
O        4.69303688       3.52250339       4.71135464       22       0.02630399      -0.04318250      -0.00450115
O        1.96269799       5.07609889      11.09661679       23       0.02630399       0.04318250       0.00450115
O        3.86170087       3.03959354       9.87334364       24       0.05521880      -0.00603957       0.03182408
O        1.13136198       5.55900874       5.93462779       25       0.05521880       0.00603957      -0.03182408
O        1.59897690       0.17339278      13.83861351       26      -0.05521880      -0.00603957      -0.03182408
O        4.32931579       2.69280798       1.96935792       27      -0.05521880       0.00603957       0.03182408
O        1.59897690       2.69280798       5.93462779       28      -0.05521880       0.00603957      -0.03182408
O        4.32931579       0.17339278       9.87334364       29      -0.05521880      -0.00603957       0.03182408
O        3.86170087       5.55900874       1.96935792       30       0.05521880       0.00603957       0.03182408
O        1.13136198       3.03959354      13.83861351       31       0.05521880      -0.00603957      -0.03182408
O        3.52471649       3.79238797      14.97848662       32      -0.07554713      -0.04146019      -0.05754462
O        0.79437761       4.80621431       0.82948481       33      -0.07554713       0.04146019       0.05754462
O        1.93596128       0.92618721       8.73347053       34       0.07554712      -0.04146019       0.05754462
O        4.66630017       1.94001355       7.07450090       35       0.07554712       0.04146019      -0.05754462
O        1.93596128       1.94001355       0.82948481       36       0.07554713       0.04146019       0.05754462
O        4.66630017       0.92618721      14.97848662       37       0.07554713      -0.04146019      -0.05754462
O        3.52471649       4.80621431       7.07450090       38      -0.07554712       0.04146019      -0.05754462
O        0.79437761       3.79238797       8.73347053       39      -0.07554712      -0.04146019       0.05754462
40
Lattice="5.464736147130388 1.9085641934571683e-42 0.0 -1.8889802925563397e-42 5.73434581586541 0.0 0.0 0.0 15.790875784979667" Properties=species:S:1:pos:R:3:spacegroup_kinds:I:1:forces:R:3 spacegroup="P 1" unit_cell=conventional occupancy="_JSON {\"0\": {\"In\": 1}, \"1\": {\"In\": 1}, \"2\": {\"In\": 1}, \"3\": {\"In\": 1}, \"4\": {\"In\": 1}, \"5\": {\"In\": 1}, \"6\": {\"In\": 1}, \"7\": {\"In\": 1}, \"8\": {\"In\": 1}, \"9\": {\"In\": 1}, \"10\": {\"In\": 1}, \"11\": {\"In\": 1}, \"12\": {\"In\": 1}, \"13\": {\"In\": 1}, \"14\": {\"In\": 1}, \"15\": {\"In\": 1}, \"16\": {\"O\": 1}, \"17\": {\"O\": 1}, \"18\": {\"O\": 1}, \"19\": {\"O\": 1}, \"20\": {\"O\": 1}, \"21\": {\"O\": 1}, \"22\": {\"O\": 1}, \"23\": {\"O\": 1}, \"24\": {\"O\": 1}, \"25\": {\"O\": 1}, \"26\": {\"O\": 1}, \"27\": {\"O\": 1}, \"28\": {\"O\": 1}, \"29\": {\"O\": 1}, \"30\": {\"O\": 1}, \"31\": {\"O\": 1}, \"32\": {\"O\": 1}, \"33\": {\"O\": 1}, \"34\": {\"O\": 1}, \"35\": {\"O\": 1}, \"36\": {\"O\": 1}, \"37\": {\"O\": 1}, \"38\": {\"O\": 1}, \"39\": {\"O\": 1}}" n_minim_iter=4 energy=-45149.979047542496 stress="-0.025658817070454545 2.1424587378008342e-13 -5.453303247357307e-13 2.1424587378008342e-13 -0.025361899608937477 2.406500149704485e-13 -5.453303247357307e-13 2.406500149704485e-13 -0.025778693902568043" free_energy=-45149.979047542496 pbc="T T T"
In       2.72860743       4.60498464       9.02380773        0       0.00784661      -0.00983450       0.02540055
In      -0.00376064       3.99653409       6.76706806        1       0.00784661       0.00983450      -0.02540055
In       2.73612872       1.73781173      14.66250595        2      -0.00784661      -0.00983450      -0.02540055
In       5.46849679       1.12936118       1.12836983        3      -0.00784661       0.00983450       0.02540055
In       2.73612872       1.12936118       6.76706806        4      -0.00784661       0.00983450      -0.02540055
In       5.46849679       1.73781173       9.02380773        5      -0.00784661      -0.00983450       0.02540055
In       2.72860743       3.99653409       1.12836983        6       0.00784661       0.00983450       0.02540055
In      -0.00376064       4.60498464      14.66250595        7       0.00784661      -0.00983450      -0.02540055
In       2.72428284       4.29996741      12.92713056        8       0.00560830       0.00358726      -0.01409750
In       5.45665092       4.30155132       2.86374523        9       0.00560830      -0.00358726       0.01409750
In       2.74045330       1.43279450      10.75918312       10      -0.00560830       0.00358726       0.01409750
In       0.00808523       1.43437841       5.03169266       11      -0.00560830      -0.00358726      -0.01409750
In       2.74045330       1.43437841       2.86374523       12      -0.00560830      -0.00358726       0.01409750
In       0.00808523       1.43279450      12.92713056       13      -0.00560830       0.00358726      -0.01409750
In       2.72428284       4.30155132       5.03169266       14       0.00560830      -0.00358726      -0.01409750
In       5.45665092       4.29996741      10.75918312       15       0.00560830       0.00358726       0.01409750
O        4.69724519       5.07966925      12.60180241       16       0.00650050       0.01593800      -0.03833646
O        1.96487711       3.52184947       3.18907337       17       0.00650050      -0.01593800       0.03833646
O        0.76749096       2.21249634      11.08451126       18      -0.00650050       0.01593800       0.03833646
O        3.49985903       0.65467656       4.70636452       19      -0.00650050      -0.01593800      -0.03833646
O        0.76749096       0.65467656       3.18907337       20      -0.00650050      -0.01593800       0.03833646
O        3.49985903       2.21249634      12.60180241       21      -0.00650050       0.01593800      -0.03833646
O        4.69724519       3.52184947       4.70636452       22       0.00650050      -0.01593800      -0.03833646
O        1.96487711       5.07966925      11.08451126       23       0.00650050       0.01593800       0.03833646
O        3.86733935       3.04015464       9.86429452       24      -0.00688313       0.01335261       0.01306026
O        1.13497128       5.56136408       5.92658127       25      -0.00688313      -0.01335261      -0.01306026
O        1.59739679       0.17298173      13.82201916       26       0.00688313       0.01335261      -0.01306026
O        4.32976487       2.69419117       1.96885662       27       0.00688313      -0.01335261       0.01306026
O        1.59739679       2.69419117       5.92658127       28       0.00688313      -0.01335261      -0.01306026
O        4.32976487       0.17298173       9.86429452       29       0.00688313       0.01335261       0.01306026
O        3.86733935       5.56136408       1.96885662       30      -0.00688313      -0.01335261       0.01306026
O        1.13497128       3.04015464      13.82201916       31      -0.00688313       0.01335261      -0.01306026
O        3.52456642       3.79219913      14.95912591       32      -0.02123887       0.00248495      -0.00080966
O        0.79219834       4.80931959       0.83174988       33      -0.02123887      -0.00248495       0.00080966
O        1.94016973       0.92502623       8.72718777       34       0.02123887       0.00248495       0.00080966
O        4.67253781       1.94214668       7.06368801       35       0.02123887      -0.00248495      -0.00080966
O        1.94016973       1.94214668       0.83174988       36       0.02123887      -0.00248495       0.00080966
O        4.67253781       0.92502623      14.95912591       37       0.02123887       0.00248495      -0.00080966
O        3.52456642       4.80931959       7.06368801       38      -0.02123887      -0.00248495      -0.00080966
O        0.79219834       3.79219913       8.72718777       39      -0.02123887       0.00248495       0.00080966
40
Lattice="5.465572397824226 1.8546011014612847e-42 0.0 -1.8458760790147642e-42 5.730458613788061 0.0 0.0 0.0 15.799169680077105" Properties=species:S:1:pos:R:3:spacegroup_kinds:I:1:forces:R:3 spacegroup="P 1" unit_cell=conventional occupancy="_JSON {\"0\": {\"In\": 1}, \"1\": {\"In\": 1}, \"2\": {\"In\": 1}, \"3\": {\"In\": 1}, \"4\": {\"In\": 1}, \"5\": {\"In\": 1}, \"6\": {\"In\": 1}, \"7\": {\"In\": 1}, \"8\": {\"In\": 1}, \"9\": {\"In\": 1}, \"10\": {\"In\": 1}, \"11\": {\"In\": 1}, \"12\": {\"In\": 1}, \"13\": {\"In\": 1}, \"14\": {\"In\": 1}, \"15\": {\"In\": 1}, \"16\": {\"O\": 1}, \"17\": {\"O\": 1}, \"18\": {\"O\": 1}, \"19\": {\"O\": 1}, \"20\": {\"O\": 1}, \"21\": {\"O\": 1}, \"22\": {\"O\": 1}, \"23\": {\"O\": 1}, \"24\": {\"O\": 1}, \"25\": {\"O\": 1}, \"26\": {\"O\": 1}, \"27\": {\"O\": 1}, \"28\": {\"O\": 1}, \"29\": {\"O\": 1}, \"30\": {\"O\": 1}, \"31\": {\"O\": 1}, \"32\": {\"O\": 1}, \"33\": {\"O\": 1}, \"34\": {\"O\": 1}, \"35\": {\"O\": 1}, \"36\": {\"O\": 1}, \"37\": {\"O\": 1}, \"38\": {\"O\": 1}, \"39\": {\"O\": 1}}" n_minim_iter=5 energy=-45149.9799210705 stress="-0.02528838214858438 -1.7823832981645758e-13 -1.1531240502607872e-14 -1.7823832981645758e-13 -0.025959188043927682 2.6642885691709047e-13 -1.1531240502607872e-14 2.6642885691709047e-13 -0.02506070080026697" free_energy=-45149.9799210705 pbc="T T T"
In       2.72936565       4.60219680       9.03049175        0      -0.00561083      -0.01958103      -0.00755673
In      -0.00342054       3.99349112       6.76867793        1      -0.00561083       0.01958103       0.00755673
In       2.73620674       1.73696749      14.66826277        2       0.00561083      -0.01958103       0.00755673
In       5.46899294       1.12826181       1.13090691        3       0.00561083       0.01958103      -0.00755673
In       2.73620674       1.12826181       6.76867793        4       0.00561083       0.01958103       0.00755673
In       5.46899294       1.73696749       9.03049175        5       0.00561083      -0.01958103      -0.00755673
In       2.72936565       3.99349112       1.13090691        6      -0.00561083       0.01958103      -0.00755673
In      -0.00342054       4.60219680      14.66826277        7      -0.00561083      -0.01958103       0.00755673
In       2.72535229       4.29669602      12.93361748        8       0.00564022       0.01903820      -0.01403949
In       5.45813848       4.29899190       2.86555220        9       0.00564022      -0.01903820       0.01403949
In       2.74022011       1.43146672      10.76513704       10      -0.00564022       0.01903820       0.01403949
In       0.00743391       1.43376259       5.03403264       11      -0.00564022      -0.01903820      -0.01403949
In       2.74022011       1.43376259       2.86555220       12      -0.00564022      -0.01903820       0.01403949
In       0.00743391       1.43146672      12.93361748       13      -0.00564022       0.01903820      -0.01403949
In       2.72535229       4.29899190       5.03403264       14       0.00564022      -0.01903820      -0.01403949
In       5.45813848       4.29669602      10.76513704       15       0.00564022       0.01903820       0.01403949
O        4.69847337       5.07744522      12.60660412       16      -0.00079959       0.00677561      -0.02927742
O        1.96568717       3.51824270       3.19256556       17      -0.00079959      -0.00677561       0.02927742
O        0.76709903       2.21221592      11.09215040       18       0.00079959       0.00677561       0.02927742
O        3.49988522       0.65301339       4.70701928       19       0.00079959      -0.00677561      -0.02927742
O        0.76709903       0.65301339       3.19256556       20       0.00079959      -0.00677561       0.02927742
O        3.49988522       2.21221592      12.60660412       21       0.00079959       0.00677561      -0.02927742
O        4.69847337       3.51824270       4.70701928       22      -0.00079959      -0.00677561      -0.02927742
O        1.96568717       5.07744522      11.09215040       23      -0.00079959       0.00677561       0.02927742
O        3.86838281       3.03857750       9.87054968       24      -0.01457553       0.00699657       0.01205043
O        1.13559662       5.55711042       5.92862000       25      -0.01457553      -0.00699657      -0.01205043
O        1.59718958       0.17334819      13.82820484       26       0.01457553       0.00699657      -0.01205043
O        4.32997578       2.69188111       1.97096484       27       0.01457553      -0.00699657       0.01205043
O        1.59718958       2.69188111       5.92862000       28       0.01457553      -0.00699657      -0.01205043
O        4.32997578       0.17334819       9.87054968       29       0.01457553       0.00699657       0.01205043
O        3.86838281       5.55711042       1.97096484       30      -0.01457553      -0.00699657       0.01205043
O        1.13559662       3.03857750      13.82820484       31      -0.01457553       0.00699657      -0.01205043
O        3.52337266       3.78944328      14.96615224       32      -0.00191516       0.01975586       0.01563899
O        0.79058646       4.80624464       0.83301744       33      -0.00191516      -0.01975586      -0.01563899
O        1.94219973       0.92421397       8.73260228       34       0.00191516       0.01975586      -0.01563899
O        4.67498593       1.94101534       7.06656740       35       0.00191516      -0.01975586       0.01563899
O        1.94219973       1.94101534       0.83301744       36       0.00191516      -0.01975586      -0.01563899
O        4.67498593       0.92421397      14.96615224       37       0.00191516       0.01975586       0.01563899
O        3.52337266       4.80624464       7.06656740       38      -0.00191516      -0.01975586       0.01563899
O        0.79058646       3.78944328       8.73260228       39      -0.00191516       0.01975586      -0.01563899
40