40
Lattice="5.884427918101641 -9.861502430048073e-43 0.0 1.2497599182741358e-42 6.305623996652906 0.0 0.0 0.0 17.196476120289876" Properties=species:S:1:pos:R:3:spacegroup_kinds:I:1:forces:R:3 spacegroup="P 1" unit_cell=conventional occupancy="_JSON {\"0\": {\"In\": 1}, \"1\": {\"In\": 1}, \"2\": {\"In\": 1}, \"3\": {\"In\": 1}, \"4\": {\"In\": 1}, \"5\": {\"In\": 1}, \"6\": {\"In\": 1}, \"7\": {\"In\": 1}, \"8\": {\"In\": 1}, \"9\": {\"In\": 1}, \"10\": {\"In\": 1}, \"11\": {\"In\": 1}, \"12\": {\"In\": 1}, \"13\": {\"In\": 1}, \"14\": {\"In\": 1}, \"15\": {\"In\": 1}, \"16\": {\"O\": 1}, \"17\": {\"O\": 1}, \"18\": {\"O\": 1}, \"19\": {\"O\": 1}, \"20\": {\"O\": 1}, \"21\": {\"O\": 1}, \"22\": {\"O\": 1}, \"23\": {\"O\": 1}, \"24\": {\"O\": 1}, \"25\": {\"O\": 1}, \"26\": {\"O\": 1}, \"27\": {\"O\": 1}, \"28\": {\"O\": 1}, \"29\": {\"O\": 1}, \"30\": {\"O\": 1}, \"31\": {\"O\": 1}, \"32\": {\"O\": 1}, \"33\": {\"O\": 1}, \"34\": {\"O\": 1}, \"35\": {\"O\": 1}, \"36\": {\"O\": 1}, \"37\": {\"O\": 1}, \"38\": {\"O\": 1}, \"39\": {\"O\": 1}}" n_minim_iter=14 energy=-45146.16009973625 stress="0.05884990640904691 4.3669956308216415e-13 1.692873512967654e-14 4.3669956308216415e-13 0.058854746432188174 1.8826436350361582e-13 1.692873512967654e-14 1.8826436350361582e-13 0.058848380268749646" free_energy=-45146.16009973625 pbc="T T T"
In       2.69575480       5.28041107       9.94226917        0       0.00605544      -0.00266462       0.00477462
In      -0.24645916       4.17802492       7.25420695        1       0.00605544       0.00266462      -0.00477462
In       3.18867312       2.12759907      15.85244501        2      -0.00605544      -0.00266462      -0.00477462
In       6.13088708       1.02521293       1.34403111        3      -0.00605544       0.00266462       0.00477462
In       3.18867312       1.02521293       7.25420695        4      -0.00605544       0.00266462      -0.00477462
In       6.13088708       2.12759907       9.94226917        5      -0.00605544      -0.00266462       0.00477462
In       2.69575480       4.17802492       1.34403111        6       0.00605544       0.00266462       0.00477462
In      -0.24645916       5.28041107      15.85244501        7       0.00605544      -0.00266462      -0.00477462
In       2.70158298       5.02715615      13.99540494        8      -0.00105694      -0.00123232      -0.00051044
In       5.64379694       4.43127984       3.20107118        9      -0.00105694       0.00123232       0.00051044
In       3.18284494       1.87434415      11.79930924       10       0.00105694      -0.00123232       0.00051044
In       0.24063098       1.27846785       5.39716688       11       0.00105694       0.00123232      -0.00051044
In       3.18284494       1.27846785       3.20107118       12       0.00105694       0.00123232       0.00051044
In       0.24063098       1.87434415      13.99540494       13       0.00105694      -0.00123232      -0.00051044
In       2.70158298       4.43127984       5.39716688       14      -0.00105694       0.00123232      -0.00051044
In       5.64379694       5.02715615      11.79930924       15      -0.00105694      -0.00123232       0.00051044
O        4.85687398       5.68929678      13.76100734       16       0.00251628       0.00169524       0.00022927
O        1.91466002       3.76913921       3.43546878       17       0.00251628      -0.00169524      -0.00022927
O        1.02755394       2.53648478      12.03370684       18      -0.00251628       0.00169524      -0.00022927
O        3.96976790       0.61632721       5.16276928       19      -0.00251628      -0.00169524       0.00022927
O        1.02755394       0.61632721       3.43546878       20      -0.00251628      -0.00169524      -0.00022927
O        3.96976790       2.53648478      13.76100734       21      -0.00251628       0.00169524       0.00022927
O        4.85687398       3.76913921       5.16276928       22       0.00251628      -0.00169524       0.00022927
O        1.91466002       5.68929678      12.03370684       23       0.00251628       0.00169524      -0.00022927
O        4.11249581       3.69649865      10.86699559       24       0.00033020       0.00348568       0.00163861
O        1.17028185       5.76193735       6.32948053       25       0.00033020      -0.00348568      -0.00163861
O        1.77193210       0.54368665      14.92771859       26      -0.00033020       0.00348568      -0.00163861
O        4.71414606       2.60912535       2.26875753       27      -0.00033020      -0.00348568       0.00163861
O        1.77193210       2.60912535       6.32948053       28      -0.00033020      -0.00348568      -0.00163861
O        4.71414606       0.54368665      10.86699559       29      -0.00033020       0.00348568       0.00163861
O        4.11249581       5.76193735       2.26875753       30       0.00033020      -0.00348568       0.00163861
O        1.17028185       3.69649865      14.92771859       31       0.00033020       0.00348568      -0.00163861
O        3.71660421       4.23074150      16.42044679       32      -0.00065559       0.00162437       0.00050792
O        0.77439026       5.22769449       0.77602933       33      -0.00065559      -0.00162437      -0.00050792
O        2.16782370       1.07792951       9.37426739       34       0.00065559       0.00162437      -0.00050792
O        5.11003766       2.07488249       7.82220873       35       0.00065559      -0.00162437       0.00050792
O        2.16782370       2.07488249       0.77602933       36       0.00065559      -0.00162437      -0.00050792
O        5.11003766       1.07792951      16.42044679       37       0.00065559       0.00162437       0.00050792
O        3.71660421       5.22769449       7.82220873       38      -0.00065559      -0.00162437       0.00050792
O        0.77439026       4.23074150       9.37426739       39      -0.00065559       0.00162437      -0.00050792
