40
Lattice="5.329807071078541 2.572275152170441e-42 0.0 -2.5836893933431472e-42 5.47189873969314 0.0 0.0 0.0 15.181164104826163" Properties=species:S:1:pos:R:3:spacegroup_kinds:I:1:forces:R:3 spacegroup="P 1" unit_cell=conventional occupancy="_JSON {\"0\": {\"In\": 1}, \"1\": {\"In\": 1}, \"2\": {\"In\": 1}, \"3\": {\"In\": 1}, \"4\": {\"In\": 1}, \"5\": {\"In\": 1}, \"6\": {\"In\": 1}, \"7\": {\"In\": 1}, \"8\": {\"In\": 1}, \"9\": {\"In\": 1}, \"10\": {\"In\": 1}, \"11\": {\"In\": 1}, \"12\": {\"In\": 1}, \"13\": {\"In\": 1}, \"14\": {\"In\": 1}, \"15\": {\"In\": 1}, \"16\": {\"O\": 1}, \"17\": {\"O\": 1}, \"18\": {\"O\": 1}, \"19\": {\"O\": 1}, \"20\": {\"O\": 1}, \"21\": {\"O\": 1}, \"22\": {\"O\": 1}, \"23\": {\"O\": 1}, \"24\": {\"O\": 1}, \"25\": {\"O\": 1}, \"26\": {\"O\": 1}, \"27\": {\"O\": 1}, \"28\": {\"O\": 1}, \"29\": {\"O\": 1}, \"30\": {\"O\": 1}, \"31\": {\"O\": 1}, \"32\": {\"O\": 1}, \"33\": {\"O\": 1}, \"34\": {\"O\": 1}, \"35\": {\"O\": 1}, \"36\": {\"O\": 1}, \"37\": {\"O\": 1}, \"38\": {\"O\": 1}, \"39\": {\"O\": 1}}" n_minim_iter=13 energy=-45147.69376784744 stress="-0.10652420420675852 2.1517042818393463e-13 3.7741118086828753e-13 2.1517042818393463e-13 -0.1065859499815799 -1.4213262069860785e-13 3.7741118086828753e-13 -1.4213262069860785e-13 -0.10652789731402594" free_energy=-45147.69376784744 pbc="T T T"
In       2.64575868       4.41968234       8.69981294        0       0.00149918      -0.00408255      -0.00402936
In      -0.01914486       3.78816576       6.48135117        1       0.00149918       0.00408255       0.00402936
In       2.68404839       1.68373297      14.07193322        2      -0.00149918      -0.00408255       0.00402936
In       5.34895193       1.05221639       1.10923088        3      -0.00149918       0.00408255      -0.00402936
In       2.68404839       1.05221639       6.48135117        4      -0.00149918       0.00408255       0.00402936
In       5.34895193       1.68373297       8.69981294        5      -0.00149918      -0.00408255      -0.00402936
In       2.64575868       3.78816576       1.10923088        6       0.00149918       0.00408255      -0.00402936
In      -0.01914486       4.41968234      14.07193322        7       0.00149918      -0.00408255       0.00402936
In       2.67158925       4.17933778      12.40721181        8       0.00509754      -0.00164334       0.00296487
In       5.33649279       4.02851033       2.77395229        9       0.00509754       0.00164334      -0.00296487
In       2.65821782       1.44338841      10.36453435       10      -0.00509754      -0.00164334      -0.00296487
In      -0.00668572       1.29256096       4.81662976       11      -0.00509754       0.00164334       0.00296487
In       2.65821782       1.29256096       2.77395229       12      -0.00509754       0.00164334      -0.00296487
In      -0.00668572       1.44338841      12.40721181       13      -0.00509754      -0.00164334       0.00296487
In       2.67158925       4.02851033       4.81662976       14       0.00509754       0.00164334       0.00296487
In       5.33649279       4.17933778      10.36453435       15       0.00509754      -0.00164334      -0.00296487
O        4.57407433       4.94667777      12.11000313       16       0.00255316      -0.00711194      -0.00600699
O        1.90917079       3.26117034       3.07116098       17       0.00255316       0.00711194       0.00600699
O        0.75573274       2.21072840      10.66174303       18      -0.00255316      -0.00711194       0.00600699
O        3.42063628       0.52522097       4.51942107       19      -0.00255316       0.00711194      -0.00600699
O        0.75573274       0.52522097       3.07116098       20      -0.00255316       0.00711194       0.00600699
O        3.42063628       2.21072840      12.11000313       21      -0.00255316      -0.00711194      -0.00600699
O        4.57407433       3.26117034       4.51942107       22       0.00255316       0.00711194      -0.00600699
O        1.90917079       4.94667777      10.66174303       23       0.00255316      -0.00711194       0.00600699
O        3.80154319       2.94680034       9.52117606       24       0.00518101      -0.00092897      -0.00206336
O        1.13663966       5.26104777       5.65998805       25       0.00518101       0.00092897       0.00206336
O        1.52826388       0.21085097      13.25057010       26      -0.00518101      -0.00092897       0.00206336
O        4.19316741       2.52509840       1.93059401       27      -0.00518101       0.00092897      -0.00206336
O        1.52826388       2.52509840       5.65998805       28      -0.00518101       0.00092897       0.00206336
O        4.19316741       0.21085097       9.52117606       29      -0.00518101      -0.00092897      -0.00206336
O        3.80154319       5.26104777       1.93059401       30       0.00518101       0.00092897      -0.00206336
O        1.13663966       2.94680034      13.25057010       31       0.00518101      -0.00092897       0.00206336
O        3.39358762       3.70633209      14.37789476       32      -0.00580947       0.00168861      -0.00496716
O        0.72868409       4.50151602       0.80326934       33      -0.00580947      -0.00168861       0.00496716
O        1.93621945       0.97038272       8.39385140       34       0.00580947       0.00168861       0.00496716
O        4.60112299       1.76556665       6.78731271       35       0.00580947      -0.00168861      -0.00496716
O        1.93621945       1.76556665       0.80326934       36       0.00580947      -0.00168861       0.00496716
O        4.60112299       0.97038272      14.37789476       37       0.00580947       0.00168861      -0.00496716
O        3.39358762       4.50151602       6.78731271       38      -0.00580947      -0.00168861      -0.00496716
O        0.72868409       3.70633209       8.39385140       39      -0.00580947       0.00168861       0.00496716
