40
Lattice="6.097399538184026 1.812192907320379e-42 0.0 2.3900649327625356e-44 4.122011983229566 0.0 0.0 0.0 17.09762292572895" Properties=species:S:1:pos:R:3:spacegroup_kinds:I:1:forces:R:3 spacegroup="P 1" unit_cell=conventional occupancy="_JSON {\"0\": {\"In\": 1}, \"1\": {\"In\": 1}, \"2\": {\"In\": 1}, \"3\": {\"In\": 1}, \"4\": {\"In\": 1}, \"5\": {\"In\": 1}, \"6\": {\"In\": 1}, \"7\": {\"In\": 1}, \"8\": {\"In\": 1}, \"9\": {\"In\": 1}, \"10\": {\"In\": 1}, \"11\": {\"In\": 1}, \"12\": {\"In\": 1}, \"13\": {\"In\": 1}, \"14\": {\"In\": 1}, \"15\": {\"In\": 1}, \"16\": {\"O\": 1}, \"17\": {\"O\": 1}, \"18\": {\"O\": 1}, \"19\": {\"O\": 1}, \"20\": {\"O\": 1}, \"21\": {\"O\": 1}, \"22\": {\"O\": 1}, \"23\": {\"O\": 1}, \"24\": {\"O\": 1}, \"25\": {\"O\": 1}, \"26\": {\"O\": 1}, \"27\": {\"O\": 1}, \"28\": {\"O\": 1}, \"29\": {\"O\": 1}, \"30\": {\"O\": 1}, \"31\": {\"O\": 1}, \"32\": {\"O\": 1}, \"33\": {\"O\": 1}, \"34\": {\"O\": 1}, \"35\": {\"O\": 1}, \"36\": {\"O\": 1}, \"37\": {\"O\": 1}, \"38\": {\"O\": 1}, \"39\": {\"O\": 1}}" n_minim_iter=45 energy=-45148.908944528914 stress="-0.012726592669143498 -4.696522925376501e-13 3.441809225391408e-13 -4.696522925376501e-13 -0.01308667495643168 1.63203310683498e-14 3.441809225391408e-13 1.63203310683498e-14 -0.013073269703326543" free_energy=-45148.908944528914 pbc="T T T"
In       2.95447417       3.09872329       9.67753936        0       0.00099367      -0.00287045      -0.00432865
In      -0.09422560       3.08429469       7.42008357        1       0.00099367       0.00287045       0.00432865
In       3.14292537       1.03771730      15.96889503        2      -0.00099367      -0.00287045       0.00432865
In       6.19162514       1.02328869       1.12872789        3      -0.00099367       0.00287045      -0.00432865
In       3.14292537       1.02328869       7.42008357        4      -0.00099367       0.00287045       0.00432865
In       6.19162514       1.03771730       9.67753936        5      -0.00099367      -0.00287045      -0.00432865
In       2.95447417       3.08429469       1.12872789        6       0.00099367       0.00287045      -0.00432865
In      -0.09422560       3.09872329      15.96889503        7       0.00099367      -0.00287045       0.00432865
In       3.14284187       3.10016408      13.94970402        8      -0.00078867      -0.00421725       0.00403685
In       6.19154164       3.08285390       3.14791890        9      -0.00078867       0.00421725      -0.00403685
In       2.95455767       1.03915809      11.69673037       10       0.00078867      -0.00421725      -0.00403685
In      -0.09414210       1.02184791       5.40089256       11       0.00078867       0.00421725       0.00403685
In       2.95455767       1.02184791       3.14791890       12       0.00078867       0.00421725      -0.00403685
In      -0.09414210       1.03915809      13.94970402       13       0.00078867      -0.00421725       0.00403685
In       3.14284187       3.08285390       5.40089256       14      -0.00078867       0.00421725       0.00403685
In       6.19154164       3.10016408      11.69673037       15      -0.00078867      -0.00421725      -0.00403685
O        5.30403224       3.10093868      13.62009153       16       0.00126658      -0.00301332       0.00030558
O        2.25533247       3.08207929       3.47753140       17       0.00126658       0.00301332      -0.00030558
O        0.79336730       1.03993269      12.02634286       18      -0.00126658      -0.00301332      -0.00030558
O        3.84206707       1.02107330       5.07128007       19      -0.00126658       0.00301332       0.00030558
O        0.79336730       1.02107330       3.47753140       20      -0.00126658       0.00301332      -0.00030558
O        3.84206707       1.03993269      13.62009153       21      -0.00126658      -0.00301332       0.00030558
O        5.30403224       3.08207929       5.07128007       22       0.00126658       0.00301332       0.00030558
O        2.25533247       3.10093868      12.02634286       23       0.00126658      -0.00301332      -0.00030558
O        4.57351729       2.06928925      10.68791079       24      -0.00180117      -0.00178594      -0.00101968
O        1.52481752       4.11372873       6.40971214       25      -0.00180117       0.00178594       0.00101968
O        1.52388225       0.00828326      14.95852360       26       0.00180117      -0.00178594       0.00101968
O        4.57258202       2.05272273       2.13909933       27       0.00180117       0.00178594      -0.00101968
O        1.52388225       2.05272273       6.40971214       28       0.00180117       0.00178594       0.00101968
O        4.57258202       0.00828326      10.68791079       29       0.00180117      -0.00178594      -0.00101968
O        4.57351729       4.11372873       2.13909933       30      -0.00180117       0.00178594      -0.00101968
O        1.52481752       2.06928925      14.95852360       31      -0.00180117      -0.00178594       0.00101968
O        3.84083594       3.09922342      16.30096397       32       0.00209919      -0.00981755       0.00330841
O        0.79213617       3.08379456       0.79665896       33       0.00209919       0.00981755      -0.00330841
O        2.25656360       1.03821743       9.34547042       34      -0.00209919      -0.00981755      -0.00330841
O        5.30526337       1.02278857       7.75215250       35      -0.00209919       0.00981755       0.00330841
O        2.25656360       1.02278857       0.79665896       36      -0.00209919       0.00981755      -0.00330841
O        5.30526337       1.03821743      16.30096397       37      -0.00209919      -0.00981755       0.00330841
O        3.84083594       3.08379456       7.75215250       38       0.00209919       0.00981755       0.00330841
O        0.79213617       3.09922342       9.34547042       39       0.00209919      -0.00981755      -0.00330841
