40
Lattice="5.8035825826744825 9.968562936487993e-43 0.0 -1.7904677048027186e-42 6.004734145615211 0.0 0.0 0.0 17.188721593614474" Properties=species:S:1:pos:R:3:spacegroup_kinds:I:1:forces:R:3 spacegroup="P 1" unit_cell=conventional occupancy="_JSON {\"0\": {\"In\": 1}, \"1\": {\"In\": 1}, \"2\": {\"In\": 1}, \"3\": {\"In\": 1}, \"4\": {\"In\": 1}, \"5\": {\"In\": 1}, \"6\": {\"In\": 1}, \"7\": {\"In\": 1}, \"8\": {\"In\": 1}, \"9\": {\"In\": 1}, \"10\": {\"In\": 1}, \"11\": {\"In\": 1}, \"12\": {\"In\": 1}, \"13\": {\"In\": 1}, \"14\": {\"In\": 1}, \"15\": {\"In\": 1}, \"16\": {\"O\": 1}, \"17\": {\"O\": 1}, \"18\": {\"O\": 1}, \"19\": {\"O\": 1}, \"20\": {\"O\": 1}, \"21\": {\"O\": 1}, \"22\": {\"O\": 1}, \"23\": {\"O\": 1}, \"24\": {\"O\": 1}, \"25\": {\"O\": 1}, \"26\": {\"O\": 1}, \"27\": {\"O\": 1}, \"28\": {\"O\": 1}, \"29\": {\"O\": 1}, \"30\": {\"O\": 1}, \"31\": {\"O\": 1}, \"32\": {\"O\": 1}, \"33\": {\"O\": 1}, \"34\": {\"O\": 1}, \"35\": {\"O\": 1}, \"36\": {\"O\": 1}, \"37\": {\"O\": 1}, \"38\": {\"O\": 1}, \"39\": {\"O\": 1}}" n_minim_iter=24 energy=-45148.5881657241 stress="0.037539208914074966 1.6492189649430936e-13 5.176671402898097e-14 1.6492189649430936e-13 0.03731667981809059 -1.33712586264927e-13 5.176671402898097e-14 -1.33712586264927e-13 0.03731920237885319" free_energy=-45148.5881657241 pbc="T T T"
In       2.78947098       4.95300308       9.91350086        0       0.00154317      -0.00800687       0.00198670
In      -0.11232031       4.05409814       7.27522073        1       0.00154317       0.00800687      -0.00198670
In       3.01411160       1.95063601      15.86958153        2      -0.00154317      -0.00800687      -0.00198670
In       5.91590289       1.05173107       1.31914007        3      -0.00154317       0.00800687       0.00198670
In       3.01411160       1.05173107       7.27522073        4      -0.00154317       0.00800687      -0.00198670
In       5.91590289       1.95063601       9.91350086        5      -0.00154317      -0.00800687       0.00198670
In       2.78947098       4.05409814       1.31914007        6       0.00154317       0.00800687       0.00198670
In      -0.11232031       4.95300308      15.86958153        7       0.00154317      -0.00800687      -0.00198670
In       2.77499529       4.61283699      13.97720836        8       0.00244277       0.00386252      -0.00207674
In       5.67678658       4.39426423       3.21151324        9       0.00244277      -0.00386252       0.00207674
In       3.02858729       1.61046992      11.80587404       10      -0.00244277       0.00386252       0.00207674
In       0.12679600       1.39189715       5.38284756       11      -0.00244277      -0.00386252      -0.00207674
In       3.02858729       1.39189715       3.21151324       12      -0.00244277      -0.00386252       0.00207674
In       0.12679600       1.61046992      13.97720836       13      -0.00244277       0.00386252      -0.00207674
In       2.77499529       4.39426423       5.38284756       14       0.00244277      -0.00386252      -0.00207674
In       5.67678658       4.61283699      11.80587404       15       0.00244277       0.00386252       0.00207674
O        4.90744611       5.42458313      13.72765595       16       0.00177151       0.00505879      -0.00635558
O        2.00565481       3.58251808       3.46106564       17       0.00177151      -0.00505879       0.00635558
O        0.89613648       2.42221606      12.05542644       18      -0.00177151       0.00505879       0.00635558
O        3.79792777       0.58015101       5.13329516       19      -0.00177151      -0.00505879      -0.00635558
O        0.89613648       0.58015101       3.46106564       20      -0.00177151      -0.00505879       0.00635558
O        3.79792777       2.42221606      13.72765595       21      -0.00177151       0.00505879      -0.00635558
O        4.90744611       3.58251808       5.13329516       22       0.00177151      -0.00505879      -0.00635558
O        2.00565481       5.42458313      12.05542644       23       0.00177151       0.00505879       0.00635558
O        4.06812250       3.32384852      10.82355915       24      -0.00072152      -0.00208793       0.00571536
O        1.16633121       5.68325270       6.36516245       25      -0.00072152       0.00208793      -0.00571536
O        1.73546008       0.32148145      14.95952324       26       0.00072152      -0.00208793      -0.00571536
O        4.63725137       2.68088562       2.22919835       27       0.00072152       0.00208793       0.00571536
O        1.73546008       2.68088562       6.36516245       28       0.00072152       0.00208793      -0.00571536
O        4.63725137       0.32148145      10.82355915       29       0.00072152      -0.00208793       0.00571536
O        4.06812250       5.68325270       2.22919835       30      -0.00072152       0.00208793       0.00571536
O        1.16633121       3.32384852      14.95952324       31      -0.00072152      -0.00208793      -0.00571536
O        3.69508262       4.07234224      16.32582475       32       0.00561100      -0.00017366       0.00465946
O        0.79329133       4.93475898       0.86289685       33       0.00561100       0.00017366      -0.00465946
O        2.10849996       1.06997517       9.45725764       34      -0.00561100      -0.00017366      -0.00465946
O        5.01029125       1.93239190       7.73146395       35      -0.00561100       0.00017366       0.00465946
O        2.10849996       1.93239190       0.86289685       36      -0.00561100       0.00017366      -0.00465946
O        5.01029125       1.06997517      16.32582475       37      -0.00561100      -0.00017366       0.00465946
O        3.69508262       4.93475898       7.73146395       38       0.00561100       0.00017366       0.00465946
O        0.79329133       4.07234224       9.45725764       39       0.00561100      -0.00017366      -0.00465946
