20
Lattice="5.5870536011625545 5.2144674836622346e-64 -2.6414404762595565e-43 -1.0691722420674074e-62 5.687137047092446 -2.1491942613345376e-19 3.824995406782815e-43 3.057418617403004e-19 8.090454641687797" Properties=species:S:1:pos:R:3:spacegroup_kinds:I:1:forces:R:3 spacegroup="P 1" unit_cell=conventional occupancy="_JSON {\"0\": {\"In\": 1}, \"1\": {\"In\": 1}, \"2\": {\"In\": 1}, \"3\": {\"In\": 1}, \"4\": {\"In\": 1}, \"5\": {\"In\": 1}, \"6\": {\"In\": 1}, \"7\": {\"In\": 1}, \"8\": {\"O\": 1}, \"9\": {\"O\": 1}, \"10\": {\"O\": 1}, \"11\": {\"O\": 1}, \"12\": {\"O\": 1}, \"13\": {\"O\": 1}, \"14\": {\"O\": 1}, \"15\": {\"O\": 1}, \"16\": {\"O\": 1}, \"17\": {\"O\": 1}, \"18\": {\"O\": 1}, \"19\": {\"O\": 1}}" n_minim_iter=1 energy=-22574.958556018268 stress="-0.000146386033826166 -7.801703992144303e-13 3.282165412256998e-14 -7.801703992144303e-13 0.00022022488285161772 -4.454438328368452e-13 3.282165412256998e-14 -4.454438328368452e-13 0.00038642848788644557" free_energy=-22574.958556018268 pbc="T T T"
In       1.38603249       3.00593670       0.92924912        0      -0.00585288      -0.00352158      -0.00692098
In       1.40749431       0.16236818       3.11597820        1       0.00585288      -0.00352158       0.00692098
In       1.40749431       2.68120034       4.97447644        2       0.00585288       0.00352158      -0.00692098
In       1.38603249       5.52476887       7.16120552        3      -0.00585288       0.00352158       0.00692098
In       4.20102111       2.68120034       7.16120552        4       0.00585288       0.00352158       0.00692098
In       4.17955929       5.52476887       4.97447644        5      -0.00585288       0.00352158      -0.00692098
In       4.17955929       3.00593670       3.11597820        6      -0.00585288      -0.00352158       0.00692098
In       4.20102111       0.16236818       0.92924912        7       0.00585288      -0.00352158      -0.00692098
O        2.17966156       3.43553954       6.87062938        8      -0.00327948      -0.00161286       0.00562328
O        0.61386524       0.59197101       5.26505258        9       0.00327948      -0.00161286      -0.00562328
O        0.61386524       2.25159751       2.82540206       10       0.00327948       0.00161286       0.00562328
O        2.17966156       5.09516603       1.21982526       11      -0.00327948       0.00161286      -0.00562328
O        3.40739204       2.25159751       1.21982526       12       0.00327948       0.00161286      -0.00562328
O        4.97318836       5.09516603       2.82540206       13      -0.00327948       0.00161286       0.00562328
O        4.97318836       3.43553954       5.26505258       14      -0.00327948      -0.00161286      -0.00562328
O        3.40739204       0.59197101       6.87062938       15       0.00327948      -0.00161286       0.00562328
O        5.35234991       4.26535279       0.00000000       16       0.00213308      -0.00000000      -0.00000000
O        3.02823049       1.42178426       4.04522732       17      -0.00213308       0.00000000      -0.00000000
O        0.23470369       1.42178426       0.00000000       18      -0.00213308       0.00000000       0.00000000
O        2.55882311       4.26535279       4.04522732       19       0.00213308       0.00000000      -0.00000000
