20
Lattice="5.58776387247407 2.2640217461667903e-59 -3.528087720346986e-43 3.201986764377725e-59 5.667745136061233 2.2176396424171103e-16 3.8960794350463656e-43 3.1568344566677157e-16 7.914176226794321" Properties=species:S:1:pos:R:3:spacegroup_kinds:I:1:forces:R:3 spacegroup="P 1" unit_cell=conventional occupancy="_JSON {\"0\": {\"In\": 1}, \"1\": {\"In\": 1}, \"2\": {\"In\": 1}, \"3\": {\"In\": 1}, \"4\": {\"In\": 1}, \"5\": {\"In\": 1}, \"6\": {\"In\": 1}, \"7\": {\"In\": 1}, \"8\": {\"O\": 1}, \"9\": {\"O\": 1}, \"10\": {\"O\": 1}, \"11\": {\"O\": 1}, \"12\": {\"O\": 1}, \"13\": {\"O\": 1}, \"14\": {\"O\": 1}, \"15\": {\"O\": 1}, \"16\": {\"O\": 1}, \"17\": {\"O\": 1}, \"18\": {\"O\": 1}, \"19\": {\"O\": 1}}" n_minim_iter=11 energy=-22574.958249758958 stress="0.0004561033686505538 1.9328597876658224e-12 1.739571835564579e-12 1.9328597876658224e-12 0.00042863782228280505 3.4932482390347216e-13 1.739571835564579e-12 3.4932482390347216e-13 0.0004174648429755451" free_energy=-22574.958249758958 pbc="T T T"
In       1.38516633       2.99129146       0.92653115        0       0.00209910      -0.00527964       0.00296769
In       1.40871561       0.15741889       3.03055696        1      -0.00209910      -0.00527964      -0.00296769
In       1.40871561       2.67645368       4.88361927        2      -0.00209910       0.00527964       0.00296769
In       1.38516633       5.51032624       6.98764507        3       0.00209910       0.00527964      -0.00296769
In       4.20259755       2.67645368       6.98764507        4      -0.00209910       0.00527964      -0.00296769
In       4.17904826       5.51032624       4.88361927        5       0.00209910       0.00527964       0.00296769
In       4.17904826       2.99129146       3.03055696        6       0.00209910      -0.00527964      -0.00296769
In       4.20259755       0.15741889       0.92653115        7      -0.00209910      -0.00527964       0.00296769
O        2.18513381       3.43450231       6.73624693        8      -0.00041693       0.00075564      -0.00579424
O        0.60874812       0.60062974       5.13501741        9       0.00041693       0.00075564       0.00579424
O        0.60874812       2.23324283       2.77915881       10       0.00041693      -0.00075564      -0.00579424
O        2.18513381       5.06711540       1.17792930       11      -0.00041693      -0.00075564       0.00579424
O        3.40263006       2.23324283       1.17792930       12       0.00041693      -0.00075564       0.00579424
O        4.97901575       5.06711540       2.77915881       13      -0.00041693      -0.00075564      -0.00579424
O        4.97901575       3.43450231       5.13501741       14      -0.00041693       0.00075564       0.00579424
O        3.40263006       0.60062974       6.73624693       15       0.00041693       0.00075564      -0.00579424
O        5.34772437       4.25080885       0.00000000       16       0.00123258      -0.00000000       0.00000000
O        3.03392144       1.41693628       3.95708811       17      -0.00123258      -0.00000000      -0.00000000
O        0.24003950       1.41693628       0.00000000       18      -0.00123258      -0.00000000      -0.00000000
O        2.55384243       4.25080885       3.95708811       19       0.00123258      -0.00000000       0.00000000
