20
Lattice="5.542624486884866 8.556132668591678e-59 -3.938846463008212e-43 -9.925988296088602e-59 5.565077169639838 -1.218132246317778e-16 9.776307246294566e-43 2.2576304331189494e-16 7.709115365599234" Properties=species:S:1:pos:R:3:spacegroup_kinds:I:1:forces:R:3 spacegroup="P 1" unit_cell=conventional occupancy="_JSON {\"0\": {\"In\": 1}, \"1\": {\"In\": 1}, \"2\": {\"In\": 1}, \"3\": {\"In\": 1}, \"4\": {\"In\": 1}, \"5\": {\"In\": 1}, \"6\": {\"In\": 1}, \"7\": {\"In\": 1}, \"8\": {\"O\": 1}, \"9\": {\"O\": 1}, \"10\": {\"O\": 1}, \"11\": {\"O\": 1}, \"12\": {\"O\": 1}, \"13\": {\"O\": 1}, \"14\": {\"O\": 1}, \"15\": {\"O\": 1}, \"16\": {\"O\": 1}, \"17\": {\"O\": 1}, \"18\": {\"O\": 1}, \"19\": {\"O\": 1}}" n_minim_iter=11 energy=-22575.10966925191 stress="0.03226616252176294 8.694816510203684e-13 -1.5776490669778377e-12 8.694816510203684e-13 0.03231113733056908 -4.79582200198032e-13 -1.5776490669778377e-12 -4.79582200198032e-13 0.03207599280149714" free_energy=-22575.10966925191 pbc="T T T"
In       1.37315179       2.95772835       0.93432321        0       0.00223875      -0.00280442      -0.00209259
In       1.39816046       0.17518976       2.92023447        1      -0.00223875      -0.00280442       0.00209259
In       1.39816046       2.60734882       4.78888089        2      -0.00223875       0.00280442      -0.00209259
In       1.37315179       5.38988741       6.77479216        3       0.00223875       0.00280442       0.00209259
In       4.16947270       2.60734882       6.77479216        4      -0.00223875       0.00280442       0.00209259
In       4.14446403       5.38988741       4.78888089        5       0.00223875       0.00280442      -0.00209259
In       4.14446403       2.95772835       2.92023447        6       0.00223875      -0.00280442       0.00209259
In       4.16947270       0.17518976       0.93432321        7      -0.00223875      -0.00280442      -0.00209259
O        2.17094976       3.34573964       6.56741359        8      -0.00129614       0.00307682       0.00110239
O        0.60036248       0.56320106       4.99625946        9       0.00129614       0.00307682      -0.00110239
O        0.60036248       2.21933753       2.71285591       10       0.00129614      -0.00307682       0.00110239
O        2.17094976       5.00187611       1.14170177       11      -0.00129614      -0.00307682      -0.00110239
O        3.37167472       2.21933753       1.14170177       12       0.00129614      -0.00307682      -0.00110239
O        4.94226201       5.00187611       2.71285591       13      -0.00129614      -0.00307682       0.00110239
O        4.94226201       3.34573964       4.99625946       14      -0.00129614       0.00307682      -0.00110239
O        3.37167472       0.56320106       6.56741359       15       0.00129614       0.00307682       0.00110239
O        5.27201809       4.17380788       0.00000000       16      -0.00057109       0.00000000       0.00000000
O        3.04191864       1.39126929       3.85455768       17       0.00057109       0.00000000       0.00000000
O        0.27060640       1.39126929       0.00000000       18       0.00057109       0.00000000      -0.00000000
O        2.50070585       4.17380788       3.85455768       19      -0.00057109       0.00000000      -0.00000000
