20
Lattice="5.492234202412356 8.4783453387491e-59 -3.903036785799487e-43 -9.835747043935543e-59 5.514482758571007 -1.2070577038221907e-16 9.68742680627971e-43 2.237105384014893e-16 7.639028619289226" Properties=species:S:1:pos:R:3:spacegroup_kinds:I:1:forces:R:3 spacegroup="P 1" unit_cell=conventional occupancy="_JSON {\"0\": {\"In\": 1}, \"1\": {\"In\": 1}, \"2\": {\"In\": 1}, \"3\": {\"In\": 1}, \"4\": {\"In\": 1}, \"5\": {\"In\": 1}, \"6\": {\"In\": 1}, \"7\": {\"In\": 1}, \"8\": {\"O\": 1}, \"9\": {\"O\": 1}, \"10\": {\"O\": 1}, \"11\": {\"O\": 1}, \"12\": {\"O\": 1}, \"13\": {\"O\": 1}, \"14\": {\"O\": 1}, \"15\": {\"O\": 1}, \"16\": {\"O\": 1}, \"17\": {\"O\": 1}, \"18\": {\"O\": 1}, \"19\": {\"O\": 1}}" n_minim_iter=11 energy=-22575.10966925191 stress="0.03226616252176294 8.694816510203684e-13 -1.5776490669778377e-12 8.694816510203684e-13 0.03231113733056908 -4.79582200198032e-13 -1.5776490669778377e-12 -4.79582200198032e-13 0.03207599280149714" free_energy=-22575.10966925191 pbc="T T T"
In       1.36066790       2.93083842       0.92582889        0       0.00223875      -0.00280442      -0.00209259
In       1.38544920       0.17359704       2.89368542        1      -0.00223875      -0.00280442       0.00209259
In       1.38544920       2.58364434       4.74534320        2      -0.00223875       0.00280442      -0.00209259
In       1.36066790       5.34088572       6.71319973        3       0.00223875       0.00280442       0.00209259
In       4.13156630       2.58364434       6.71319973        4      -0.00223875       0.00280442       0.00209259
In       4.10678500       5.34088572       4.74534320        5       0.00223875       0.00280442      -0.00209259
In       4.10678500       2.93083842       2.89368542        6       0.00223875      -0.00280442       0.00209259
In       4.13156630       0.17359704       0.92582889        7      -0.00223875      -0.00280442      -0.00209259
O        2.15121276       3.31532214       6.50770653        8      -0.00129614       0.00307682       0.00110239
O        0.59490434       0.55808076       4.95083640        9       0.00129614       0.00307682      -0.00110239
O        0.59490434       2.19916061       2.68819222       10       0.00129614      -0.00307682       0.00110239
O        2.15121276       4.95640199       1.13132209       11      -0.00129614      -0.00307682      -0.00110239
O        3.34102144       2.19916061       1.13132209       12       0.00129614      -0.00307682      -0.00110239
O        4.89732986       4.95640199       2.68819222       13      -0.00129614      -0.00307682       0.00110239
O        4.89732986       3.31532214       4.95083640       14      -0.00129614       0.00307682      -0.00110239
O        3.34102144       0.55808076       6.50770653       15       0.00129614       0.00307682       0.00110239
O        5.22408800       4.13586207       0.00000000       16      -0.00057109       0.00000000       0.00000000
O        3.01426330       1.37862069       3.81951431       17       0.00057109       0.00000000       0.00000000
O        0.26814620       1.37862069       0.00000000       18       0.00057109       0.00000000      -0.00000000
O        2.47797090       4.13586207       3.81951431       19      -0.00057109       0.00000000      -0.00000000
