10
Lattice="5.214308137518757 -0.2600351568303203 -0.17955062178457837 2.64381409838451 4.501874570550072 -0.1795506217845757 2.6438140983845146 1.4271392717507498 4.27345136555634" Properties=species:S:1:pos:R:3:spacegroup_kinds:I:1:forces:R:3 spacegroup="P 1" unit_cell=conventional occupancy="_JSON {\"0\": {\"In\": 1}, \"1\": {\"In\": 1}, \"2\": {\"In\": 1}, \"3\": {\"In\": 1}, \"4\": {\"O\": 1}, \"5\": {\"O\": 1}, \"6\": {\"O\": 1}, \"7\": {\"O\": 1}, \"8\": {\"O\": 1}, \"9\": {\"O\": 1}}" n_minim_iter=1 energy=-11285.740152681883 stress="-0.24296264717556526 0.0028883505967172915 0.0019943654995654464 0.0028883505967172915 -0.24675425391854292 0.0010765648496016767 0.0019943654995654464 0.0010765648496016767 -0.24757004187211853" free_energy=-11285.740152681883 pbc="T T T"
In       9.14772804       4.93797274       3.40960078        0      -0.04259568      -0.02299328      -0.01587654
In       6.60517645       3.56549529       2.46192439        1       0.04259568       0.02299328       0.01587654
In       3.89675987       2.10348339       1.45242572        2      -0.04259568      -0.02299328      -0.01587654
In       1.35420828       0.73100595       0.50474933        3       0.04259568       0.02299328       0.01587654
O        5.23263815       1.95785453      -0.08242759        4       0.00000000      -0.02522450       0.03653151
O        5.99389731       4.57677974       0.79903691        5       0.02108780      -0.03906573      -0.00000000
O        7.11519308       1.63280880       2.05429809        6      -0.02108780       0.01384123       0.03653151
O        3.38674324       4.03616988       1.86005202        7       0.02108780      -0.01384123      -0.03653151
O        5.26929818       3.71112415       3.99677771        8       0.00000000       0.02522450      -0.03653151
O        4.50803901       1.09219894       3.11531321        9      -0.02108780       0.03906573      -0.00000000
10
Lattice="5.205462884395697 -0.26997049780567667 -0.18641083511692808 2.6306545201752023 4.499931633479381 -0.1864108351169254 2.6306545201752054 1.4200356895156536 4.2740650844294805" Properties=species:S:1:pos:R:3:spacegroup_kinds:I:1:forces:R:3 spacegroup="P 1" unit_cell=conventional occupancy="_JSON {\"0\": {\"In\": 1}, \"1\": {\"In\": 1}, \"2\": {\"In\": 1}, \"3\": {\"In\": 1}, \"4\": {\"O\": 1}, \"5\": {\"O\": 1}, \"6\": {\"O\": 1}, \"7\": {\"O\": 1}, \"8\": {\"O\": 1}, \"9\": {\"O\": 1}}" n_minim_iter=2 energy=-11285.741666870568 stress="-0.24313682179047788 -1.1543334901465746e-05 -7.97050987303984e-06 -1.1543334901465746e-05 -0.2431216685790691 -4.302507871150202e-06 -7.97050987303984e-06 -4.302507871150202e-06 -0.24311840827139866" free_energy=-11285.741666870568 pbc="T T T"
In       9.11683518       4.92129667       3.39808620        0       0.03320862       0.01792612       0.01237773
In       6.58332270       3.55369857       2.45377892        1      -0.03320862      -0.01792612      -0.01237773
In       3.88344921       2.09629826       1.44746449        2       0.03320862       0.01792612       0.01237773
In       1.34993674       0.72870015       0.50315721        3      -0.03320862      -0.01792612      -0.01237773
O        5.21942442       1.94911054      -0.09053794        4      -0.00000000      -0.04672921       0.06767584
O        5.97329359       4.56759607       0.78890002        5       0.03906586      -0.07237055      -0.00000000
O        7.09620977       1.61901209       2.04649460        6      -0.03906586       0.02564134       0.06767584
O        3.37056214       4.03098474       1.85474881        7       0.03906586      -0.02564134      -0.06767584
O        5.24734749       3.70088629       3.99178135        8      -0.00000000       0.04672921      -0.06767584
O        4.49347833       1.08240075       3.11234339        9      -0.03906586       0.07237055      -0.00000000
10
Lattice="5.20164025142295 -0.2742749231924127 -0.18938298036080406 2.624958436871116 4.499097825499549 -0.18938298036080134 2.62495843687112 1.4169609256041544 4.274338415705536" Properties=species:S:1:pos:R:3:spacegroup_kinds:I:1:forces:R:3 spacegroup="P 1" unit_cell=conventional occupancy="_JSON {\"0\": {\"In\": 1}, \"1\": {\"In\": 1}, \"2\": {\"In\": 1}, \"3\": {\"In\": 1}, \"4\": {\"O\": 1}, \"5\": {\"O\": 1}, \"6\": {\"O\": 1}, \"7\": {\"O\": 1}, \"8\": {\"O\": 1}, \"9\": {\"O\": 1}}" n_minim_iter=3 energy=-11285.742427278788 stress="-0.2422489822944323 -0.0002452567777929496 -0.0001693463595011385 -0.0002452567777929496 -0.24192702787131984 -9.141370323265076e-05 -0.0001693463595011385 -9.141370323265076e-05 -0.24185775735958986" free_energy=-11285.742427278788 pbc="T T T"
In       9.10450636       4.91464153       3.39349092        0       0.00766617       0.00413822       0.00285738
In       6.57282932       3.54803421       2.44986776        1      -0.00766617      -0.00413822      -0.00285738
In       3.87872779       2.09374962       1.44570469        2       0.00766617       0.00413822       0.00285738
In       1.34705076       0.72714229       0.50208153        3      -0.00766617      -0.00413822      -0.00285738
O        5.21370940       1.94383709      -0.09189503        4      -0.00000000      -0.00197052       0.00285381
O        5.96562337       4.56131969       0.78451013        5       0.00164736      -0.00305178       0.00000000
O        7.08675387       1.61385527       2.04527417        6      -0.00164736       0.00108127       0.00285381
O        3.36480324       4.02792856       1.85029828        7       0.00164736      -0.00108127      -0.00285381
O        5.23784771       3.69794674       3.98746749        8       0.00000000       0.00197052      -0.00285381
O        4.48593374       1.08046414       3.11106232        9      -0.00164736       0.00305178       0.00000000
