10
Lattice="5.912292190597673 -0.014511291892196496 -0.010019843139291175 3.2320723715136066 4.950668410416217 -0.010019843139285339 3.2320723715136053 1.7446829613875479 4.633065882479282" Properties=species:S:1:pos:R:3:spacegroup_kinds:I:1:forces:R:3 spacegroup="P 1" unit_cell=conventional occupancy="_JSON {\"0\": {\"In\": 1}, \"1\": {\"In\": 1}, \"2\": {\"In\": 1}, \"3\": {\"In\": 1}, \"4\": {\"O\": 1}, \"5\": {\"O\": 1}, \"6\": {\"O\": 1}, \"7\": {\"O\": 1}, \"8\": {\"O\": 1}, \"9\": {\"O\": 1}}" n_minim_iter=3 energy=-11287.66746619984 stress="0.010137518901856114 -8.059825710062845e-06 -5.56519618527809e-06 -8.059825710062845e-06 0.010148099227263025 -3.004111874961903e-06 -5.56519618527809e-06 -3.004111874961903e-06 0.010150375651585579" free_energy=-11287.66746619984 pbc="T T T"
In      10.60940036       5.72698811       3.95440482        0       0.00197245       0.00106474       0.00073519
In       7.95525505       4.29427202       2.96513448        1      -0.00197245      -0.00106474      -0.00073519
In       4.42118190       2.38656807       1.64789172        2       0.00197245       0.00106474       0.00073519
In       1.76703658       0.95385198       0.65862139        3      -0.00197245      -0.00106474      -0.00073519
O        6.05025533       2.31405464       0.20528717        4      -0.00000000       0.00050828      -0.00073612
O        7.12196846       5.14666178       1.14323671        5      -0.00042493       0.00078719       0.00000000
O        8.21061458       2.17802292       2.52182011        6       0.00042493      -0.00027891      -0.00073612
O        4.16582236       4.50281717       2.09120609        7      -0.00042493       0.00027891       0.00073612
O        6.32618161       4.36678545       4.40773904        8      -0.00000000      -0.00050828       0.00073612
O        5.25446849       1.53417831       3.46978949        9       0.00042493      -0.00078719      -0.00000000
