10
Lattice="5.4453398509036655 -0.12877649428141846 -0.08891835973762183 2.880319142888654 4.622993739172515 -0.08891835973762041 2.8803191428886556 1.554805448122706 4.354601888303291" Properties=species:S:1:pos:R:3:spacegroup_kinds:I:1:forces:R:3 spacegroup="P 1" unit_cell=conventional occupancy="_JSON {\"0\": {\"In\": 1}, \"1\": {\"In\": 1}, \"2\": {\"In\": 1}, \"3\": {\"In\": 1}, \"4\": {\"O\": 1}, \"5\": {\"O\": 1}, \"6\": {\"O\": 1}, \"7\": {\"O\": 1}, \"8\": {\"O\": 1}, \"9\": {\"O\": 1}}" n_minim_iter=7 energy=-11286.97654653181 stress="-0.07945224462539577 -8.902184707441452e-05 -6.146833438571348e-05 -8.902184707441452e-05 -0.07933538351979408 -3.318080088227102e-05 -6.146833438571348e-05 -3.318080088227102e-05 -0.07931024012187114" free_energy=-11286.97654653181 pbc="T T T"
In       9.67905242       5.22478333       3.60763947        0       0.00249218       0.00134529       0.00092890
In       7.12991479       3.84875072       2.65750829        1      -0.00249218      -0.00134529      -0.00092890
In       4.07606336       2.20027199       1.51925689        2       0.00249218       0.00134529       0.00092890
In       1.52692572       0.82423937       0.56912570        3      -0.00249218      -0.00134529      -0.00092890
O        5.52416446       2.10286661       0.05112603        4      -0.00000000      -0.00030892       0.00044740
O        6.41674146       4.77377583       0.95527293        5       0.00025826      -0.00047843      -0.00000000
O        7.51190661       1.86585780       2.22842697        6      -0.00025826       0.00016951       0.00044740
O        3.69407153       4.18316490       1.94833820        7       0.00025826      -0.00016951      -0.00044740
O        5.68181368       3.94615610       4.12563915        8       0.00000000       0.00030892      -0.00044740
O        4.78923668       1.27524687       3.22149224        9      -0.00025826       0.00047843      -0.00000000
