10
Lattice="5.997646181692309 -0.024345816805333497 -0.01681044439734217 3.2706862591974173 5.02742119117361 -0.01681044439733436 3.2706862591974124 1.7655268609575652 4.707245620077594" Properties=species:S:1:pos:R:3:spacegroup_kinds:I:1:forces:R:3 spacegroup="P 1" unit_cell=conventional occupancy="_JSON {\"0\": {\"In\": 1}, \"1\": {\"In\": 1}, \"2\": {\"In\": 1}, \"3\": {\"In\": 1}, \"4\": {\"O\": 1}, \"5\": {\"O\": 1}, \"6\": {\"O\": 1}, \"7\": {\"O\": 1}, \"8\": {\"O\": 1}, \"9\": {\"O\": 1}}" n_minim_iter=6 energy=-11287.618462377268 stress="0.019449298948940066 -5.629773313537955e-06 -3.887280650591347e-06 -5.629773313537955e-06 0.019456689286054374 -2.098365589814175e-06 -3.887280650591347e-06 -2.098365589814175e-06 0.019458279364464592" free_energy=-11287.618462377268 pbc="T T T"
In      10.74188253       5.79850241       4.00378443        0      -0.00132824      -0.00071699      -0.00049507
In       8.06664553       4.35440095       3.00665267        1       0.00132824       0.00071699       0.00049507
In       4.47237318       2.41420129       1.66697207        2      -0.00132824      -0.00071699      -0.00049507
In       1.79713618       0.97009984       0.66984030        3       0.00132824       0.00071699       0.00049507
O        6.13357777       2.33917475       0.20531521        4      -0.00000000       0.00327858      -0.00474822
O        7.21782884       5.21460120       1.15159574        5      -0.00274091       0.00507760       0.00000000
O        8.32001296       2.20102524       2.55893802        6       0.00274091      -0.00179903      -0.00474822
O        4.21900575       4.56757701       2.11468672        7      -0.00274091       0.00179903       0.00474822
O        6.40544094       4.42942749       4.46830953        8       0.00000000      -0.00327858       0.00474822
O        5.32118987       1.55400105       3.52202900        9       0.00274091      -0.00507760       0.00000000
