10
Lattice="5.95997402547367 -0.014628323493737008 -0.010100651815630085 3.258138596956738 4.9905948798905575 -0.010100651815624202 3.2581385969567367 1.7587535929115012 4.670430930629188" Properties=species:S:1:pos:R:3:spacegroup_kinds:I:1:forces:R:3 spacegroup="P 1" unit_cell=conventional occupancy="_JSON {\"0\": {\"In\": 1}, \"1\": {\"In\": 1}, \"2\": {\"In\": 1}, \"3\": {\"In\": 1}, \"4\": {\"O\": 1}, \"5\": {\"O\": 1}, \"6\": {\"O\": 1}, \"7\": {\"O\": 1}, \"8\": {\"O\": 1}, \"9\": {\"O\": 1}}" n_minim_iter=3 energy=-11287.66746619984 stress="0.010137518901856114 -8.059825710062845e-06 -5.56519618527809e-06 -8.059825710062845e-06 0.010148099227263025 -3.004111874961903e-06 -5.56519618527809e-06 -3.004111874961903e-06 0.010150375651585579" free_energy=-11287.66746619984 pbc="T T T"
In      10.69496374       5.77317550       3.98629655        0       0.00197245       0.00106474       0.00073519
In       8.01941310       4.32890474       2.98904789        1      -0.00197245      -0.00106474      -0.00073519
In       4.45683813       2.40581542       1.66118174        2       0.00197245       0.00106474       0.00073519
In       1.78128749       0.96154466       0.66393308        3      -0.00197245      -0.00106474      -0.00073519
O        6.09904982       2.33271718       0.20694278        4      -0.00000000       0.00050828      -0.00073612
O        7.17940617       5.18816891       1.15245676        5      -0.00042493       0.00078719       0.00000000
O        8.27683208       2.19558838       2.54215824        6       0.00042493      -0.00027891      -0.00073612
O        4.19941915       4.53913178       2.10807139        7      -0.00042493       0.00027891       0.00073612
O        6.37720141       4.40200298       4.44328685        8      -0.00000000      -0.00050828       0.00073612
O        5.29684506       1.54655125       3.49777287        9       0.00042493      -0.00078719      -0.00000000
