10
Lattice="5.146882076920694 -0.27138760431224607 -0.18738932724657498 2.5973252432629947 4.451735383669008 -0.1873893272465723 2.5973252432629996 1.4020444396734177 4.229342038113896" Properties=species:S:1:pos:R:3:spacegroup_kinds:I:1:forces:R:3 spacegroup="P 1" unit_cell=conventional occupancy="_JSON {\"0\": {\"In\": 1}, \"1\": {\"In\": 1}, \"2\": {\"In\": 1}, \"3\": {\"In\": 1}, \"4\": {\"O\": 1}, \"5\": {\"O\": 1}, \"6\": {\"O\": 1}, \"7\": {\"O\": 1}, \"8\": {\"O\": 1}, \"9\": {\"O\": 1}}" n_minim_iter=1 energy=-11284.714824084556 stress="-0.3757349047146914 0.008034436257276692 0.005547665336530026 0.008034436257276692 -0.38628190089148917 0.0029946474189029354 0.005547665336530026 0.0029946474189029354 -0.38855115321102934" free_energy=-11284.714824084556 pbc="T T T"
In       9.00866233       4.86290462       3.35776731        0      -0.21114750      -0.11397809      -0.07870027
In       6.50363650       3.51068370       2.42407776        1       0.21114750       0.11397809       0.07870027
In       3.83789605       2.07170851       1.43048562        2      -0.21114750      -0.11397809      -0.07870027
In       1.33287022       0.71948759       0.49679607        3       0.21114750       0.11397809       0.07870027
O        5.15882417       1.92337413      -0.09092765        4       0.00000000      -0.06662152       0.09648498
O        5.90282267       4.51330223       0.77625152        5       0.05569592      -0.10317821      -0.00000000
O        7.01215092       1.59686606       2.02374337        6      -0.05569592       0.03655668       0.09648498
O        3.32938163       3.98552616       1.83082001        7       0.05569592      -0.03655668      -0.09648498
O        5.18270838       3.65901809       3.94549103        8       0.00000000       0.06662152      -0.09648498
O        4.43870988       1.06908998       3.07831186        9      -0.05569592       0.10317821       0.00000000
10
Lattice="5.128425117745487 -0.2922638721585905 -0.20180409684174283 2.5697448425562124 4.447760538006477 -0.2018040968417402 2.5697448425562164 1.3871564515189845 4.230732286018465" Properties=species:S:1:pos:R:3:spacegroup_kinds:I:1:forces:R:3 spacegroup="P 1" unit_cell=conventional occupancy="_JSON {\"0\": {\"In\": 1}, \"1\": {\"In\": 1}, \"2\": {\"In\": 1}, \"3\": {\"In\": 1}, \"4\": {\"O\": 1}, \"5\": {\"O\": 1}, \"6\": {\"O\": 1}, \"7\": {\"O\": 1}, \"8\": {\"O\": 1}, \"9\": {\"O\": 1}}" n_minim_iter=2 energy=-11284.723614193901 stress="-0.37819941258408574 -0.000473067705420956 -0.0003266466031533115 -0.000473067705420956 -0.37757840531961406 -0.00017632487708868329 -0.0003266466031533115 -0.00017632487708868329 -0.37744479171511985" free_energy=-11284.723614193901 pbc="T T T"
In       8.94350681       4.82773347       3.33348212        0      -0.07228932      -0.03902200      -0.02694414
In       6.45836538       3.48624621       2.40720402        1       0.07228932       0.03902200       0.02694415
In       3.80954941       2.05640691       1.41992007        2      -0.07228932      -0.03902200      -0.02694415
In       1.32440798       0.71491965       0.49364197        3       0.07228932       0.03902200       0.02694415
O        5.13119125       1.90504819      -0.10795940        4       0.00000000      -0.12380772       0.17930520
O        5.85968827       4.49411210       0.75497692        5       0.10350387      -0.19174372      -0.00000000
O        6.97243908       1.56792593       2.00740674        6      -0.10350387       0.06793600       0.17930520
O        3.29547571       3.97472718       1.81971734        7       0.10350387      -0.06793600      -0.17930520
O        5.13672354       3.63760492       3.93508349        8      -0.00000000       0.12380772      -0.17930520
O        4.40822652       1.04854102       3.07214716        9      -0.10350387       0.19174372       0.00000000
10
Lattice="5.1244263175158276 -0.29680746162734223 -0.20494138152352367 2.5637521500648033 4.446910687878108 -0.20494138152352095 2.5637521500648073 1.3839215770233673 4.231049125745822" Properties=species:S:1:pos:R:3:spacegroup_kinds:I:1:forces:R:3 spacegroup="P 1" unit_cell=conventional occupancy="_JSON {\"0\": {\"In\": 1}, \"1\": {\"In\": 1}, \"2\": {\"In\": 1}, \"3\": {\"In\": 1}, \"4\": {\"O\": 1}, \"5\": {\"O\": 1}, \"6\": {\"O\": 1}, \"7\": {\"O\": 1}, \"8\": {\"O\": 1}, \"9\": {\"O\": 1}}" n_minim_iter=3 energy=-11284.730581057067 stress="-0.37136073677501413 -0.0004993717847713914 -0.000344809200052609 -0.0004993717847713914 -0.37070519951901626 -0.0001861291045209576 -0.000344809200052609 -0.0001861291045209576 -0.3705641565673592" free_energy=-11284.730581057067 pbc="T T T"
In       8.92582802       4.81819040       3.32689277        0      -0.11769582      -0.06353258      -0.04386835
In       6.45206789       3.48284680       2.40485678        1       0.11769582       0.06353258       0.04386835
In       3.79986271       2.05117800       1.41630958        2      -0.11769582      -0.06353258      -0.04386835
In       1.32610258       0.71583440       0.49427359        3       0.11769582       0.06353258       0.04386835
O        5.12519581       1.89561832      -0.10377475        4       0.00000000       0.02305558      -0.03339037
O        5.85487734       4.48151314       0.75035021        5      -0.01927458       0.03570668      -0.00000000
O        6.95926643       1.56462378       2.01174981        6       0.01927458      -0.01265110      -0.03339037
O        3.29266418       3.96940102       1.80941654        7      -0.01927458       0.01265110       0.03339037
O        5.12673480       3.63840648       3.92494111        8      -0.00000000      -0.02305558       0.03339037
O        4.39705327       1.05251166       3.07081615        9       0.01927458      -0.03570668       0.00000000
10
Lattice="5.132221769881767 -0.2879568230977214 -0.19883013998774615 2.575428863012411 4.448571186210174 -0.19883013998774343 2.575428863012414 1.390224703866768 4.230436655489068" Properties=species:S:1:pos:R:3:spacegroup_kinds:I:1:forces:R:3 spacegroup="P 1" unit_cell=conventional occupancy="_JSON {\"0\": {\"In\": 1}, \"1\": {\"In\": 1}, \"2\": {\"In\": 1}, \"3\": {\"In\": 1}, \"4\": {\"O\": 1}, \"5\": {\"O\": 1}, \"6\": {\"O\": 1}, \"7\": {\"O\": 1}, \"8\": {\"O\": 1}, \"9\": {\"O\": 1}}" n_minim_iter=4 energy=-11284.733287180215 stress="-0.3671801533660283 0.000271329732762383 0.000187349369427577 0.000271329732762383 -0.3675363343823704 0.00010113178572842143 0.000187349369427577 0.00010113178572842143 -0.3676129689578935" free_energy=-11284.733287180215 pbc="T T T"
In       8.94495162       4.82851338       3.33402064        0      -0.00281904      -0.00152172      -0.00105073
In       6.47966761       3.49774522       2.41514392        1       0.00281904       0.00152172       0.00105073
In       3.80341187       2.05309385       1.41763245        2      -0.00281904      -0.00152172      -0.00105073
In       1.33812786       0.72232569       0.49875573        3       0.00281904       0.00152172       0.00105073
O        5.13688075       1.90255023      -0.09535897        4       0.00000000       0.00200939      -0.00291011
O        5.87381932       4.48834413       0.75936395        5      -0.00167986       0.00311199      -0.00000000
O        6.97537105       1.57733540       2.01985936        6       0.00167986      -0.00110260      -0.00291011
O        3.30770844       3.97350367       1.81291701        7      -0.00167986       0.00110260       0.00291011
O        5.14619873       3.64828884       3.92813534        8      -0.00000000      -0.00200939       0.00291011
O        4.40926016       1.06249494       3.07341242        9       0.00167986      -0.00311199      -0.00000000
