10
Lattice="5.691529847195081 0.01710828590205793 0.011813031010210917 3.1373693756309633 4.748759637611905 0.011813031010207142 3.1373693756309655 1.693561982549008 4.436519520387377" Properties=species:S:1:pos:R:3:spacegroup_kinds:I:1:forces:R:3 spacegroup="P 1" unit_cell=conventional occupancy="_JSON {\"0\": {\"In\": 1}, \"1\": {\"In\": 1}, \"2\": {\"In\": 1}, \"3\": {\"In\": 1}, \"4\": {\"O\": 1}, \"5\": {\"O\": 1}, \"6\": {\"O\": 1}, \"7\": {\"O\": 1}, \"8\": {\"O\": 1}, \"9\": {\"O\": 1}}" n_minim_iter=1 energy=-11287.231442487173 stress="-0.0825398715443158 0.002357063738770172 0.0016275193922285212 0.002357063738770172 -0.08563404535324548 0.0008785401531008526 0.0016275193922285212 0.0008785401531008526 -0.08629977623924472" free_energy=-11287.231442487173 pbc="T T T"
In      10.26144902       5.53916287       3.82471412        0       0.07867727       0.04247024       0.02932511
In       7.68795389       4.14998200       2.86550426        1      -0.07867727      -0.04247024      -0.02932511
In       4.27831472       2.30944792       1.59464133        2       0.07867727       0.04247024       0.02932511
In       1.70481959       0.92026705       0.63543146        3      -0.07867727      -0.04247024      -0.02932511
O        5.83733208       2.25359258       0.20827994        4       0.00000000       0.02321289      -0.03361820
O        6.87918234       4.97376646       1.12684943        5      -0.01940609       0.03595031       0.00000000
O        7.93285119       2.12439856       2.42653970        6       0.01940609      -0.01273742      -0.03361820
O        4.03341742       4.33503136       2.03360589        7      -0.01940609       0.01273742       0.03361820
O        6.12893653       4.20583733       4.25186565        8       0.00000000      -0.02321289       0.03361820
O        5.08708627       1.48566346       3.33329616        9       0.01940609      -0.03595031       0.00000000
10
Lattice="5.6693510981496695 -0.005736240195051741 -0.003960793249200475 3.106101273806281 4.742753383363025 -0.003960793249204243 3.1061012738062828 1.6766833615845556 4.436491659889611" Properties=species:S:1:pos:R:3:spacegroup_kinds:I:1:forces:R:3 spacegroup="P 1" unit_cell=conventional occupancy="_JSON {\"0\": {\"In\": 1}, \"1\": {\"In\": 1}, \"2\": {\"In\": 1}, \"3\": {\"In\": 1}, \"4\": {\"O\": 1}, \"5\": {\"O\": 1}, \"6\": {\"O\": 1}, \"7\": {\"O\": 1}, \"8\": {\"O\": 1}, \"9\": {\"O\": 1}}" n_minim_iter=2 energy=-11287.233795303675 stress="-0.08377091737906305 -0.0010426356193176058 -0.000719925243274173 -0.0010426356193176058 -0.08240222472446883 -0.0003886179404440546 -0.000719925243274173 -0.0003886179404440546 -0.08210774192496349" free_energy=-11287.233795303675 pbc="T T T"
In      10.18991930       5.50055090       3.79805310        0       0.15337221       0.08279081       0.05716589
In       7.63241117       4.11999987       2.84480201        1      -0.15337221      -0.08279081      -0.05716589
In       4.24914248       2.29370065       1.58376807        2       0.15337221       0.08279081       0.05716589
In       1.69163435       0.91314961       0.63051698        3      -0.15337221      -0.08279081      -0.05716589
O        5.80506397       2.23331335       0.18876934        4       0.00000000       0.02179978      -0.03157165
O        6.82912714       4.95189727       1.10318173        5      -0.01822473       0.03376180      -0.00000000
O        7.88710206       2.09169146       2.40701517        6       0.01822473      -0.01196202      -0.03157165
O        3.99445160       4.32200905       2.02155491        7      -0.01822473       0.01196202       0.03157165
O        6.07648969       4.18038716       4.23980074        8      -0.00000000      -0.02179978       0.03157165
O        5.05242651       1.46180324       3.32538835        9       0.01822473      -0.03376180       0.00000000
10
Lattice="5.673450059615884 -0.0015030894943596324 -0.0010378621744880027 3.11188939859848 4.743857313318343 -0.0010378621744917497 3.1118893985984806 1.6798078097845204 4.43648836451407" Properties=species:S:1:pos:R:3:spacegroup_kinds:I:1:forces:R:3 spacegroup="P 1" unit_cell=conventional occupancy="_JSON {\"0\": {\"In\": 1}, \"1\": {\"In\": 1}, \"2\": {\"In\": 1}, \"3\": {\"In\": 1}, \"4\": {\"O\": 1}, \"5\": {\"O\": 1}, \"6\": {\"O\": 1}, \"7\": {\"O\": 1}, \"8\": {\"O\": 1}, \"9\": {\"O\": 1}}" n_minim_iter=3 energy=-11287.238411878683 stress="-0.07963701319863897 0.001763972432715193 0.0012179981784339624 0.001763972432715193 -0.08195262190199898 0.0006574792957714916 0.0012179981784339624 0.0006574792957714916 -0.08245083962388368" free_energy=-11287.238411878683 pbc="T T T"
In      10.21270800       5.51285231       3.80654705        0      -0.01200103      -0.00647819      -0.00447310
In       7.63313530       4.12039075       2.84507191        1       0.01200103       0.00647819       0.00447310
In       4.26409357       2.30177129       1.58934073        2      -0.01200103      -0.00647819      -0.00447310
In       1.68452087       0.90930973       0.62786559        3       0.01200103       0.00647819       0.00447310
O        5.81103225       2.23872224       0.18998695        4      -0.00000000       0.04600070      -0.06662076
O        6.83700557       4.95850394       1.10756530        5      -0.03845682       0.07124229      -0.00000000
O        7.89694833       2.09683984       2.40823113        6       0.03845682      -0.02524159      -0.06662076
O        4.00028054       4.32532221       2.02618152        7      -0.03845682       0.02524159       0.06662076
O        6.08619662       4.18343980       4.24442570        8      -0.00000000      -0.04600070       0.06662076
O        5.06022330       1.46365811       3.32684734        9       0.03845682      -0.07124229       0.00000000
10
Lattice="5.646117878432785 -0.029827297965360766 -0.02059533011272785 3.0732124541949055 4.7365495855362525 -0.02059533011273147 3.0732124541949055 1.6589298719963115 4.436584026440202" Properties=species:S:1:pos:R:3:spacegroup_kinds:I:1:forces:R:3 spacegroup="P 1" unit_cell=conventional occupancy="_JSON {\"0\": {\"In\": 1}, \"1\": {\"In\": 1}, \"2\": {\"In\": 1}, \"3\": {\"In\": 1}, \"4\": {\"O\": 1}, \"5\": {\"O\": 1}, \"6\": {\"O\": 1}, \"7\": {\"O\": 1}, \"8\": {\"O\": 1}, \"9\": {\"O\": 1}}" n_minim_iter=4 energy=-11287.241666709448 stress="-0.07702206204163332 -0.0007885908186839248 -0.0005445108803727607 -0.0007885908186839248 -0.07598686005543333 -0.0002939287062784593 -0.0005445108803727607 -0.0002939287062784593 -0.07576412986093677" free_energy=-11287.241666709448 pbc="T T T"
In      10.13255096       5.46958329       3.77667040        0      -0.01375351      -0.00742419      -0.00512630
In       7.55626323       4.07889496       2.81641965        1       0.01375351       0.00742419       0.00512630
In       4.23627957       2.28675721       1.57897372        2      -0.01375351      -0.00742419      -0.00512630
In       1.65999184       0.89606888       0.61872297        3       0.01375351       0.00742419       0.00512630
O        5.77119464       2.21645256       0.16173506        4      -0.00000000       0.03637538      -0.05268084
O        6.77279683       4.93588363       1.07825301        5      -0.03041000       0.05633534       0.00000000
O        7.84280490       2.05480805       2.38002707        6       0.03041000      -0.01995996      -0.05268084
O        3.94973789       4.31084412       2.01536630        7      -0.03041000       0.01995996       0.05268084
O        6.02134816       4.14919961       4.23365831        8      -0.00000000      -0.03637538       0.05268084
O        5.01974596       1.42976854       3.31714036        9       0.03041000      -0.05633534      -0.00000000
10
Lattice="5.654265313859873 -0.02136006748117099 -0.014748826444681154 3.0847617769000326 4.738714727832676 -0.014748826444684697 3.0847617769000357 1.6651642331810423 4.436537261896303" Properties=species:S:1:pos:R:3:spacegroup_kinds:I:1:forces:R:3 spacegroup="P 1" unit_cell=conventional occupancy="_JSON {\"0\": {\"In\": 1}, \"1\": {\"In\": 1}, \"2\": {\"In\": 1}, \"3\": {\"In\": 1}, \"4\": {\"O\": 1}, \"5\": {\"O\": 1}, \"6\": {\"O\": 1}, \"7\": {\"O\": 1}, \"8\": {\"O\": 1}, \"9\": {\"O\": 1}}" n_minim_iter=5 energy=-11287.242472156644 stress="-0.07646008280408857 0.0005420868211339706 0.0003743033318871316 0.0005420868211339706 -0.07717169311208405 0.00020205012997581335 0.0003743033318871316 0.00020205012997581335 -0.077324800527509" free_energy=-11287.242472156644 pbc="T T T"
In      10.15910533       5.48391742       3.78656792        0      -0.02449694      -0.01322353      -0.00913066
In       7.57657798       4.08986093       2.82399150        1       0.02449694       0.01322353       0.00913066
In       4.24721090       2.29265798       1.58304811        2      -0.02449694      -0.01322353      -0.00913066
In       1.66468354       0.89860148       0.62047169        3       0.02449694       0.01322353       0.00913066
O        5.78307988       2.22543077       0.16680532        4       0.00000000       0.01592074      -0.02305730
O        6.79001540       4.94623409       1.08701108        5      -0.01330982       0.02465680      -0.00000000
O        7.86090614       2.06608586       2.38507395        6       0.01330982      -0.00873606      -0.02305730
O        3.96288274       4.31643305       2.02196566        7      -0.01330982       0.00873606       0.02305730
O        6.04070900       4.15708814       4.24023429        8       0.00000000      -0.01592074       0.02305730
O        5.03377348       1.43628482       3.32002854        9       0.01330982      -0.02465680      -0.00000000
10
Lattice="5.651953596267538 -0.02376042572227578 -0.016406240080397032 3.0814865754989986 4.738099249404931 -0.016406240080400564 3.0814865754990017 1.663396269032139 4.436548941924912" Properties=species:S:1:pos:R:3:spacegroup_kinds:I:1:forces:R:3 spacegroup="P 1" unit_cell=conventional occupancy="_JSON {\"0\": {\"In\": 1}, \"1\": {\"In\": 1}, \"2\": {\"In\": 1}, \"3\": {\"In\": 1}, \"4\": {\"O\": 1}, \"5\": {\"O\": 1}, \"6\": {\"O\": 1}, \"7\": {\"O\": 1}, \"8\": {\"O\": 1}, \"9\": {\"O\": 1}}" n_minim_iter=6 energy=-11287.242662800145 stress="-0.07629222861627119 0.0001355861823321676 9.362035422527014e-05 0.0001355861823321676 -0.0764702158323426 5.053656632745041e-05 9.362035422527014e-05 5.053656632745041e-05 -0.0765085108977872" free_energy=-11287.242662800145 pbc="T T T"
In      10.15182734       5.47998874       3.78385522        0      -0.00657333      -0.00354830      -0.00245005
In       7.57056279       4.08661391       2.82174948        1       0.00657333       0.00354830       0.00245005
In       4.24436397       2.29112119       1.58198699        2      -0.00657333      -0.00354830      -0.00245005
In       1.66309941       0.89774636       0.61988125        3       0.00657333       0.00354830       0.00245005
O        5.77970849       2.22403272       0.16370535        4      -0.00000000       0.00397927      -0.00576301
O        6.78417200       4.94507597       1.08452788        5      -0.00332669       0.00616279       0.00000000
O        7.85673155       2.06225807       2.38197982        6       0.00332669      -0.00218351      -0.00576301
O        3.95819521       4.31547703       2.02175665        7      -0.00332669       0.00218351       0.00576301
O        6.03521827       4.15370238       4.24003112        8       0.00000000      -0.00397927       0.00576301
O        5.03075475       1.43265913       3.31920859        9       0.00332669      -0.00616279      -0.00000000
