10
Lattice="5.339448580590692 -0.2444529769851058 -0.16879134556181138 2.725508173331136 4.5979423223692075 -0.16879134556180497 2.7255081733311375 1.4712379936302098 4.359475069807085" Properties=species:S:1:pos:R:3:spacegroup_kinds:I:1:forces:R:3 spacegroup="P 1" unit_cell=conventional occupancy="_JSON {\"0\": {\"In\": 1}, \"1\": {\"In\": 1}, \"2\": {\"In\": 1}, \"3\": {\"In\": 1}, \"4\": {\"O\": 1}, \"5\": {\"O\": 1}, \"6\": {\"O\": 1}, \"7\": {\"O\": 1}, \"8\": {\"O\": 1}, \"9\": {\"O\": 1}}" n_minim_iter=7 energy=-11286.724083473218 stress="-0.08211183935910597 -2.0966389205361396e-05 -1.4476996586134744e-05 -2.0966389205361396e-05 -0.08208431627857646 -7.814729879627e-06 -1.4476996586134744e-05 -7.814729879627e-06 -0.08207839451430995" free_energy=-11286.724083473218 pbc="T T T"
In       9.38258393       5.06474870       3.49713780        0       0.00083374       0.00045005       0.00031076
In       6.80311347       3.67234232       2.53570077        1      -0.00083374      -0.00045005      -0.00031076
In       3.98735147       2.15238503       1.48619161        2       0.00083374       0.00045005       0.00031076
In       1.40788100       0.75997865       0.52475458        3      -0.00083374      -0.00045005      -0.00031076
O        5.36734053       2.01342872      -0.06297355        4       0.00000000      -0.00034774       0.00050362
O        6.16205149       4.68524176       0.83668175        5       0.00029071      -0.00053855       0.00000000
O        7.29813774       1.69673247       2.11676399        6      -0.00029071       0.00019081       0.00050362
O        3.49232720       4.12799488       1.90512840        7       0.00029071      -0.00019081      -0.00050362
O        5.42312441       3.81129863       4.08486593        8       0.00000000       0.00034774      -0.00050362
O        4.62841345       1.13948559       3.18521063        9      -0.00029071       0.00053855       0.00000000
