10
Lattice="6.3779461382218825 0.09059783598180084 0.06255653266716972 3.5754586201023466 5.28228175752484 0.06255653266717047 3.5754586201023497 1.9300439521771886 4.91745302248261" Properties=species:S:1:pos:R:3:spacegroup_kinds:I:1:forces:R:3 spacegroup="P 1" unit_cell=conventional occupancy="_JSON {\"0\": {\"In\": 1}, \"1\": {\"In\": 1}, \"2\": {\"In\": 1}, \"3\": {\"In\": 1}, \"4\": {\"O\": 1}, \"5\": {\"O\": 1}, \"6\": {\"O\": 1}, \"7\": {\"O\": 1}, \"8\": {\"O\": 1}, \"9\": {\"O\": 1}}" n_minim_iter=5 energy=-11286.379700995236 stress="0.08982316754252682 2.1765796413696258e-05 1.5028976724669862e-05 2.1765796413696258e-05 0.08979459506210427 8.112689171828146e-06 1.5028976724669862e-05 8.112689171828146e-06 0.08978844751448367" free_energy=-11286.379700995236 pbc="T T T"
In      11.48944089       6.20203679       4.28241925        0      -0.00560772      -0.00302706      -0.00209014
In       8.80385419       4.75234854       3.28142988        1       0.00560772       0.00302706       0.00209014
In       4.72500920       2.55057502       1.76113621        2      -0.00560772      -0.00302706      -0.00209014
In       2.03942250       1.10088677       0.76014684        3       0.00560772       0.00302706       0.00209014
O        6.57118892       2.56078403       0.29297952        4       0.00000000       0.00033855      -0.00049031
O        7.78228027       5.58040811       1.32319806        5      -0.00028303       0.00052432      -0.00000000
O        8.93555619       2.45756858       2.75170604        6       0.00028303      -0.00018577      -0.00049031
O        4.59330720       4.84535498       2.29086006        7      -0.00028303       0.00018577       0.00049031
O        6.95767447       4.74213953       4.74958657        8      -0.00000000      -0.00033855       0.00049031
O        5.74658312       1.72251545       3.71936804        9       0.00028303      -0.00052432       0.00000000
