10
Lattice="5.214308137518758 -0.2600351568303227 -0.17955062178457634 2.643814098384513 4.501874570550068 -0.17955062178457265 2.643814098384516 1.4271392717507476 4.273451365556341" Properties=species:S:1:pos:R:3:spacegroup_kinds:I:1:forces:R:3 spacegroup="P 1" unit_cell=conventional occupancy="_JSON {\"0\": {\"In\": 1}, \"1\": {\"In\": 1}, \"2\": {\"In\": 1}, \"3\": {\"In\": 1}, \"4\": {\"O\": 1}, \"5\": {\"O\": 1}, \"6\": {\"O\": 1}, \"7\": {\"O\": 1}, \"8\": {\"O\": 1}, \"9\": {\"O\": 1}}" n_minim_iter=5 energy=-11286.368756131145 stress="-0.1404020661896253 8.258637194028091e-05 5.7024730407384763e-05 8.258637194028091e-05 -0.14051047928997307 3.0782132866255776e-05 5.7024730407384763e-05 3.0782132866255776e-05 -0.14053380504991345" free_energy=-11286.368756131145 pbc="T T T"
In       9.14772804       4.93797274       3.40960078        0      -0.00232048      -0.00125260      -0.00086490
In       6.60517645       3.56549529       2.46192439        1       0.00232048       0.00125260       0.00086490
In       3.89675987       2.10348339       1.45242572        2      -0.00232048      -0.00125260      -0.00086490
In       1.35420828       0.73100595       0.50474933        3       0.00232048       0.00125260       0.00086490
O        5.23263815       1.95785453      -0.08242759        4       0.00000000       0.00145504      -0.00210726
O        5.99389731       4.57677974       0.79903691        5      -0.00121642       0.00225345       0.00000000
O        7.11519308       1.63280880       2.05429809        6       0.00121642      -0.00079841      -0.00210726
O        3.38674324       4.03616988       1.86005202        7      -0.00121642       0.00079841       0.00210726
O        5.26929818       3.71112415       3.99677771        8       0.00000000      -0.00145504       0.00210726
O        4.50803901       1.09219894       3.11531321        9       0.00121642      -0.00225345      -0.00000000
