10
Lattice="5.984256607165283 -0.038276675211330886 -0.026429506370645117 3.2516928400673177 5.0238716064526825 -0.026429506370640475 3.251692840067314 1.7552741528106661 4.707334392775102" Properties=species:S:1:pos:R:3:spacegroup_kinds:I:1:forces:R:3 spacegroup="P 1" unit_cell=conventional occupancy="_JSON {\"0\": {\"In\": 1}, \"1\": {\"In\": 1}, \"2\": {\"In\": 1}, \"3\": {\"In\": 1}, \"4\": {\"O\": 1}, \"5\": {\"O\": 1}, \"6\": {\"O\": 1}, \"7\": {\"O\": 1}, \"8\": {\"O\": 1}, \"9\": {\"O\": 1}}" n_minim_iter=6 energy=-11287.534569160087 stress="0.030807544092036974 7.454624580732379e-07 5.147313212186751e-07 7.454624580732379e-07 0.030806565505894622 2.778544189057118e-07 5.147313212186751e-07 2.778544189057118e-07 0.030806354956437375" free_energy=-11287.534569160087 pbc="T T T"
In      10.69028840       5.77065174       3.98455393        0      -0.00005942      -0.00003208      -0.00002215
In       8.04117504       4.34065190       2.99715914        1       0.00005942       0.00003208       0.00002215
In       4.44646726       2.40021719       1.65731624        2      -0.00005942      -0.00003208      -0.00002215
In       1.79735389       0.97021736       0.66992145        3       0.00005942       0.00003208       0.00002215
O        6.11403888       2.32399125       0.19757903        4       0.00000000       0.00177392      -0.00256908
O        7.18986733       5.19693792       1.13718934        5      -0.00148300       0.00274730       0.00000000
O        8.28990328       2.18270516       2.55124623        6       0.00148300      -0.00097339      -0.00256908
O        4.19773902       4.55816394       2.10322915        7      -0.00148300       0.00097339       0.00256908
O        6.37360342       4.41687784       4.45689635        8       0.00000000      -0.00177392       0.00256908
O        5.29777497       1.54393118       3.51728604        9       0.00148300      -0.00274730       0.00000000
