10
Lattice="5.832775411747628 0.004556223607978804 0.0031460083773819925 3.2043803158697024 4.873729224559777 0.0031460083773875436 3.2043803158697033 1.7297347015423965 4.55645304090548" Properties=species:S:1:pos:R:3:spacegroup_kinds:I:1:forces:R:3 spacegroup="P 1" unit_cell=conventional occupancy="_JSON {\"0\": {\"In\": 1}, \"1\": {\"In\": 1}, \"2\": {\"In\": 1}, \"3\": {\"In\": 1}, \"4\": {\"O\": 1}, \"5\": {\"O\": 1}, \"6\": {\"O\": 1}, \"7\": {\"O\": 1}, \"8\": {\"O\": 1}, \"9\": {\"O\": 1}}" n_minim_iter=1 energy=-11287.662193615968 stress="-0.015581721461465569 -0.002036275274882051 -0.0014060194638323067 -0.002036275274882051 -0.012908654325070948 -0.0007589737868717357 -0.0014060194638323067 -0.0007589737868717357 -0.012333527179389186" free_energy=-11287.662193615968 pbc="T T T"
In      10.49289358       5.66409738       3.91097965        0      -0.00030666      -0.00016554      -0.00011430
In       7.86941050       4.24793286       2.93313794        1       0.00030666       0.00016554       0.00011430
In       4.37212556       2.36008731       1.62960712        2      -0.00030666      -0.00016554      -0.00011430
In       1.74864247       0.94392278       0.65176541        3       0.00030666       0.00016554       0.00011430
O        5.97677172       2.29450681       0.21505191        4      -0.00000000       0.03244352      -0.04698650
O        7.04373171       5.08267612       1.14383228        5      -0.02712295       0.05024599      -0.00000000
O        8.11419205       2.16784580       2.49327843        6       0.02712295      -0.01780247      -0.04698651
O        4.12734401       4.44017436       2.06946663        7      -0.02712295       0.01780247       0.04698650
O        6.26476433       4.31351335       4.34769315        8      -0.00000000      -0.03244352       0.04698651
O        5.19780434       1.52534404       3.41891279        9       0.02712295      -0.05024599       0.00000000
10
Lattice="5.854182105764991 0.02654681837995985 0.018330205056211246 3.2345108833891643 4.879558607728993 0.018330205056216804 3.234510883389165 1.7459992778654574 4.556524412792369" Properties=species:S:1:pos:R:3:spacegroup_kinds:I:1:forces:R:3 spacegroup="P 1" unit_cell=conventional occupancy="_JSON {\"0\": {\"In\": 1}, \"1\": {\"In\": 1}, \"2\": {\"In\": 1}, \"3\": {\"In\": 1}, \"4\": {\"O\": 1}, \"5\": {\"O\": 1}, \"6\": {\"O\": 1}, \"7\": {\"O\": 1}, \"8\": {\"O\": 1}, \"9\": {\"O\": 1}}" n_minim_iter=2 energy=-11287.66391591108 stress="-0.011630971558426573 0.0007861223159552493 0.0005428064110577683 0.0007861223159552493 -0.012662933077467095 0.0002930086293058287 0.0005428064110577683 0.0002930086293058287 -0.012884966067079217" free_energy=-11287.66391591108 pbc="T T T"
In      10.56289116       5.70188230       3.93706960        0      -0.06989380      -0.03772889      -0.02605127
In       7.92191466       4.27627477       2.95270764        1       0.06989380       0.03772889       0.02605127
In       4.40128922       2.37582994       1.64047719        2      -0.06989380      -0.03772889      -0.02605127
In       1.76031273       0.95022242       0.65611523        3       0.06989380       0.03772889       0.02605127
O        6.00789203       2.31486023       0.23266243        4      -0.00000000       0.02400455      -0.03476472
O        7.09130759       5.10503170       1.16662641        5      -0.02006792       0.03717637       0.00000000
O        8.15898734       2.19890706       2.51092463        6       0.02006792      -0.01317182      -0.03476472
O        4.16421654       4.45319766       2.08226020        7      -0.02006792       0.01317182       0.03476472
O        6.31531186       4.33724449       4.36052240        8      -0.00000000      -0.02400455       0.03476472
O        5.23189629       1.54707302       3.42655841        9       0.02006792      -0.03717637      -0.00000000
10
Lattice="5.849752001759178 0.02200671137435031 0.015195324966294693 3.2282844364501444 4.87834627458986 0.015195324966300265 3.2282844364501457 1.7426382219744334 4.556501432022097" Properties=species:S:1:pos:R:3:spacegroup_kinds:I:1:forces:R:3 spacegroup="P 1" unit_cell=conventional occupancy="_JSON {\"0\": {\"In\": 1}, \"1\": {\"In\": 1}, \"2\": {\"In\": 1}, \"3\": {\"In\": 1}, \"4\": {\"O\": 1}, \"5\": {\"O\": 1}, \"6\": {\"O\": 1}, \"7\": {\"O\": 1}, \"8\": {\"O\": 1}, \"9\": {\"O\": 1}}" n_minim_iter=3 energy=-11287.664478758945 stress="-0.01255117543967867 5.2694085562568255e-05 3.638452784378116e-05 5.2694085562568255e-05 -0.0126203482214254 1.9640483645138314e-05 3.638452784378116e-05 1.9640483645138314e-05 -0.012635231179795389" free_energy=-11287.664478758945 pbc="T T T"
In      10.54765504       5.69365779       3.93139070        0      -0.04334648      -0.02339857      -0.01615638
In       7.91182628       4.27082903       2.94894743        1       0.04334648       0.02339857       0.01615638
In       4.39449460       2.37216219       1.63794466        2      -0.04334648      -0.02339857      -0.01615638
In       1.75866584       0.94933343       0.65550139        3       0.04334648       0.02339857       0.01615638
O        6.00145622       2.31104723       0.22845671        4      -0.00000000       0.01845622      -0.02672932
O        7.08114374       5.10101609       1.16191835        5      -0.01542949       0.02858355       0.00000000
O        8.15005314       2.19227456       2.50670742        6       0.01542949      -0.01012733      -0.02672932
O        4.15626774       4.45071666       2.08018466        7      -0.01542949       0.01012733       0.02672932
O        6.30486466       4.33194399       4.35843538        8      -0.00000000      -0.01845622       0.02672932
O        5.22517714       1.54197513       3.42497374        9       0.01542949      -0.02858355       0.00000000
10
Lattice="5.849179315667363 0.021419394879947772 0.014789791179864672 3.227479191563333 4.8781897795528275 0.014789791179870273 3.227479191563334 1.742203548219556 4.556498772064799" Properties=species:S:1:pos:R:3:spacegroup_kinds:I:1:forces:R:3 spacegroup="P 1" unit_cell=conventional occupancy="_JSON {\"0\": {\"In\": 1}, \"1\": {\"In\": 1}, \"2\": {\"In\": 1}, \"3\": {\"In\": 1}, \"4\": {\"O\": 1}, \"5\": {\"O\": 1}, \"6\": {\"O\": 1}, \"7\": {\"O\": 1}, \"8\": {\"O\": 1}, \"9\": {\"O\": 1}}" n_minim_iter=4 energy=-11287.664860427845 stress="-0.012786963715357385 -0.0002626701616608327 -0.00018137005593591568 -0.0002626701616608327 -0.01244215032905207 -9.790413531436231e-05 -0.00018137005593591568 -9.790413531436231e-05 -0.012367961565637742" free_energy=-11287.664860427845 pbc="T T T"
In      10.54441425       5.69190840       3.93018277        0      -0.01917424      -0.01035032      -0.00714675
In       7.91179231       4.27081069       2.94893477        1       0.01917424       0.01035032       0.00714675
In       4.39234540       2.37100204       1.63714359        2      -0.01917424      -0.01035032      -0.00714675
In       1.75972346       0.94990433       0.65589559        3       0.01917424       0.01035032       0.00714675
O        6.00062409       2.31112920       0.22707982        4       0.00000000       0.00661148      -0.00957511
O        7.07934865       5.10138759       1.16130938        5      -0.00552723       0.01023934       0.00000000
O        8.14937871       2.19110116       2.50532920        6       0.00552723      -0.00362786      -0.00957511
O        4.15475899       4.45071157       2.08074916        7      -0.00552723       0.00362786       0.00957511
O        6.30351362       4.33068353       4.35899854        8      -0.00000000      -0.00661148       0.00957511
O        5.22478906       1.54042515       3.42476898        9       0.00552723      -0.01023934      -0.00000000
10
Lattice="5.85138272818446 0.023678582999045558 0.016349728830053322 3.2305769446777566 4.878792177527635 0.016349728830058932 3.2305769446777584 1.7438757252181145 4.556509396471455" Properties=species:S:1:pos:R:3:spacegroup_kinds:I:1:forces:R:3 spacegroup="P 1" unit_cell=conventional occupancy="_JSON {\"0\": {\"In\": 1}, \"1\": {\"In\": 1}, \"2\": {\"In\": 1}, \"3\": {\"In\": 1}, \"4\": {\"O\": 1}, \"5\": {\"O\": 1}, \"6\": {\"O\": 1}, \"7\": {\"O\": 1}, \"8\": {\"O\": 1}, \"9\": {\"O\": 1}}" n_minim_iter=5 energy=-11287.665018681584 stress="-0.012498504654167028 -0.00018076612770321062 -0.00012481647035667042 -0.00018076612770321062 -0.012261208646445537 -6.737632881979443e-05 -0.00012481647035667042 -6.737632881979443e-05 -0.012210152921097183" free_energy=-11287.665018681584 pbc="T T T"
In      10.55035737       5.69511652       3.93239793        0      -0.00668572      -0.00360897      -0.00249194
In       7.91844757       4.27440322       2.95141536        1       0.00668572       0.00360897       0.00249194
In       4.39408906       2.37194327       1.63779350        2      -0.00668572      -0.00360897      -0.00249194
In       1.76217926       0.95122998       0.65681093        3       0.00668572       0.00360897       0.00249194
O        6.00382552       2.31367351       0.22823505        4      -0.00000000      -0.00367363       0.00532036
O        7.08386382       5.10438744       1.16365194        5       0.00307117      -0.00568943       0.00000000
O        8.15436417       2.19404594       2.50648975        6      -0.00307117       0.00201580       0.00532036
O        4.15817245       4.45230056       2.08271911        7       0.00307117      -0.00201580      -0.00532036
O        6.30871110       4.33267299       4.36097381        8       0.00000000       0.00367363      -0.00532036
O        5.22867281       1.54195906       3.42555691        9      -0.00307117       0.00568943      -0.00000000
