10
Lattice="6.421041676152755 0.09121000209177232 0.0629792247639629 3.5996178571425395 5.3179739331734925 0.06297922476396 3.5996178571425412 1.9430851852868405 4.95068006433292" Properties=species:S:1:pos:R:3:spacegroup_kinds:I:1:forces:R:3 spacegroup="P 1" unit_cell=conventional occupancy="_JSON {\"0\": {\"In\": 1}, \"1\": {\"In\": 1}, \"2\": {\"In\": 1}, \"3\": {\"In\": 1}, \"4\": {\"O\": 1}, \"5\": {\"O\": 1}, \"6\": {\"O\": 1}, \"7\": {\"O\": 1}, \"8\": {\"O\": 1}, \"9\": {\"O\": 1}}" n_minim_iter=1 energy=-11286.047594977621 stress="0.10787055721127288 -0.002893433266836525 -0.0019978750106538594 -0.002893433266836525 0.11166883609623567 -0.0010784592948064166 -0.0019978750106538594 -0.0010784592948064166 0.11248605960050809" free_energy=-11286.047594977621 pbc="T T T"
In      11.56707460       6.24394372       4.31135539        0      -0.07120341      -0.03843583      -0.02653940
In       8.86334150       4.78445998       3.30360238        1       0.07120341       0.03843583       0.02653940
In       4.75693590       2.56780916       1.77303614        2      -0.07120341      -0.03843583      -0.02653940
In       2.05320280       1.10832542       0.76528312        3       0.07120341       0.03843583       0.02653940
O        6.61559019       2.57808715       0.29495918        4       0.00000000       0.06864476      -0.09941514
O        7.83486484       5.61811472       1.33213886        5      -0.05738736       0.10631163      -0.00000000
O        8.99593340       2.47417428       2.77029921        6       0.05738736      -0.03766688      -0.09941514
O        4.62434400       4.87809486       2.30633931        7      -0.05738736       0.03766688       0.09941514
O        7.00468721       4.77418199       4.78167934        8      -0.00000000      -0.06864476       0.09941514
O        5.78541257       1.73415442       3.74449966        9       0.05738736      -0.10631163       0.00000000
10
Lattice="6.441044746651439 0.1113358895055378 0.07687586721475996 3.6274193211258763 5.323653085746744 0.07687586721475714 3.627419321125878 1.958092504102119 4.951067139690188" Properties=species:S:1:pos:R:3:spacegroup_kinds:I:1:forces:R:3 spacegroup="P 1" unit_cell=conventional occupancy="_JSON {\"0\": {\"In\": 1}, \"1\": {\"In\": 1}, \"2\": {\"In\": 1}, \"3\": {\"In\": 1}, \"4\": {\"O\": 1}, \"5\": {\"O\": 1}, \"6\": {\"O\": 1}, \"7\": {\"O\": 1}, \"8\": {\"O\": 1}, \"9\": {\"O\": 1}}" n_minim_iter=2 energy=-11286.051563693674 stress="0.1086288088711044 0.00025289158931345214 0.0001746180883193828 0.00025289158931345214 0.10829683204864529 9.425939924207329e-05 0.0001746180883193828 9.425939924207329e-05 0.10822540515462345" free_energy=-11286.051563693674 pbc="T T T"
In      11.63081586       6.27835145       4.33511345        0      -0.07945112      -0.04288797      -0.02961354
In       8.91300924       4.81127078       3.32211486        1       0.07945112       0.04288797       0.02961354
In       4.78287416       2.58181071       1.78270401        2      -0.07945112      -0.04288797      -0.02961354
In       2.06506754       1.11473004       0.76970543        3       0.07945112       0.04288797       0.02961354
O        6.64449323       2.59688074       0.31108506        4       0.00000000       0.05371758      -0.07779677
O        7.87889957       5.63893992       1.35308059        5      -0.04490816       0.08319359      -0.00000000
O        9.03750620       2.50275193       2.78661863        6       0.04490816      -0.02947601      -0.07779677
O        4.65837720       4.89032956       2.31820025        7      -0.04490816       0.02947601       0.07779677
O        7.05139017       4.79620076       4.79373381        8      -0.00000000      -0.05371758       0.07779677
O        5.81698383       1.75414157       3.75173829        9       0.04490816      -0.08319359      -0.00000000
10
Lattice="6.439298565989032 0.1095828642628735 0.0756654279181621 3.624995615806943 5.323155193254186 0.07566542791815925 3.6249956158069443 1.9567841802506363 4.951030411982125" Properties=species:S:1:pos:R:3:spacegroup_kinds:I:1:forces:R:3 spacegroup="P 1" unit_cell=conventional occupancy="_JSON {\"0\": {\"In\": 1}, \"1\": {\"In\": 1}, \"2\": {\"In\": 1}, \"3\": {\"In\": 1}, \"4\": {\"O\": 1}, \"5\": {\"O\": 1}, \"6\": {\"O\": 1}, \"7\": {\"O\": 1}, \"8\": {\"O\": 1}, \"9\": {\"O\": 1}}" n_minim_iter=3 energy=-11286.056194949564 stress="0.10640743488327818 0.00019070590602970707 0.00013167974798892763 0.00019070590602970707 0.1061570906894954 7.108114742477842e-05 0.00013167974798892763 7.108114742477842e-05 0.10610322756759417" free_energy=-11286.056194949564 pbc="T T T"
In      11.61904033       6.27199499       4.33072440        0      -0.03718770      -0.02007404      -0.01386084
In       8.91489437       4.81228838       3.32281750        1       0.03718770       0.02007404       0.01386084
In       4.77439543       2.57723387       1.77954377        2      -0.03718770      -0.02007404      -0.01386084
In       2.07024948       1.11752726       0.77163687        3       0.03718770       0.02007404       0.01386084
O        6.64197174       2.59951024       0.30349917        4      -0.00000000       0.00967976      -0.01401877
O        7.87149130       5.64373256       1.35125575        5      -0.00809233       0.01499126      -0.00000000
O        9.03744779       2.49791936       2.77901437        6       0.00809233      -0.00531150      -0.01401877
O        4.65184202       4.89160289       2.32334690        7      -0.00809233       0.00531150       0.01401877
O        7.04731807       4.79001201       4.79886211        8      -0.00000000      -0.00967976       0.01401877
O        5.81779851       1.74578969       3.75110553        9       0.00809233      -0.01499126      -0.00000000
10
Lattice="6.437564021015806 0.10784079021505556 0.07446255026771968 3.622587450498341 5.322661019095935 0.07446255026771684 3.622587450498343 1.955484244946231 4.950994482259383" Properties=species:S:1:pos:R:3:spacegroup_kinds:I:1:forces:R:3 spacegroup="P 1" unit_cell=conventional occupancy="_JSON {\"0\": {\"In\": 1}, \"1\": {\"In\": 1}, \"2\": {\"In\": 1}, \"3\": {\"In\": 1}, \"4\": {\"O\": 1}, \"5\": {\"O\": 1}, \"6\": {\"O\": 1}, \"7\": {\"O\": 1}, \"8\": {\"O\": 1}, \"9\": {\"O\": 1}}" n_minim_iter=4 energy=-11286.056675972288 stress="0.10535403174657 -1.7972791191287362e-05 -1.2409959274309798e-05 -1.7972791191287362e-05 0.10537762505916534 -6.698935329001074e-06 -1.2409959274309798e-05 -6.698935329001074e-06 0.10538270130917528" free_energy=-11286.056675972288 pbc="T T T"
In      11.61054637       6.26740992       4.32755848        0      -0.01446661      -0.00780912      -0.00539209
In       8.91356203       4.81156918       3.32232090        1       0.01446661       0.00780912       0.00539209
In       4.76917691       2.57441689       1.77759868        2      -0.01446661      -0.00780912      -0.00539209
In       2.07219257       1.11857615       0.77236111        3       0.01446661       0.00780912       0.00539209
O        6.63946675       2.59962344       0.29958154        4       0.00000000      -0.00801053       0.01160130
O        7.86622033       5.64462385       1.34944245        5       0.00669684      -0.01240608      -0.00000000
O        9.03530062       2.49448914       2.77507879        6      -0.00669684       0.00439555       0.01160130
O        4.64743832       4.89149693       2.32484080        7       0.00669684      -0.00439555      -0.01160130
O        7.04327219       4.78636262       4.80033804        8      -0.00000000       0.00801053      -0.01160130
O        5.81651861       1.74136222       3.75047714        9      -0.00669684       0.01240608      -0.00000000
10
Lattice="6.438227019744573 0.10850675279099464 0.07492238806831812 3.623508000418264 5.322849861124693 0.07492238806831525 3.6235080004182665 1.955981160725268 4.95100815058882" Properties=species:S:1:pos:R:3:spacegroup_kinds:I:1:forces:R:3 spacegroup="P 1" unit_cell=conventional occupancy="_JSON {\"0\": {\"In\": 1}, \"1\": {\"In\": 1}, \"2\": {\"In\": 1}, \"3\": {\"In\": 1}, \"4\": {\"O\": 1}, \"5\": {\"O\": 1}, \"6\": {\"O\": 1}, \"7\": {\"O\": 1}, \"8\": {\"O\": 1}, \"9\": {\"O\": 1}}" n_minim_iter=5 energy=-11286.056778598031 stress="0.10544643574544148 1.5102297051979884e-05 1.0427924073023364e-05 1.5102297051979884e-05 0.10542661059988834 5.629026423720338e-06 1.0427924073023364e-05 5.629026423720338e-06 0.10542234509558454" free_energy=-11286.056778598031 pbc="T T T"
In      11.61162340       6.26799130       4.32795992        0      -0.00429086      -0.00231622      -0.00159932
In       8.91624114       4.81301537       3.32331948        1       0.00429086       0.00231622       0.00159932
In       4.76900189       2.57432242       1.77753345        2      -0.00429086      -0.00231622      -0.00159932
In       2.07361963       1.11934648       0.77289302        3       0.00429086       0.00231622       0.00159932
O        6.64042427       2.59965015       0.30097777        4      -0.00000000      -0.00057011       0.00082567
O        7.86817669       5.64439149       1.35013562        5       0.00047662      -0.00088294       0.00000000
O        9.03617986       2.49576200       2.77648185        6      -0.00047662       0.00031283       0.00082567
O        4.64906318       4.89157579       2.32437108        7       0.00047662      -0.00031283      -0.00082567
O        7.04481876       4.78768764       4.79987516        8      -0.00000000       0.00057011      -0.00082567
O        5.81706635       1.74294630       3.75071731        9      -0.00047662       0.00088294       0.00000000
