10
Lattice="5.445339850903674 -0.128776494281428 -0.08891835973762663 2.8803191428886588 4.622993739172509 -0.08891835973762019 2.8803191428886614 1.554805448122699 4.354601888303294" Properties=species:S:1:pos:R:3:spacegroup_kinds:I:1:forces:R:3 spacegroup="P 1" unit_cell=conventional occupancy="_JSON {\"0\": {\"In\": 1}, \"1\": {\"In\": 1}, \"2\": {\"In\": 1}, \"3\": {\"In\": 1}, \"4\": {\"O\": 1}, \"5\": {\"O\": 1}, \"6\": {\"O\": 1}, \"7\": {\"O\": 1}, \"8\": {\"O\": 1}, \"9\": {\"O\": 1}}" n_minim_iter=1 energy=-11286.651577779068 stress="-0.11425469253009463 0.0058556198848995576 0.0040432232479622405 0.0058556198848995576 -0.12194150446684257 0.0021825447883872507 0.0040432232479622405 0.0021825447883872507 -0.12359537022635726" free_energy=-11286.651577779068 pbc="T T T"
In       9.67905242       5.22478333       3.60763947        0       0.16858007       0.09100006       0.06283426
In       7.12991479       3.84875072       2.65750829        1      -0.16858007      -0.09100006      -0.06283426
In       4.07606336       2.20027199       1.51925689        2       0.16858007       0.09100006       0.06283426
In       1.52692572       0.82423937       0.56912570        3      -0.16858007      -0.09100006      -0.06283426
O        5.52416446       2.10286661       0.05112603        4      -0.00000000       0.04212198      -0.06100338
O        6.41674146       4.77377583       0.95527293        5      -0.03521418       0.06523522      -0.00000000
O        7.51190661       1.86585780       2.22842697        6       0.03521418      -0.02311325      -0.06100338
O        3.69407153       4.18316490       1.94833820        7      -0.03521418       0.02311325       0.06100338
O        5.68181368       3.94615610       4.12563915        8      -0.00000000      -0.04212198       0.06100338
O        4.78923668       1.27524687       3.22149224        9       0.03521418      -0.06523522      -0.00000000
10
Lattice="5.417926339897246 -0.15831200386657115 -0.10931221407401191 2.8405849172638438 4.616282686635838 -0.10931221407400543 2.8405849172638455 1.5333567865634665 4.355551855755974" Properties=species:S:1:pos:R:3:spacegroup_kinds:I:1:forces:R:3 spacegroup="P 1" unit_cell=conventional occupancy="_JSON {\"0\": {\"In\": 1}, \"1\": {\"In\": 1}, \"2\": {\"In\": 1}, \"3\": {\"In\": 1}, \"4\": {\"O\": 1}, \"5\": {\"O\": 1}, \"6\": {\"O\": 1}, \"7\": {\"O\": 1}, \"8\": {\"O\": 1}, \"9\": {\"O\": 1}}" n_minim_iter=2 energy=-11286.660908613461 stress="-0.1145685180779305 -0.000923385154301047 -0.0006375844737917158 -0.000923385154301047 -0.1133563683538704 -0.00034417012916259434 -0.0006375844737917158 -0.00034417012916259434 -0.11309556674381414" free_energy=-11286.660908613461 pbc="T T T"
In       9.58810557       5.17568993       3.57374117        0       0.36513700       0.19710212       0.13609624
In       7.06053870       3.81130128       2.63164998        1      -0.36513700      -0.19710212      -0.13609624
In       4.03855749       2.18002620       1.50527745        2       0.36513700       0.19710212       0.13609624
In       1.51099061       0.81563755       0.56318626        3      -0.36513700      -0.19710212      -0.13609624
O        5.48373722       2.07716886       0.02590973        4       0.00000000      -0.00084553       0.00122454
O        6.35352625       4.74663969       0.92491964        5       0.00070687      -0.00130949      -0.00000000
O        7.45453310       1.82402478       2.20368565        6      -0.00070687       0.00046396       0.00122454
O        3.64456308       4.16730270       1.93324178        7       0.00070687      -0.00046396      -0.00122454
O        5.61535897       3.91415862       4.11101771        8      -0.00000000       0.00084553      -0.00122454
O        4.74556993       1.24468779       3.21200779        9      -0.00070687       0.00130949       0.00000000
10
Lattice="5.370951532720679 -0.20958112639330723 -0.14471282274644517 2.771947572323984 4.605144001186292 -0.14471282274643854 2.771947572323986 1.4963061291317539 4.357678400324199" Properties=species:S:1:pos:R:3:spacegroup_kinds:I:1:forces:R:3 spacegroup="P 1" unit_cell=conventional occupancy="_JSON {\"0\": {\"In\": 1}, \"1\": {\"In\": 1}, \"2\": {\"In\": 1}, \"3\": {\"In\": 1}, \"4\": {\"O\": 1}, \"5\": {\"O\": 1}, \"6\": {\"O\": 1}, \"7\": {\"O\": 1}, \"8\": {\"O\": 1}, \"9\": {\"O\": 1}}" n_minim_iter=3 energy=-11286.701561522115 stress="-0.09697068877537446 -0.0006008877966903964 -0.0004149045801931443 -0.0006008877966903964 -0.09618188902788824 -0.00022396681439676192 -0.0004149045801931443 -0.00022396681439676192 -0.0960121738203739" free_energy=-11286.701561522115 pbc="T T T"
In       9.45862412       5.10579543       3.52548000        0       0.14998515       0.08096246       0.05590344
In       6.91364591       3.73200809       2.57689914        1      -0.14998515      -0.08096246      -0.05590344
In       4.00120078       2.15986093       1.49135362        2       0.14998515       0.08096246       0.05590344
In       1.45622257       0.78607358       0.54277276        3      -0.14998515      -0.08096246      -0.05590344
O        5.41418744       2.03324079      -0.01847589        4       0.00000000       0.09321067      -0.13499286
O        6.24416433       4.70074799       0.87235037        5      -0.07792458       0.14435740       0.00000000
O        7.35615813       1.75139456       2.16036331        6       0.07792458      -0.05114673      -0.13499286
O        3.55868856       4.14047446       1.90788945        7      -0.07792458       0.05114673       0.13499286
O        5.50065925       3.85862822       4.08672865        8      -0.00000000      -0.09321067       0.13499286
O        4.67068236       1.19112103       3.19590239        9       0.07792458      -0.14435740       0.00000000
10
Lattice="5.335513358930059 -0.24883769818804283 -0.1718189339384597 2.7196831824517527 4.5970584497534706 -0.17181893393845282 2.719683182451755 1.4680936449989512 4.359721228017131" Properties=species:S:1:pos:R:3:spacegroup_kinds:I:1:forces:R:3 spacegroup="P 1" unit_cell=conventional occupancy="_JSON {\"0\": {\"In\": 1}, \"1\": {\"In\": 1}, \"2\": {\"In\": 1}, \"3\": {\"In\": 1}, \"4\": {\"O\": 1}, \"5\": {\"O\": 1}, \"6\": {\"O\": 1}, \"7\": {\"O\": 1}, \"8\": {\"O\": 1}, \"9\": {\"O\": 1}}" n_minim_iter=4 energy=-11286.715855000108 stress="-0.086679610018027 -0.0017934108289957397 -0.0012383249766812247 -0.0017934108289957397 -0.08432535682939599 -0.0006684517664577074 -0.0012383249766812247 -0.0006684517664577074 -0.08381882450303033" free_energy=-11286.715855000108 pbc="T T T"
In       9.36159055       5.05341640       3.48931301        0       0.02738169       0.01478072       0.01020588
In       6.80072905       3.67105521       2.53481203        1      -0.02738169      -0.01478072      -0.01020588
In       3.97415068       2.14525920       1.48127133        2       0.02738169       0.01478072       0.01020588
In       1.41328919       0.76289801       0.52677035        3      -0.02738169      -0.01478072      -0.01020588
O        5.36147661       2.00226031      -0.05598600        4      -0.00000000       0.10516703      -0.15230872
O        6.15902079       4.66986015       0.83220191        5      -0.08792016       0.16287448      -0.00000000
O        7.28361562       1.69463596       2.12387461        6       0.08792016      -0.05770745      -0.15230872
O        3.49126411       4.12167844       1.89220875        7      -0.08792016       0.05770745       0.15230872
O        5.41340312       3.81405410       4.07206936        8      -0.00000000      -0.10516703       0.15230872
O        4.61585894       1.14645426       3.18388146        9       0.08792016      -0.16287448       0.00000000
10
Lattice="5.336708322722479 -0.24750555571820104 -0.17089910828226273 2.721452562935911 4.597326469766562 -0.17089910828225596 2.7214525629359136 1.4690487622203765 4.35964596143388" Properties=species:S:1:pos:R:3:spacegroup_kinds:I:1:forces:R:3 spacegroup="P 1" unit_cell=conventional occupancy="_JSON {\"0\": {\"In\": 1}, \"1\": {\"In\": 1}, \"2\": {\"In\": 1}, \"3\": {\"In\": 1}, \"4\": {\"O\": 1}, \"5\": {\"O\": 1}, \"6\": {\"O\": 1}, \"7\": {\"O\": 1}, \"8\": {\"O\": 1}, \"9\": {\"O\": 1}}" n_minim_iter=5 energy=-11286.722085151783 stress="-0.07959515362290961 0.0013607433541138704 0.0009395741626286529 0.0013607433541138704 -0.08138143388739064 0.0005071851283749524 0.0009395741626286529 0.0005071851283749524 -0.08176576328021919" free_energy=-11286.722085151783 pbc="T T T"
In       9.37733267       5.06191405       3.49518052        0      -0.08900628      -0.04804588      -0.03317500
In       6.79208751       3.66639048       2.53159110        1       0.08900628       0.04804588       0.03317500
In       3.98752594       2.15247921       1.48625665        2      -0.08900628      -0.04804588      -0.03317500
In       1.40228079       0.75695564       0.52266723        3       0.08900628       0.04804588       0.03317500
O        5.36325753       2.00877339      -0.06262779        4       0.00000000       0.06118282      -0.08860834
O        6.15733232       4.67936510       0.83356283        5      -0.05114914       0.09475516       0.00000000
O        7.29063530       1.69356056       2.11719519        6       0.05114914      -0.03357235      -0.08860834
O        3.48897816       4.12530913       1.90065256        7      -0.05114914       0.03357235       0.08860834
O        5.41635593       3.81009629       4.08047554        8       0.00000000      -0.06118282       0.08860834
O        4.62228114       1.13950459       3.18428492        9       0.05114914      -0.09475516      -0.00000000
10
Lattice="5.338447733926547 -0.2455675318533349 -0.1695609300366297 2.7240272134756554 4.597717190172751 -0.1695609300366231 2.724027213475658 1.4704385667828634 4.35953721065923" Properties=species:S:1:pos:R:3:spacegroup_kinds:I:1:forces:R:3 spacegroup="P 1" unit_cell=conventional occupancy="_JSON {\"0\": {\"In\": 1}, \"1\": {\"In\": 1}, \"2\": {\"In\": 1}, \"3\": {\"In\": 1}, \"4\": {\"O\": 1}, \"5\": {\"O\": 1}, \"6\": {\"O\": 1}, \"7\": {\"O\": 1}, \"8\": {\"O\": 1}, \"9\": {\"O\": 1}}" n_minim_iter=6 energy=-11286.72371691359 stress="-0.08094836345106594 0.0006321888526520742 0.000436517517542072 0.0006321888526520742 -0.0817782528396639 0.00023563354622706305 0.000436517517542072 0.00023563354622706305 -0.08195680874314118" free_energy=-11286.72371691359 pbc="T T T"
In       9.38096009       5.06387214       3.49653256        0      -0.03931045      -0.02121991      -0.01465205
In       6.79879316       3.67001020       2.53409047        1       0.03931045       0.02121991       0.01465205
In       3.98770901       2.15257803       1.48632488        2      -0.03931045      -0.02121991      -0.01465205
In       1.40554207       0.75871609       0.52388280        3       0.03931045       0.02121991       0.01465205
O        5.36584941       2.01163000      -0.06270417        4      -0.00000000       0.02607196      -0.03775885
O        6.16041067       4.68294272       0.83554291        5      -0.02179628       0.04037821      -0.00000000
O        7.29531537       1.69562846       2.11706444        6       0.02179628      -0.01430625      -0.03775885
O        3.49118680       4.12695978       1.90335092        7      -0.02179628       0.01430625       0.03775885
O        5.42065276       3.81095823       4.08311952        8      -0.00000000      -0.02607196       0.03775885
O        4.62609150       1.13964552       3.18487244        9       0.02179628      -0.04037821      -0.00000000
10
Lattice="5.339448580590692 -0.2444529769851058 -0.16879134556181138 2.725508173331136 4.5979423223692075 -0.16879134556180497 2.7255081733311375 1.4712379936302098 4.359475069807085" Properties=species:S:1:pos:R:3:spacegroup_kinds:I:1:forces:R:3 spacegroup="P 1" unit_cell=conventional occupancy="_JSON {\"0\": {\"In\": 1}, \"1\": {\"In\": 1}, \"2\": {\"In\": 1}, \"3\": {\"In\": 1}, \"4\": {\"O\": 1}, \"5\": {\"O\": 1}, \"6\": {\"O\": 1}, \"7\": {\"O\": 1}, \"8\": {\"O\": 1}, \"9\": {\"O\": 1}}" n_minim_iter=7 energy=-11286.724083473218 stress="-0.08211183935910597 -2.0966389205361396e-05 -1.4476996586134744e-05 -2.0966389205361396e-05 -0.08208431627857646 -7.814729879627e-06 -1.4476996586134744e-05 -7.814729879627e-06 -0.08207839451430995" free_energy=-11286.724083473218 pbc="T T T"
In       9.38258393       5.06474870       3.49713780        0       0.00083374       0.00045005       0.00031076
In       6.80311347       3.67234232       2.53570077        1      -0.00083374      -0.00045005      -0.00031076
In       3.98735147       2.15238503       1.48619161        2       0.00083374       0.00045005       0.00031076
In       1.40788100       0.75997865       0.52475458        3      -0.00083374      -0.00045005      -0.00031076
O        5.36734053       2.01342872      -0.06297355        4       0.00000000      -0.00034774       0.00050362
O        6.16205149       4.68524176       0.83668175        5       0.00029071      -0.00053855       0.00000000
O        7.29813774       1.69673247       2.11676399        6      -0.00029071       0.00019081       0.00050362
O        3.49232720       4.12799488       1.90512840        7       0.00029071      -0.00019081      -0.00050362
O        5.42312441       3.81129863       4.08486593        8       0.00000000       0.00034774      -0.00050362
O        4.62841345       1.13948559       3.18521063        9      -0.00029071       0.00053855       0.00000000
