10
Lattice="5.743748634215864 0.01726525142130316 0.01192141349557826 3.1661541887884206 4.792328673492735 0.011921413495580228 3.1661541887884233 1.7091001163807649 4.477223808016269" Properties=species:S:1:pos:R:3:spacegroup_kinds:I:1:forces:R:3 spacegroup="P 1" unit_cell=conventional occupancy="_JSON {\"0\": {\"In\": 1}, \"1\": {\"In\": 1}, \"2\": {\"In\": 1}, \"3\": {\"In\": 1}, \"4\": {\"O\": 1}, \"5\": {\"O\": 1}, \"6\": {\"O\": 1}, \"7\": {\"O\": 1}, \"8\": {\"O\": 1}, \"9\": {\"O\": 1}}" n_minim_iter=4 energy=-11287.459379679465 stress="-0.05333327035077893 1.533020682834797e-05 1.0585292184802796e-05 1.533020682834797e-05 -0.053353394677876545 5.713974312787704e-06 1.0585292184802796e-05 5.713974312787704e-06 -0.05335772455237225" free_energy=-11287.459379679465 pbc="T T T"
In      10.35559601       5.58998372       3.85980520        0       0.00778257       0.00420106       0.00290077
In       7.75848952       4.18805736       2.89179475        1      -0.00778257      -0.00420106      -0.00290077
In       4.31756750       2.33063669       1.60927189        2       0.00778257       0.00420106       0.00290077
In       1.72046101       0.92871034       0.64126144        3      -0.00778257      -0.00420106      -0.00290077
O        5.89088857       2.27426890       0.21019087        4       0.00000000      -0.00510222       0.00738932
O        6.94229763       5.01939990       1.13718807        5       0.00426548      -0.00790192      -0.00000000
O        8.00563371       2.14388954       2.44880277        6      -0.00426548       0.00279970       0.00738932
O        4.07042332       4.37480451       2.05226386        7       0.00426548      -0.00279970      -0.00738932
O        6.18516845       4.24442515       4.29087577        8      -0.00000000       0.00510222      -0.00738932
O        5.13375939       1.49929416       3.36387856        9      -0.00426548       0.00790192       0.00000000
