10
Lattice="6.2905734330069105 0.045673355899337166 0.03153681044777787 3.4899582186985434 5.233888783995121 0.0315368104477787 3.4899582186985407 1.8838905631516902 4.883189809920475" Properties=species:S:1:pos:R:3:spacegroup_kinds:I:1:forces:R:3 spacegroup="P 1" unit_cell=conventional occupancy="_JSON {\"0\": {\"In\": 1}, \"1\": {\"In\": 1}, \"2\": {\"In\": 1}, \"3\": {\"In\": 1}, \"4\": {\"O\": 1}, \"5\": {\"O\": 1}, \"6\": {\"O\": 1}, \"7\": {\"O\": 1}, \"8\": {\"O\": 1}, \"9\": {\"O\": 1}}" n_minim_iter=5 energy=-11286.888456101951 stress="0.06529419407539898 4.0344065526324315e-05 2.7857009891358604e-05 4.0344065526324315e-05 0.0652412334586751 1.5037302597290737e-05 2.7857009891358604e-05 1.5037302597290737e-05 0.06522983864954227" free_energy=-11286.888456101951 pbc="T T T"
In      11.29227873       6.09560803       4.20893169        0      -0.00665086      -0.00359015      -0.00247895
In       8.61345608       4.64957103       3.21046346        1       0.00665086       0.00359015       0.00247895
In       4.65703380       2.51388168       1.73579997        2      -0.00665086      -0.00359015      -0.00247895
In       1.97821115       1.06784468       0.73733175        3       0.00665086       0.00359015       0.00247895
O        6.46290919       2.49358395       0.26768847        4      -0.00000000      -0.00195567       0.00283231
O        7.63950181       5.48359559       1.26810267        5       0.00163495      -0.00302879      -0.00000000
O        8.77627479       2.38257789       2.70928337        6      -0.00163495       0.00107312       0.00283231
O        4.49421509       4.78087483       2.23698006        7       0.00163495      -0.00107312      -0.00283231
O        6.80758069       4.66986877       4.67857497        8       0.00000000       0.00195567      -0.00283231
O        5.63098807       1.67985712       3.67816077        9      -0.00163495       0.00302879      -0.00000000
