10
Lattice="5.832775411747629 0.0045562236079782995 0.003146008377382455 3.2043803158697024 4.873729224559778 0.0031460083773879595 3.2043803158697033 1.7297347015423956 4.556453040905482" Properties=species:S:1:pos:R:3:spacegroup_kinds:I:1:forces:R:3 spacegroup="P 1" unit_cell=conventional occupancy="_JSON {\"0\": {\"In\": 1}, \"1\": {\"In\": 1}, \"2\": {\"In\": 1}, \"3\": {\"In\": 1}, \"4\": {\"O\": 1}, \"5\": {\"O\": 1}, \"6\": {\"O\": 1}, \"7\": {\"O\": 1}, \"8\": {\"O\": 1}, \"9\": {\"O\": 1}}" n_minim_iter=1 energy=-11287.684385592327 stress="-9.1605835033127e-06 7.718469494340764e-05 5.3294948529486504e-05 7.718469494340764e-05 -0.00011048277314384586 2.8768782089366837e-05 5.3294948529486504e-05 2.8768782089366837e-05 -0.00013228287852956732" free_energy=-11287.684385592327 pbc="T T T"
In      10.49289358       5.66409738       3.91097965        0      -0.00499256      -0.00269500      -0.00186086
In       7.86941050       4.24793286       2.93313794        1       0.00499256       0.00269500       0.00186086
In       4.37212556       2.36008731       1.62960712        2      -0.00499256      -0.00269500      -0.00186086
In       1.74864247       0.94392278       0.65176541        3       0.00499256       0.00269500       0.00186086
O        5.97677172       2.29450681       0.21505191        4       0.00000000       0.00358298      -0.00518906
O        7.04373171       5.08267612       1.14383228        5      -0.00299539       0.00554903       0.00000000
O        8.11419205       2.16784580       2.49327843        6       0.00299539      -0.00196606      -0.00518906
O        4.12734401       4.44017436       2.06946663        7      -0.00299539       0.00196606       0.00518906
O        6.26476433       4.31351335       4.34769315        8      -0.00000000      -0.00358298       0.00518906
O        5.19780434       1.52534404       3.41891279        9       0.00299539      -0.00554903      -0.00000000
