10
Lattice="5.286579280498539 -0.2420324914979666 -0.1671200343455362 2.698521171331855 4.5524151506437605 -0.16712003434552988 2.698521171331856 1.456670323988262 4.316309115077656" Properties=species:S:1:pos:R:3:spacegroup_kinds:I:1:forces:R:3 spacegroup="P 1" unit_cell=conventional occupancy="_JSON {\"0\": {\"In\": 1}, \"1\": {\"In\": 1}, \"2\": {\"In\": 1}, \"3\": {\"In\": 1}, \"4\": {\"O\": 1}, \"5\": {\"O\": 1}, \"6\": {\"O\": 1}, \"7\": {\"O\": 1}, \"8\": {\"O\": 1}, \"9\": {\"O\": 1}}" n_minim_iter=7 energy=-11286.724083473218 stress="-0.08211183935910597 -2.0966389205361396e-05 -1.4476996586134744e-05 -2.0966389205361396e-05 -0.08208431627857646 -7.814729879627e-06 -1.4476996586134744e-05 -7.814729879627e-06 -0.08207839451430995" free_energy=-11286.724083473218 pbc="T T T"
In       9.28968096       5.01459938       3.46251040        0       0.00083374       0.00045005       0.00031076
In       6.73575148       3.63598011       2.51059317        1      -0.00083374      -0.00045005      -0.00031076
In       3.94787015       2.13107288       1.47147588        2       0.00083374       0.00045005       0.00031076
In       1.39394067       0.75245362       0.51955865        3      -0.00083374      -0.00045005      -0.00031076
O        5.31419505       1.99349247      -0.06235001        4       0.00000000      -0.00034774       0.00050362
O        6.10103707       4.63885018       0.82839723        5       0.00029071      -0.00053855       0.00000000
O        7.22587420       1.67993203       2.09580455        6      -0.00029071       0.00019081       0.00050362
O        3.45774743       4.08712096       1.88626450        7       0.00029071      -0.00019081      -0.00050362
O        5.36942658       3.77356052       4.04441906        8       0.00000000       0.00034774      -0.00050362
O        4.58258456       1.12820281       3.15367182        9      -0.00029071       0.00053855       0.00000000
