10
Lattice="5.812789814539686 0.03560309919496801 0.02458343970036796 3.219369124857247 4.839985066774945 0.024583439700374562 3.2193691248572494 1.7378257083783002 4.517302469329618" Properties=species:S:1:pos:R:3:spacegroup_kinds:I:1:forces:R:3 spacegroup="P 1" unit_cell=conventional occupancy="_JSON {\"0\": {\"In\": 1}, \"1\": {\"In\": 1}, \"2\": {\"In\": 1}, \"3\": {\"In\": 1}, \"4\": {\"O\": 1}, \"5\": {\"O\": 1}, \"6\": {\"O\": 1}, \"7\": {\"O\": 1}, \"8\": {\"O\": 1}, \"9\": {\"O\": 1}}" n_minim_iter=4 energy=-11287.596919959215 stress="-0.030074489112887327 -2.5275448117439596e-06 -1.7452336338347274e-06 -2.5275448117439596e-06 -0.0300711711438409 -9.420816078423677e-07 -1.7452336338347274e-06 -9.420816078423677e-07 -0.030070457261636877" free_energy=-11287.596919959215 pbc="T T T"
In      10.49647043       5.66602818       3.91231283        0      -0.00240747      -0.00129956      -0.00089733
In       7.88082168       4.25409265       2.93739119        1       0.00240747       0.00129956       0.00089733
In       4.37070640       2.35932124       1.62907816        2      -0.00240747      -0.00129956      -0.00089733
In       1.75505764       0.94738571       0.65415652        3       0.00240747       0.00129956       0.00089733
O        5.96927693       2.30609728       0.23435052        4       0.00000000      -0.00107415       0.00155564
O        7.04814660       5.07449649       1.16620078        5       0.00089799      -0.00166356      -0.00000000
O        8.10977638       2.19166119       2.49300175        6      -0.00089799       0.00058941       0.00155564
O        4.14175169       4.42175269       2.07346760        7       0.00089799      -0.00058941      -0.00155564
O        6.28225115       4.30731661       4.33211884        8       0.00000000       0.00107415      -0.00155564
O        5.20338147       1.53891739       3.40026857        9      -0.00089799       0.00166356      -0.00000000
