80
Lattice="11.755697322598738 0.010768706978371687 0.007435640846995098 6.45961062654092 9.821912545888644 0.0074356408469941635 6.459610626540917 3.4869183922531155 9.182125106619196" Properties=species:S:1:pos:R:3:spacegroup_kinds:I:1:forces:R:3 spacegroup="P 1" unit_cell=conventional occupancy="_JSON {\"0\": {\"In\": 1}, \"1\": {\"In\": 1}, \"2\": {\"In\": 1}, \"3\": {\"In\": 1}, \"4\": {\"O\": 1}, \"5\": {\"O\": 1}, \"6\": {\"O\": 1}, \"7\": {\"O\": 1}, \"8\": {\"O\": 1}, \"9\": {\"O\": 1}}" n_minim_iter=4 energy=-90301.48092364256 stress="-0.0002830517509091527 -0.00017048122370524863 -0.00010906916561276331 -0.00017048122370524863 -1.78343137283712e-05 -6.808274713245791e-05 -0.00010906916561276331 -6.808274713245791e-05 -1.0041229863928048e-05" free_energy=-11287.685162517795 pbc="T T T"
In      10.57475123       5.70828440       3.94149016        0      -0.00008006       0.00006462       0.00021299
In      16.45259989       5.71366875       3.94520798        0      -0.00055931       0.00016323       0.00052099
In      13.80455654      10.61924067       3.94520798        0      -0.00057485      -0.00026357      -0.00011488
In      19.68240520      10.62462503       3.94892580        0       0.00012958       0.00005503      -0.00067468
In      13.80455654       7.45174360       8.53255271        0      -0.00877787      -0.01432191       0.00463019
In      19.68240520       7.45712795       8.53627053        0       0.00152600      -0.00154252       0.00021215
In      17.03436186      12.36269987       8.53627053        0       0.00117392       0.00235752      -0.00024985
In      22.91221052      12.36808422       8.53998835        0      -0.00111087       0.00064495      -0.00016842
In       7.93143772       4.28141535       2.95625713        1       0.00131703      -0.00037397       0.00209653
In      13.80928638       4.28679970       2.95997495        1       0.00052356      -0.00134332       0.00004997
In      11.16124303       9.19237162       2.95997495        1       0.00109976       0.00150656      -0.00083695
In      17.03909169       9.19775598       2.96369277        1       0.00011815      -0.00018634       0.00009800
In      11.16124303       6.02487455       7.54731968        1      -0.00436277      -0.00494726      -0.00300256
In      17.03909169       6.03025890       7.55103750        1       0.00287991      -0.00009164      -0.00173122
In      14.39104835      10.93583082       7.55103750        1       0.00070550       0.00176690       0.00004993
In      20.26889701      10.94121517       7.55475532        1      -0.00016119       0.00063181       0.00051549
In       4.40602158       2.37838449       1.64224107        2      -0.01787848      -0.00301801       0.01277880
In      10.28387024       2.38376884       1.64595889        2       0.00100174      -0.00003997       0.00148435
In       7.63582689       7.28934076       1.64595889        2       0.00016640       0.00288330       0.00028790
In      13.51367555       7.29472512       1.64967671        2      -0.00063775       0.00045417      -0.00042972
In       7.63582689       4.12184369       6.23330362        2      -0.00001413      -0.00021478       0.00060130
In      13.51367555       4.12722804       6.23702144        2      -0.00207688      -0.00136439       0.00101111
In      10.86563221       9.03279996       6.23702144        2      -0.00151589       0.00107565      -0.00293687
In      16.74348087       9.03818431       6.24073926        2       0.00035102       0.00037870      -0.00054626
In       1.76270807       0.95151543       0.65700804        3       0.00243480       0.00151015       0.00046195
In       7.64055673       0.95689978       0.66072586        3       0.00281940      -0.00690116       0.00096463
In       4.99251338       5.86247170       0.66072586        3      -0.00265710       0.00217143       0.00056766
In      10.87036204       5.86785606       0.66444368        3       0.00081336       0.00082177      -0.00012474
In       4.99251338       2.69497463       5.24807059        3       0.00007728      -0.00071219      -0.00048660
In      10.87036204       2.70035898       5.25178841        3       0.00049493       0.00129067       0.00212627
In       8.22231870       7.60593090       5.25178841        3       0.00065586       0.00038735       0.00067733
In      14.10016736       7.61131525       5.25550623        3       0.00051572       0.00005508      -0.00163709
O        6.01779429       2.30437175       0.21722983        4       0.05430830       0.05142136      -0.02404797
O       11.90113782       2.31811112       0.22095398        4      -0.00104061       0.00298922      -0.00341704
O        9.25309447       7.22368304       0.22095398        4      -0.00204173      -0.00113844      -0.00368151
O       15.13094313       7.22906740       0.22467180        4       0.00007040       0.00199117      -0.00410226
O        9.25309447       4.05618597       4.80829871        4      -0.00086650       0.00229144      -0.00581068
O       15.13094313       4.06157032       4.81201653        4      -0.00021239       0.00259140      -0.00412562
O       12.48289979       8.96714224       4.81201653        4       0.00009486       0.00231014      -0.00285880
O       18.36074845       8.97252659       4.81573435        4       0.00008089       0.00254606      -0.00383014
O        7.09889785       5.12217693       1.15334237        5      -0.00354260      -0.00250249      -0.00460817
O       12.97674651       5.12756128       1.15706019        5      -0.00210205       0.00446785       0.00012740
O       10.32870316      10.03313320       1.15706019        5      -0.00862912       0.00066679       0.00116708
O       16.20655182      10.03851756       1.16077801        5      -0.00167060       0.00423016       0.00012622
O       10.32870316       6.86563613       5.74440492        5      -0.00154503       0.00413370       0.00077852
O       16.20655182       6.87102048       5.74812274        5      -0.00237611       0.00406219       0.00023395
O       13.55850848      11.77659240       5.74812274        5      -0.00222890       0.00454801      -0.00028028
O       19.43635714      11.78197675       5.75184056        5      -0.00138846       0.00342308      -0.00091001
O        8.17748578       2.18539971       2.51276744        6       0.00134229      -0.00057105      -0.00538126
O       14.05533444       2.19078406       2.51648526        6       0.00264773      -0.00061652      -0.00359525
O       11.40729109       7.09635598       2.51648526        6       0.00222946      -0.00259432      -0.00326819
O       17.28513975       7.10174034       2.52020308        6       0.00294110      -0.00256515      -0.00412592
O       11.40729109       3.92885891       7.10382999        6       0.00139874      -0.00504145      -0.01007209
O       17.28513975       3.93424326       7.10754781        6       0.00222773      -0.00164439      -0.00378363
O       14.63709641       8.83981518       7.10754781        6       0.00262565      -0.00014864      -0.00387970
O       20.51494507       8.84519953       7.11126563        6       0.00294302      -0.00161350      -0.00322168
O        4.15997352       4.47440013       2.08573076        7      -0.00113626       0.00227296       0.00339067
O       10.03782218       4.47978448       2.08944858        7      -0.00363623       0.00093816       0.00321920
O        7.38977883       9.38535640       2.08944858        7      -0.00450708       0.00096477       0.00441874
O       13.26762749       9.39074076       2.09316640        7      -0.00114986      -0.00119343       0.00573200
O        7.38977883       6.21785933       6.67679331        7      -0.00268983       0.00169707       0.00296596
O       13.26762749       6.22324368       6.68051113        7      -0.00394410       0.00293333       0.01188365
O       10.61958415      11.12881560       6.68051113        7      -0.00202049       0.00171349       0.00407869
O       16.49743281      11.13419995       6.68422895        7      -0.00268829      -0.00002909       0.00368288
O        6.31417014       4.34707307       4.38126203        8      -0.00013886      -0.00252947       0.00370331
O       12.19201880       4.35245742       4.38497985        8       0.00020887      -0.00242829       0.00379419
O        9.54397545       9.25802934       4.38497985        8      -0.00054281      -0.00322488       0.00500275
O       15.42182411       9.26341370       4.38869767        8       0.00059420      -0.00223926       0.00384489
O        9.54397545       6.09053227       8.97232458        8      -0.01021278      -0.00183182       0.00185501
O       15.42182411       6.09591662       8.97604240        8      -0.01389216      -0.00242432       0.00477429
O       12.77378077      11.00148854       8.97604240        8       0.00030894      -0.00380327       0.00423545
O       18.65162943      11.00687289       8.97976022        8       0.00027264      -0.00295672       0.00357314
O        5.23856145       1.53762290       3.44515583        9       0.00271050      -0.00439418       0.00301321
O       11.11641011       1.54300725       3.44887365        9       0.00124998      -0.00387426      -0.00013286
O        8.46836676       6.44857917       3.44887365        9       0.00132152      -0.00484429      -0.00124609
O       14.34621542       6.45396353       3.45259147        9       0.00258196      -0.00386232      -0.00027165
O        8.46836676       3.28108210       8.03621838        9       0.00083530      -0.00471515      -0.00117513
O       14.34621542       3.28646645       8.03993620        9       0.00347342      -0.00489279      -0.00059229
O       11.69817208       8.19203837       8.03993620        9       0.00798491      -0.01254090       0.00587814
O       17.57602074       8.19742272       8.04365402        9       0.00135368      -0.00486984       0.00053118
