80
Lattice="11.758769113478278 0.010573964872500652 0.007301174159401758 6.461133379930928 9.824587437626397 0.007301174159400807 6.461133379930928 3.487740379383526 9.184674119027203" Properties=species:S:1:pos:R:3:spacegroup_kinds:I:1:forces:R:3 spacegroup="P 1" unit_cell=conventional occupancy="_JSON {\"0\": {\"In\": 1}, \"1\": {\"In\": 1}, \"2\": {\"In\": 1}, \"3\": {\"In\": 1}, \"4\": {\"O\": 1}, \"5\": {\"O\": 1}, \"6\": {\"O\": 1}, \"7\": {\"O\": 1}, \"8\": {\"O\": 1}, \"9\": {\"O\": 1}}" n_minim_iter=5 energy=-90301.43367853443 stress="-0.00015148942558701426 -0.00012338505521978819 -6.293431815794388e-05 -0.00012338505521978819 -1.0847390825072485e-05 -7.328477476685035e-05 -6.293431815794388e-05 -7.328477476685035e-05 -3.0333856730556175e-06" free_energy=-11287.67927811939 pbc="T T T"
In      10.56730458       5.70996818       3.94265280        0       0.10406794      -0.00453884      -0.00361922
In      16.45727268       5.71526468       3.94630996        0      -0.00415557      -0.00171565       0.00021837
In      13.80845481      10.62227142       3.94630996        0      -0.00200192      -0.00182673      -0.00131563
In      19.68783937      10.62755840       3.94996054        0       0.00084848      -0.00039411      -0.00023821
In      13.80845481       7.45384789       8.53499643        0      -0.00274018      -0.00138609      -0.00229544
In      19.68783937       7.45913487       8.53864702        0      -0.00238876       0.00009202       0.00183002
In      17.03902150      12.36614161       8.53864702        0      -0.00022427       0.00035005      -0.00156290
In      22.91840606      12.37142859       8.54229760        0      -0.00121455      -0.00065645      -0.00045405
In       7.93288880       4.28219865       2.95679799        1      -0.02040608      -0.01455471      -0.01038265
In      13.81227336       4.28748563       2.96044858        1      -0.00434985       0.00281086       0.00324670
In      11.16345549       9.19449237       2.96044858        1       0.00235997      -0.00156625       0.00059617
In      17.04284005       9.19977935       2.96409916        1       0.00079054       0.00108335       0.00038470
In      11.16345549       6.02606884       7.54913505        1       0.00235103      -0.00026757      -0.00030237
In      17.04284005       6.03135582       7.55278564        1       0.00078365       0.00038604       0.00021306
In      14.39402218      10.93836256       7.55278564        1       0.00088850       0.00032177       0.00059949
In      20.27340674      10.94364954       7.55643622        1       0.00058151       0.00078989       0.00015286
In       4.40762915       2.37925226       1.64284025        2      -0.00104258      -0.00021381       0.00058175
In      10.28701371       2.38453924       1.64649084        2       0.00021713      -0.00179749      -0.00062162
In       7.63819584       7.29154598       1.64649084        2      -0.00395856       0.00228096      -0.00709265
In      13.51758040       7.29683296       1.65014142        2      -0.00399000      -0.00276640       0.00268763
In       7.63819584       4.12312245       6.23517731        2      -0.00494151      -0.00215886       0.00300283
In      13.51758040       4.12840943       6.23882790        2      -0.00495051       0.00158227      -0.00617242
In      10.86876253       9.03541617       6.23882790        2       0.00020437      -0.00049289      -0.00128623
In      16.74814709       9.04070315       6.24247848        2      -0.00104976      -0.00020107       0.00059376
In       1.76262983       0.95147320       0.65697887        3       0.00085488       0.00123898       0.00084851
In       7.64201439       0.95676018       0.66062946        3       0.00031749       0.00038814       0.00040743
In       4.99319652       5.86376692       0.66062946        3       0.00115363      -0.00003146       0.00034432
In      10.87258108       5.86905390       0.66428004        3       0.00312378       0.00260203       0.00296513
In       4.99319652       2.69534339       5.24931593        3       0.00016081       0.00096606       0.00015822
In      10.87258108       2.70063037       5.25296652        3       0.00731308       0.00276785      -0.00123426
In       8.22376321       7.60763711       5.25296652        3      -0.00484324       0.00893020       0.00804214
In      14.10314777       7.61292409       5.25661710        3       0.00055379       0.00010908       0.00007425
O        6.02482177       2.31293779       0.21770923        4      -0.00004103       0.00436191      -0.00600907
O       11.90420633       2.31822477       0.22135982        4      -0.00012555       0.00407166      -0.00628476
O        9.25538846       7.22523151       0.22135982        4       0.00008775       0.00391186      -0.00524341
O       15.13477302       7.23051849       0.22501040        4       0.00014960       0.00402488      -0.00642715
O        9.25538846       4.05680798       4.81004629        4      -0.00816968      -0.00237238      -0.00441352
O       15.13477302       4.06209496       4.81369688        4       0.00427338       0.00327109      -0.00579154
O       12.48595515       8.96910170       4.81369688        4      -0.00042271       0.00438884      -0.00571996
O       18.36533971       8.97438868       4.81734746        4       0.00167073       0.00265722      -0.00642135
O        7.10093910       5.12297269       1.15356015        5      -0.00217396       0.00740181       0.00185064
O       12.98032366       5.12825967       1.15721074        5      -0.00292941       0.00611385       0.00001480
O       10.33150579      10.03526641       1.15721074        5      -0.00423378       0.00700650      -0.00004062
O       16.21089035      10.04055339       1.16086132        5      -0.00326249       0.00659325      -0.00025700
O       10.33150579       6.86684288       5.74589721        5      -0.00705302       0.00998948       0.00413592
O       16.21089035       6.87212986       5.74954780        5      -0.00323177       0.00666375      -0.00011115
O       13.56207248      11.77913660       5.74954780        5      -0.00240926       0.00739400      -0.00020037
O       19.44145704      11.78442358       5.75319838        5      -0.00367451       0.00447694       0.00117439
O        8.17927112       2.18605327       2.51387776        6       0.00394669      -0.00125425      -0.00549510
O       14.05865568       2.19134025       2.51752835        6       0.00370052      -0.00349820      -0.00671946
O       11.40983781       7.09834699       2.51752835        6      -0.00676428      -0.01571671       0.00660574
O       17.28922237       7.10363397       2.52117893        6       0.00584677      -0.00271052      -0.00550057
O       11.40983781       3.92992346       7.10621482        6       0.00228770      -0.00170680      -0.00614262
O       17.28922237       3.93521044       7.10986541        6       0.00387154      -0.00273526      -0.00572130
O       14.64040450       8.84221718       7.10986541        6       0.00354791      -0.00208319      -0.00620298
O       20.51978906       8.84750416       7.11351599        6       0.00376524      -0.00285229      -0.00694806
O        4.16124683       4.47539763       2.08576048        7      -0.00289745       0.00268036       0.00583842
O       10.04063139       4.48068461       2.08941107        7      -0.00996704       0.00131801       0.00460125
O        7.39181352       9.38769135       2.08941107        7      -0.00357337       0.00094471       0.00695665
O       13.27119808       9.39297833       2.09306165        7      -0.00215537       0.00449597       0.00547467
O        7.39181352       6.21926782       6.67809754        7      -0.00209421       0.00236368       0.00526925
O       13.27119808       6.22455480       6.68174813        7      -0.00400800       0.00251025       0.00615967
O       10.62238021      11.13156154       6.68174813        7      -0.00374461       0.00262002       0.00626573
O       16.50176477      11.13684852       6.68539871        7      -0.00427420       0.00263685       0.00622152
O        6.31569618       4.34851311       4.38192901        8       0.00166864      -0.00351642       0.00581432
O       12.19508074       4.35380009       4.38557960        8      -0.03352075       0.02001126      -0.00010707
O        9.54626287       9.26080683       4.38557960        8      -0.00107329      -0.00676341       0.00615429
O       15.42564743       9.26609381       4.38923018        8       0.00023306      -0.00396527       0.00591602
O        9.54626287       6.09238330       8.97426607        8       0.00011313      -0.00452349       0.00613257
O       15.42564743       6.09767028       8.97791666        8       0.00027056      -0.00405965       0.00628781
O       12.77682956      11.00467702       8.97791666        8       0.00000124      -0.00386220       0.00674240
O       18.65621412      11.00996400       8.98156724        8       0.00036358      -0.00410482       0.00441121
O        5.23957884       1.53847821       3.44607809        9       0.00379961      -0.00618646      -0.00009740
O       11.11896340       1.54376519       3.44972868        9       0.00348018      -0.00666454      -0.00023061
O        8.47014553       6.45077193       3.44972868        9      -0.01446314      -0.00261867      -0.00154585
O       14.34953009       6.45605891       3.45337926        9       0.00411116      -0.00595481      -0.00031898
O        8.47014553       3.28234840       8.03841515        9       0.00356929      -0.00658832      -0.00063474
O       14.34953009       3.28763538       8.04206574        9       0.00368191      -0.00703767       0.00086890
O       11.70071222       8.19464212       8.04206574        9       0.00358265      -0.00643142       0.00026548
O       17.58009678       8.19992910       8.04571632        9       0.00392676      -0.00683257      -0.00094669
