80
Lattice="11.758769113478278 0.010573964872500652 0.007301174159401758 6.461133379930928 9.824587437626397 0.007301174159400807 6.461133379930928 3.487740379383526 9.184674119027203" Properties=species:S:1:pos:R:3:spacegroup_kinds:I:1:forces:R:3 spacegroup="P 1" unit_cell=conventional occupancy="_JSON {\"0\": {\"In\": 1}, \"1\": {\"In\": 1}, \"2\": {\"In\": 1}, \"3\": {\"In\": 1}, \"4\": {\"O\": 1}, \"5\": {\"O\": 1}, \"6\": {\"O\": 1}, \"7\": {\"O\": 1}, \"8\": {\"O\": 1}, \"9\": {\"O\": 1}}" n_minim_iter=5 energy=-90301.4338893438 stress="-9.604063478178796e-05 -8.102994574794593e-05 -6.541657884742744e-05 -8.102994574794593e-05 -2.9694468949789544e-05 -1.727671566804994e-05 -6.541657884742744e-05 -1.727671566804994e-05 2.9804638623036755e-05" free_energy=-11287.67927811939 pbc="T T T"
In      10.57788812       5.70997770       3.94265937        0      -0.00106660      -0.00079644      -0.00051228
In      16.45727268       5.71526468       3.94630996        0      -0.00077668      -0.00069969      -0.00071601
In      13.80845481      10.62227142       3.94630996        0      -0.00075938      -0.00060355      -0.00067085
In      19.68783937      10.62755840       3.94996054        0      -0.00088419      -0.00076474      -0.00044699
In      13.80845481       7.45384789       8.53499643        0       0.00920561       0.01433079      -0.00657494
In      19.68783937       7.45913487       8.53864702        0      -0.00249848       0.00043154      -0.00078059
In      17.03902150      12.36614161       8.53864702        0      -0.00090613      -0.00120347       0.00007895
In      22.91840606      12.37142859       8.54229760        0      -0.00058303      -0.00124596      -0.00006919
In       7.93288880       4.28219865       2.95679799        1       0.00088284       0.00120779      -0.00074001
In      13.81227336       4.28748563       2.96044858        1       0.00076880       0.00154308       0.00015239
In      11.16345549       9.19449237       2.96044858        1       0.00034546      -0.00074919       0.00144159
In      17.04284005       9.19977935       2.96409916        1       0.00119177       0.00063931       0.00059135
In      11.16345549       6.02606884       7.54913505        1       0.00618081       0.00495116       0.00354583
In      17.04284005       6.03135582       7.55278564        1      -0.00126932       0.00040405       0.00184021
In      14.39402218      10.93836256       7.55278564        1       0.00087354      -0.00018126       0.00014392
In      20.27340674      10.94364954       7.55643622        1       0.00121699       0.00041052       0.00025492
In       4.40762915       2.37925226       1.64284025        2       0.01555330       0.00101624      -0.01365869
In      10.28701371       2.38453924       1.64649084        2      -0.00187044      -0.00043001      -0.00163811
In       7.63819584       7.29154598       1.64649084        2      -0.00130967      -0.00305866      -0.00086134
In      13.51758040       7.29683296       1.65014142        2      -0.00095690      -0.00073330      -0.00030577
In       7.63819584       4.12312245       6.23517731        2      -0.00101341      -0.00051753      -0.00067141
In      13.51758040       4.12840943       6.23882790        2       0.00033990       0.00008704      -0.00149844
In      10.86876253       9.03541617       6.23882790        2       0.00012085      -0.00152604       0.00154864
In      16.74814709       9.04070315       6.24247848        2      -0.00156695      -0.00054209      -0.00018795
In       1.76262983       0.95147320       0.65697887        3      -0.00029125      -0.00004772       0.00031527
In       7.64201439       0.95676018       0.66062946        3      -0.00118444       0.00639051      -0.00086322
In       4.99319652       5.86376692       0.66062946        3       0.00368798      -0.00196799       0.00008200
In      10.87258108       5.86905390       0.66428004        3       0.00062645       0.00039846       0.00063029
In       4.99319652       2.69534339       5.24931593        3       0.00116457       0.00123722       0.00088464
In      10.87258108       2.70063037       5.25296652        3       0.00068938      -0.00062777      -0.00107956
In       8.22376321       7.60763711       5.25296652        3       0.00066874       0.00040667       0.00014483
In      14.10314777       7.61292409       5.25661710        3       0.00068360       0.00090851       0.00127376
O        6.03063714       2.32178046       0.21771580        4      -0.05260535      -0.04607287       0.01603972
O       11.90420633       2.31822477       0.22135982        4       0.00057444       0.00390762      -0.00644987
O        9.25538846       7.22523151       0.22135982        4       0.00048913       0.00548510      -0.00631475
O       15.13477302       7.23051849       0.22501040        4      -0.00018485       0.00516792      -0.00570095
O        9.25538846       4.05680798       4.81004629        4       0.00020004       0.00430404      -0.00566573
O       15.13477302       4.06209496       4.81369688        4       0.00015729       0.00435174      -0.00563216
O       12.48595515       8.96910170       4.81369688        4       0.00009079       0.00470295      -0.00676358
O       18.36533971       8.97438868       4.81734746        4      -0.00032036       0.00430138      -0.00601078
O        7.10093910       5.12297269       1.15356015        5      -0.00237516       0.01386916       0.00398706
O       12.98032366       5.12825967       1.15721074        5      -0.00375635       0.00628319      -0.00015021
O       10.33150579      10.03526641       1.15721074        5       0.00278454       0.01019869      -0.00102509
O       16.21089035      10.04055339       1.16086132        5      -0.00340313       0.00606016       0.00016815
O       10.33150579       6.86684288       5.74589721        5      -0.00402395       0.00646092      -0.00047100
O       16.21089035       6.87212986       5.74954780        5      -0.00316131       0.00658925      -0.00042656
O       13.56207248      11.77913660       5.74954780        5      -0.00366167       0.00622053       0.00017843
O       19.44145704      11.78442358       5.75319838        5      -0.00439800       0.00741255       0.00110662
O        8.17927112       2.18605327       2.51387776        6       0.00464903      -0.00299641      -0.00520834
O       14.05865568       2.19134025       2.51752835        6       0.00314439      -0.00271312      -0.00632492
O       11.40983781       7.09834699       2.51752835        6       0.00347222      -0.00123669      -0.00676874
O       17.28922237       7.10363397       2.52117893        6       0.00249819      -0.00081134      -0.00548657
O       11.40983781       3.92992346       7.10621482        6       0.00463408       0.00203059      -0.00039404
O       17.28922237       3.93521044       7.10986541        6       0.00347199      -0.00247601      -0.00617671
O       14.64040450       8.84221718       7.10986541        6       0.00309975      -0.00358184      -0.00513415
O       20.51978906       8.84750416       7.11351599        6       0.00250339      -0.00209721      -0.00659299
O        4.16124683       4.47539763       2.08576048        7      -0.00412019       0.00135403       0.00623616
O       10.04063139       4.48068461       2.08941107        7      -0.00228597       0.00238228       0.00650478
O        7.39181352       9.38769135       2.08941107        7      -0.00249732       0.00268356       0.00563800
O       13.27119808       9.39297833       2.09306165        7      -0.00413359       0.00497557       0.00378183
O        7.39181352       6.21926782       6.67809754        7      -0.00315033       0.00221290       0.00653375
O       13.27119808       6.22455480       6.68174813        7      -0.00370345       0.00154707       0.00003487
O       10.62238021      11.13156154       6.68174813        7      -0.00419277       0.00292669       0.00575938
O       16.50176477      11.13684852       6.68539871        7      -0.00315064       0.00348166       0.00628996
O        6.31569618       4.34851311       4.38192901        8       0.00002083      -0.00441209       0.00654484
O       12.19508074       4.35380009       4.38557960        8      -0.00035868      -0.00458702       0.00659155
O        9.54626287       9.26080683       4.38557960        8       0.00016623      -0.00403854       0.00541177
O       15.42564743       9.26609381       4.38923018        8      -0.00044913      -0.00457951       0.00606239
O        9.54626287       6.09238330       8.97426607        8       0.01024425      -0.00533403       0.00778074
O       15.42564743       6.09767028       8.97791666        8       0.01339265      -0.00472449       0.00548453
O       12.77682956      11.00467702       8.97791666        8      -0.00029120      -0.00216946       0.00561153
O       18.65621412      11.00996400       8.98156724        8      -0.00005155      -0.00381721       0.00637704
O        5.23957884       1.53847821       3.44607809        9       0.00303846      -0.00613008      -0.00303189
O       11.11896340       1.54376519       3.44972868        9       0.00382592      -0.00664745       0.00022895
O        8.47014553       6.45077193       3.44972868        9       0.00403625      -0.00604816       0.00102345
O       14.34953009       6.45605891       3.45337926        9       0.00306875      -0.00652413       0.00005007
O        8.47014553       3.28234840       8.03841515        9       0.00464285      -0.00663663       0.00076096
O       14.34953009       3.28763538       8.04206574        9       0.00214173      -0.00553152       0.00089397
O       11.70071222       8.19464212       8.04206574        9      -0.00156462       0.00176234      -0.00666417
O       17.58009678       8.19992910       8.04571632        9       0.00422866      -0.00617355      -0.00034057
