1
Lattice="3.945418987928784 0.6892911027702124 -4.0143099067183335e-10 0.9606998779169639 3.8882526871639267 -8.326444627045632e-10 -2.4530594327757904 -2.288771894534956 2.1875730499171344" Properties=species:S:1:pos:R:3:spacegroup_kinds:I:1:forces:R:3 spacegroup="P 1" unit_cell=conventional occupancy="_JSON {\"0\": {\"In\": 1}}" n_minim_iter=1 energy=-1970.4928199608028 stress="0.033545566621927064 -0.005651756686749882 1.5236673844761106e-12 -0.005651756686749882 0.034329760770292206 1.421648614389546e-12 1.5236673844761106e-12 1.421648614389546e-12 0.03960300514758509" free_energy=-1970.4928199608028 pbc="T T T"
In       0.00000000       0.00000000       0.00000000        0      -0.00000000      -0.00000000       0.00000000
