1
Lattice="3.3878242889455557 0.20330724757344731 -2.679472814040068e-10 0.43729033963755926 3.36562986802545 -6.942178363246139e-10 -1.9125573141461545 -1.784468557372284 2.1625179161202506" Properties=species:S:1:pos:R:3:spacegroup_kinds:I:1:forces:R:3 spacegroup="P 1" unit_cell=conventional occupancy="_JSON {\"0\": {\"In\": 1}}" n_minim_iter=2 energy=-1969.8606956575045 stress="-0.2081512043023163 0.0005907655804804529 -2.2458021351586992e-13 0.0005907655804804529 -0.208233174375674 -2.51547174230737e-13 -2.2458021351586992e-13 -2.51547174230737e-13 -0.20878437490586502" free_energy=-1969.8606956575045 pbc="T T T"
In       0.00000000       0.00000000       0.00000000        0       0.00000000      -0.00000000       0.00000000
