1
Lattice="4.1249983517031 0.7206648194957338 -4.19701293383729e-10 1.0044270139656863 4.065230074328892 -8.705381292055042e-10 -2.564712682680615 -2.3929474464605334 2.287142443615466" Properties=species:S:1:pos:R:3:spacegroup_kinds:I:1:forces:R:3 spacegroup="P 1" unit_cell=conventional occupancy="_JSON {\"0\": {\"In\": 1}}" n_minim_iter=1 energy=-1970.1645112832857 stress="0.08405238644340093 0.011790134419910616 -3.1785308830668825e-12 0.011790134419910616 0.08241647836508433 -2.965634744652256e-12 -3.1785308830668825e-12 -2.965634744652256e-12 0.07141595879506588" free_energy=-1970.1645112832857 pbc="T T T"
In       0.00000000       0.00000000       0.00000000        0      -0.00000000      -0.00000000       0.00000000
1
Lattice="3.7236542219616453 -0.14044530920937603 -2.2262063901508696e-10 0.11760477562720117 3.7244455649615005 -7.435960323609623e-10 -1.9206294986167203 -1.7920001273539967 2.6429611276404033" Properties=species:S:1:pos:R:3:spacegroup_kinds:I:1:forces:R:3 spacegroup="P 1" unit_cell=conventional occupancy="_JSON {\"0\": {\"In\": 1}}" n_minim_iter=2 energy=-1970.3982937612507 stress="0.009627748327503727 -0.0004732155966590865 1.0072777747640462e-13 -0.0004732155966590865 0.009693408072458758 6.225893168458907e-14 1.0072777747640462e-13 6.225893168458907e-14 0.01013493123472956" free_energy=-1970.3982937612507 pbc="T T T"
In       0.00000000       0.00000000       0.00000000        0      -0.00000000       0.00000000      -0.00000000
