1
Lattice="4.096151265600247 0.7156250404881332 -4.16767772069863e-10 0.9974028190241461 4.0368009618824185 -8.644528789562022e-10 -2.5467770421594933 -2.3762130007366555 2.271147917224148" Properties=species:S:1:pos:R:3:spacegroup_kinds:I:1:forces:R:3 spacegroup="P 1" unit_cell=conventional occupancy="_JSON {\"0\": {\"In\": 1}}" n_minim_iter=1 energy=-1970.2269387708052 stress="0.0854380403688201 0.004969900932832901 -1.3808949296226163e-12 0.004969900932832901 0.08474845526354088 -1.272370912422932e-12 -1.3808949296226163e-12 -1.272370912422932e-12 0.08011140105151429" free_energy=-1970.2269387708052 pbc="T T T"
In       0.00000000       0.00000000       0.00000000        0      -0.00000000       0.00000000      -0.00000000
