1
Lattice="3.725043112791699 0.5553706105109999 -3.601599349347635e-10 0.811848342541116 3.677673853931241 -7.810383103469142e-10 -2.2684457275228485 -2.116522231799363 2.1351511259764737" Properties=species:S:1:pos:R:3:spacegroup_kinds:I:1:forces:R:3 spacegroup="P 1" unit_cell=conventional occupancy="_JSON {\"0\": {\"In\": 1}}" n_minim_iter=2 energy=-1970.4864511697065 stress="-0.04530774615475046 1.7194613240887192e-06 -5.1491173244615285e-16 1.7194613240887192e-06 -0.04530798473381713 -4.127175618563006e-16 -5.1491173244615285e-16 -4.127175618563006e-16 -0.0453095890388488" free_energy=-1970.4864511697065 pbc="T T T"
In       0.00000000       0.00000000       0.00000000        0      -0.00000000       0.00000000      -0.00000000
