1
Lattice="4.007076118558701 0.700063016145084 -4.0770385646334155e-10 0.9757132384878174 3.9490164500464213 -8.456558021988851e-10 -2.491394678373877 -2.3245397326568877 2.2217594006479184" Properties=species:S:1:pos:R:3:spacegroup_kinds:I:1:forces:R:3 spacegroup="P 1" unit_cell=conventional occupancy="_JSON {\"0\": {\"In\": 1}}" n_minim_iter=1 energy=-1970.4579614268573 stress="0.05138364385002256 -0.008108192693478322 2.289647372346381e-12 -0.008108192693478322 0.052508674104538654 2.0561660313690086e-12 2.289647372346381e-12 2.0561660313690086e-12 0.0600738408130581" free_energy=-1970.4579614268573 pbc="T T T"
In       0.00000000       0.00000000       0.00000000        0      -0.00000000      -0.00000000      -0.00000000
