1
Lattice="3.7789137411639087 -0.13092587900198996 -2.2821642605903136e-10 0.13092587900198968 3.778913741163909 -7.552507720086288e-10 -1.9549198099031808 -1.8239939305528243 2.673698810095188" Properties=species:S:1:pos:R:3:spacegroup_kinds:I:1:forces:R:3 spacegroup="P 1" unit_cell=conventional occupancy="_JSON {\"0\": {\"In\": 1}}" n_minim_iter=1 energy=-1970.384856462562 stress="0.024906107125037248 3.18269726316846e-14 -5.4177475428754166e-14 3.18269726316846e-14 0.024906107124884204 -5.056298784553072e-14 -5.4177475428754166e-14 -5.056298784553072e-14 0.02490610712492369" free_energy=-1970.384856462562 pbc="T T T"
In       0.00000000       0.00000000       0.00000000        0      -0.00000000       0.00000000      -0.00000000
