1
Lattice="3.945418987928786 0.6892911027702113 -4.014286984620137e-10 0.9606998779169662 3.8882526871639262 -8.326410817210184e-10 -2.453059432775792 -2.2887718945349564 2.187573049917132" Properties=species:S:1:pos:R:3:spacegroup_kinds:I:1:forces:R:3 spacegroup="P 1" unit_cell=conventional occupancy="_JSON {\"0\": {\"In\": 1}}" n_minim_iter=2 energy=-1970.5123636886944 stress="0.015222718440511023 0.0007213606692580909 -1.8954803356049265e-13 0.0007213606692580909 0.015122627999992148 -1.7692962686074309e-13 -1.8954803356049265e-13 -1.7692962686074309e-13 0.014449578662697752" free_energy=-1970.5123636886944 pbc="T T T"
In       0.00000000       0.00000000       0.00000000        0      -0.00000000      -0.00000000      -0.00000000
