1
Lattice="3.6309151761447747 0.4962441583535306 -3.421530115262031e-10 0.7463490936289007 3.5878637531960114 -7.58892984906188e-10 -2.188632134744688 -2.042053955357158 2.114168466142548" Properties=species:S:1:pos:R:3:spacegroup_kinds:I:1:forces:R:3 spacegroup="P 1" unit_cell=conventional occupancy="_JSON {\"0\": {\"In\": 1}}" n_minim_iter=2 energy=-1970.3659689227577 stress="-0.11489782003988755 -0.00013026106664670566 1.6167028885319233e-13 -0.00013026106664670566 -0.11487974601930766 2.863315660478016e-14 1.6167028885319233e-13 2.863315660478016e-14 -0.11475820886218512" free_energy=-1970.3659689227577 pbc="T T T"
In       0.00000000       0.00000000       0.00000000        0       0.00000000      -0.00000000       0.00000000
