10
Lattice="6.001756415947218 -0.020644903538356955 -0.014255015791630842 3.2760356164669324 5.028826595543521 -0.014255015791633536 3.2760356164669306 1.7684144610511752 4.707654450728747" Properties=species:S:1:pos:R:3:spacegroup_kinds:I:1:forces:R:3 spacegroup="P 1" unit_cell=conventional occupancy="_JSON {\"0\": {\"In\": 1}, \"1\": {\"In\": 1}, \"2\": {\"In\": 1}, \"3\": {\"In\": 1}, \"4\": {\"O\": 1}, \"5\": {\"O\": 1}, \"6\": {\"O\": 1}, \"7\": {\"O\": 1}, \"8\": {\"O\": 1}, \"9\": {\"O\": 1}}" n_minim_iter=6 energy=-11287.600438460217 stress="0.02467897753820283 2.57817735121662e-06 1.7801946684158462e-06 2.57817735121662e-06 0.024675593102806273 9.609549428737617e-07 1.7801946684158462e-06 9.609549428737617e-07 0.024674864920368286" free_energy=-11287.600438460217 pbc="T T T"
In      10.75492260       5.80554148       4.00864481        0      -0.00000576      -0.00000311      -0.00000215
In       8.07581889       4.35935276       3.01007182        1       0.00000576       0.00000311       0.00000215
In       4.47800877       2.41724340       1.66907260        2      -0.00000576      -0.00000311      -0.00000215
In       1.79890506       0.97105469       0.67049961        3       0.00000576       0.00000311       0.00000215
O        6.13933513       2.34261110       0.20857038        4      -0.00000000      -0.00000055       0.00000080
O        7.22660580       5.21851385       1.15553109        5       0.00000046      -0.00000085       0.00000000
O        8.32810007       2.20654437       2.56239761        6      -0.00000046       0.00000030       0.00000080
O        4.22572759       4.57005179       2.11674682        7       0.00000046      -0.00000030      -0.00000080
O        6.41449253       4.43398506       4.47057404        8      -0.00000000       0.00000055      -0.00000080
O        5.32722186       1.55808232       3.52361333        9      -0.00000046       0.00000085      -0.00000000
