10
Lattice="6.040769714291228 -0.02823476768122983 -0.019495710329720625 3.291097901282659 5.0656066317250605 -0.019495710329728834 3.291097901282658 1.7765451303731885 4.743905356333063" Properties=species:S:1:pos:R:3:spacegroup_kinds:I:1:forces:R:3 spacegroup="P 1" unit_cell=conventional occupancy="_JSON {\"0\": {\"In\": 1}, \"1\": {\"In\": 1}, \"2\": {\"In\": 1}, \"3\": {\"In\": 1}, \"4\": {\"O\": 1}, \"5\": {\"O\": 1}, \"6\": {\"O\": 1}, \"7\": {\"O\": 1}, \"8\": {\"O\": 1}, \"9\": {\"O\": 1}}" n_minim_iter=4 energy=-11287.350174137606 stress="0.04864031638329257 -3.4910782347813616e-06 -2.4105399982758296e-06 -3.4910782347813616e-06 0.048644899204514085 -1.3012173292451468e-06 -2.4105399982758296e-06 -1.3012173292451468e-06 0.048645885228792526" free_energy=-11287.350174137606 pbc="T T T"
In      10.79518010       5.82727261       4.02364985        0       0.00154384       0.00083337       0.00057543
In       8.13926818       4.39360289       3.03372106        1      -0.00154384      -0.00083337      -0.00057543
In       4.48369734       2.42031411       1.67119288        2       0.00154384       0.00083337       0.00057543
In       1.82778542       0.98664440       0.68126409        3      -0.00154384      -0.00083337      -0.00057543
O        6.17612624       2.35056995       0.20888246        4       0.00000000       0.00020783      -0.00030100
O        7.26890194       5.24619258       1.15673278        5      -0.00017375       0.00032188      -0.00000000
O        8.37444844       2.21481512       2.58083514        6       0.00017375      -0.00011404      -0.00030100
O        4.24851708       4.59910189       2.12407880        7      -0.00017375       0.00011404       0.00030100
O        6.44683929       4.46334706       4.49603148        8       0.00000000      -0.00020783       0.00030100
O        5.35406358       1.56772442       3.54818116        9       0.00017375      -0.00032188       0.00000000
