10
Lattice="6.408276944919718 0.07773610718028623 0.05367568966238134 3.5813493269377106 5.314695974709368 0.05367568966236935 3.5813493269377092 1.9332237744908247 4.9509110495944215" Properties=species:S:1:pos:R:3:spacegroup_kinds:I:1:forces:R:3 spacegroup="P 1" unit_cell=conventional occupancy="_JSON {\"0\": {\"In\": 1}, \"1\": {\"In\": 1}, \"2\": {\"In\": 1}, \"3\": {\"In\": 1}, \"4\": {\"O\": 1}, \"5\": {\"O\": 1}, \"6\": {\"O\": 1}, \"7\": {\"O\": 1}, \"8\": {\"O\": 1}, \"9\": {\"O\": 1}}" n_minim_iter=1 energy=-11285.81488302421 stress="0.11148840266735915 -0.0019086517193866062 -0.001317897192167589 -0.0019086517193866062 0.11399393532067771 -0.0007114051028937405 -0.001317897192167589 -0.0007114051028937405 0.11453301637161684" free_energy=-11285.81488302421 pbc="T T T"
In      11.54837027       6.23384706       4.30438379        0      -0.05543172      -0.02992222      -0.02066087
In       8.80809314       4.75463674       3.28300985        1       0.05543172       0.02992222       0.02066087
In       4.76288247       2.57101913       1.77525258        2      -0.05543172      -0.02992222      -0.02066087
In       2.02260534       1.09180881       0.75387864        3       0.05543172       0.02992222       0.02066087
O        6.59688238       2.56839826       0.28035285        4       0.00000000       0.06543943      -0.09477301
O        7.80392839       5.60881787       1.31824130        5      -0.05470769       0.10134748       0.00000000
O        8.97118569       2.45382228       2.75580838        6       0.05470769      -0.03590805      -0.09477301
O        4.59978992       4.87183359       2.30245405        7      -0.05470769       0.03590805       0.09477301
O        6.97409323       4.75725761       4.77790958        8      -0.00000000      -0.06543943       0.09477301
O        5.76704722       1.71683800       3.74002113        9       0.05470769      -0.10134748      -0.00000000
10
Lattice="6.421534917788225 0.0911299710586915 0.0629239644602189 3.5998216032605423 5.318430200416033 0.06292396446020694 3.5998216032605406 1.9431951680903423 4.951126312336521" Properties=species:S:1:pos:R:3:spacegroup_kinds:I:1:forces:R:3 spacegroup="P 1" unit_cell=conventional occupancy="_JSON {\"0\": {\"In\": 1}, \"1\": {\"In\": 1}, \"2\": {\"In\": 1}, \"3\": {\"In\": 1}, \"4\": {\"O\": 1}, \"5\": {\"O\": 1}, \"6\": {\"O\": 1}, \"7\": {\"O\": 1}, \"8\": {\"O\": 1}, \"9\": {\"O\": 1}}" n_minim_iter=2 energy=-11285.816767741986 stress="0.11261323183636493 0.0003331331383253172 0.0002300237516713369 0.0003331331383253172 0.11217592001962981 0.00012416755469560697 0.0002300237516713369 0.00012416755469560697 0.11208182964125361" free_energy=-11285.816767741986 pbc="T T T"
In      11.59072346       6.25670945       4.32016995        0      -0.05949979      -0.03211818      -0.02217715
In       8.84104373       4.77242357       3.29529141        1       0.05949979       0.03211818       0.02217715
In       4.78013440       2.58033178       1.78168283        2      -0.05949979      -0.03211818      -0.02217715
In       2.03045467       1.09604590       0.75680429        3       0.05949979       0.03211818       0.02217715
O        6.61606200       2.58101346       0.29089551        4      -0.00000000       0.05332067      -0.07722195
O        7.83306026       5.62283016       1.33216753        5      -0.04457635       0.08257889       0.00000000
O        8.99888533       2.47274981       2.76645867        6       0.04457635      -0.02925822      -0.07722195
O        4.62229280       4.88000554       2.31051558        7      -0.04457635       0.02925822       0.07722195
O        7.00511614       4.77174189       4.78607873        8      -0.00000000      -0.05332067       0.07722195
O        5.78811787       1.72992519       3.74480672        9       0.04457635      -0.08257889       0.00000000
10
Lattice="6.418424949071442 0.08799203566080015 0.06075726416215551 3.595491765848749 5.317552104767418 0.06075726416214354 3.5954917658487457 1.940857908063457 4.951072854722736" Properties=species:S:1:pos:R:3:spacegroup_kinds:I:1:forces:R:3 spacegroup="P 1" unit_cell=conventional occupancy="_JSON {\"0\": {\"In\": 1}, \"1\": {\"In\": 1}, \"2\": {\"In\": 1}, \"3\": {\"In\": 1}, \"4\": {\"O\": 1}, \"5\": {\"O\": 1}, \"6\": {\"O\": 1}, \"7\": {\"O\": 1}, \"8\": {\"O\": 1}, \"9\": {\"O\": 1}}" n_minim_iter=3 energy=-11285.82077856874 stress="0.11044121782298112 0.00014132412433235644 9.758232307590395e-05 0.00014132412433235644 0.11025569827206168 5.2675247886278933e-05 9.758232307590395e-05 5.2675247886278933e-05 0.11021578257732073" free_energy=-11285.82077856874 pbc="T T T"
In      11.57580824       6.24865816       4.31461065        0      -0.02709273      -0.01462474      -0.01009818
In       8.83830449       4.77094492       3.29427042        1       0.02709273       0.01462474       0.01009818
In       4.77110400       2.57545714       1.77831696        2      -0.02709273      -0.01462474      -0.01009818
In       2.03360025       1.09774390       0.75797673        3       0.02709273       0.01462474       0.01009818
O        6.61156460       2.58268156       0.28172705        4      -0.00000000       0.01046791      -0.01516020
O        7.82236390       5.62670701       1.32890411        5      -0.00875122       0.01621187      -0.00000000
O        8.99625707       2.46577610       2.75726348        6       0.00875122      -0.00574397      -0.01516020
O        4.61315142       4.88062596       2.31532391        7      -0.00875122       0.00574397       0.01516020
O        6.99784389       4.76372050       4.79086034        8      -0.00000000      -0.01046791       0.01516020
O        5.78704459       1.71969505       3.74368328        9       0.00875122      -0.01621187      -0.00000000
10
Lattice="6.416893050011501 0.0864454825310549 0.05968939095818779 3.5933582532420276 5.31712005700392 0.059689390958175825 3.593358253242025 1.9397062311623892 4.951047188300276" Properties=species:S:1:pos:R:3:spacegroup_kinds:I:1:forces:R:3 spacegroup="P 1" unit_cell=conventional occupancy="_JSON {\"0\": {\"In\": 1}, \"1\": {\"In\": 1}, \"2\": {\"In\": 1}, \"3\": {\"In\": 1}, \"4\": {\"O\": 1}, \"5\": {\"O\": 1}, \"6\": {\"O\": 1}, \"7\": {\"O\": 1}, \"8\": {\"O\": 1}, \"9\": {\"O\": 1}}" n_minim_iter=4 energy=-11285.821103142798 stress="0.10956142872082622 -8.802245070393808e-06 -6.077826237955077e-06 -8.802245070393808e-06 0.10957298363836816 -3.280830966406409e-06 -6.077826237955077e-06 -3.280830966406409e-06 0.10957546975031708" free_energy=-11285.821103142798 pbc="T T T"
In      11.56884122       6.24489734       4.31201386        0      -0.01200086      -0.00647810      -0.00447304
In       8.83657313       4.77001033       3.29362510        1       0.01200086       0.00647810       0.00447304
In       4.76703644       2.57326146       1.77680088        2      -0.01200086      -0.00647810      -0.00447304
In       2.03476835       1.09837444       0.75841211        3       0.01200086       0.00647810       0.00447304
O        6.60934892       2.58288303       0.27810773        4       0.00000000      -0.00489708       0.00709223
O        7.81761234       5.62765672       1.32729589        5       0.00409399      -0.00758422       0.00000000
O        8.99444375       2.46268014       2.75363132        6      -0.00409399       0.00268714       0.00709223
O        4.60916582       4.88059164       2.31679465        7       0.00409399      -0.00268714      -0.00709223
O        6.99426065       4.76038875       4.79231825        8      -0.00000000       0.00489708      -0.00709223
O        5.78599722       1.71561506       3.74313009        9      -0.00409399       0.00758422       0.00000000
10
Lattice="6.4172473827768135 0.08680325643947522 0.059936428814523025 3.593851784142195 5.317219962602858 0.059936428814511056 3.593851784142193 1.939972640714363 4.951053085908195" Properties=species:S:1:pos:R:3:spacegroup_kinds:I:1:forces:R:3 spacegroup="P 1" unit_cell=conventional occupancy="_JSON {\"0\": {\"In\": 1}, \"1\": {\"In\": 1}, \"2\": {\"In\": 1}, \"3\": {\"In\": 1}, \"4\": {\"O\": 1}, \"5\": {\"O\": 1}, \"6\": {\"O\": 1}, \"7\": {\"O\": 1}, \"8\": {\"O\": 1}, \"9\": {\"O\": 1}}" n_minim_iter=5 energy=-11285.821158757199 stress="0.10961961205447274 -6.826104363921905e-06 -4.713329262109767e-06 -6.826104363921905e-06 0.10962857284739035 -2.5442689847791925e-06 -4.713329262109767e-06 -2.5442689847791925e-06 0.10963050081488714" free_energy=-11285.821158757199 pbc="T T T"
In      11.56914075       6.24505903       4.31212550        0      -0.00353043      -0.00190574      -0.00131589
In       8.83828569       4.77093477       3.29426342        1       0.00353043       0.00190574       0.00131589
In       4.76666527       2.57306110       1.77666253        2      -0.00353043      -0.00190574      -0.00131589
In       2.03581021       1.09893684       0.75880044        3       0.00353043       0.00190574       0.00131589
O        6.60986143       2.58283166       0.27895187        4       0.00000000      -0.00021987       0.00031843
O        7.81871545       5.62742963       1.32766792        5       0.00018381      -0.00034052       0.00000000
O        8.99485920       2.46339893       2.75447841        6      -0.00018381       0.00012065       0.00031843
O        4.61009176       4.88059694       2.31644753        7       0.00018381      -0.00012065      -0.00031843
O        6.99508953       4.76116421       4.79197408        8       0.00000000       0.00021987      -0.00031843
O        5.78623551       1.71656624       3.74325803        9      -0.00018381       0.00034052       0.00000000
