10
Lattice="5.0724465862398205 -0.28989552884771586 -0.2001687890654762 2.541008146237287 4.399662644869222 -0.20016878906547264 2.5410081462372895 1.371644291309927 4.185175130253269" Properties=species:S:1:pos:R:3:spacegroup_kinds:I:1:forces:R:3 spacegroup="P 1" unit_cell=conventional occupancy="_JSON {\"0\": {\"In\": 1}, \"1\": {\"In\": 1}, \"2\": {\"In\": 1}, \"3\": {\"In\": 1}, \"4\": {\"O\": 1}, \"5\": {\"O\": 1}, \"6\": {\"O\": 1}, \"7\": {\"O\": 1}, \"8\": {\"O\": 1}, \"9\": {\"O\": 1}}" n_minim_iter=1 energy=-11282.942329460842 stress="-0.555352399637902 0.01318168299872683 0.009101766882324475 0.01318168299872683 -0.5726563094239995 0.004913162753980706 0.009101766882324475 0.004913162753980706 -0.5763793540542966" free_energy=-11282.942329460842 pbc="T T T"
In       8.84459887       4.77434265       3.29661651        0      -0.42933575      -0.23175681      -0.16002482
In       6.38709544       3.44777446       2.38063982        1       0.42933575       0.23175681       0.16002482
In       3.76736743       2.03363694       1.40419773        2      -0.42933575      -0.23175681      -0.16002482
In       1.30986400       0.70706876       0.48822104        3       0.42933575       0.23175681       0.16002482
O        5.07483901       1.87842326      -0.09961210        4      -0.00000000      -0.13232842       0.19164535
O        5.79941663       4.43657992       0.74604060        5       0.11062722      -0.20493992       0.00000000
O        6.89126953       1.55290190       1.99297547        6      -0.11062722       0.07261150       0.19164535
O        3.26319334       3.92850951       1.79186208        7       0.11062722      -0.07261150      -0.19164535
O        5.07962386       3.60298815       3.88444965        8       0.00000000       0.13232842      -0.19164535
O        4.35504623       1.04483149       3.03879695        9      -0.11062722       0.20493992      -0.00000000
10
Lattice="5.034666873186219 -0.33314057370889705 -0.2300288848639591 2.484124519250203 4.3918081172416645 -0.23002888486395548 2.484124519250206 1.3409383282686926 4.1884097490958885" Properties=species:S:1:pos:R:3:spacegroup_kinds:I:1:forces:R:3 spacegroup="P 1" unit_cell=conventional occupancy="_JSON {\"0\": {\"In\": 1}, \"1\": {\"In\": 1}, \"2\": {\"In\": 1}, \"3\": {\"In\": 1}, \"4\": {\"O\": 1}, \"5\": {\"O\": 1}, \"6\": {\"O\": 1}, \"7\": {\"O\": 1}, \"8\": {\"O\": 1}, \"9\": {\"O\": 1}}" n_minim_iter=2 energy=-11282.974146183144 stress="-0.5462220074691799 -0.0020765231422470217 -0.0014338100504580175 -0.0020765231422470217 -0.5434961059954679 -0.0007739752308314795 -0.0014338100504580175 -0.0007739752308314795 -0.542909611211186" free_energy=-11282.974146183144 pbc="T T T"
In       8.70985745       4.70160880       3.24639481        0      -0.14580531      -0.07870617      -0.05434551
In       6.29451641       3.39780001       2.34613316        1       0.14580531       0.07870617       0.05434551
In       3.70839949       2.00180586       1.38221882        2      -0.14580531      -0.07870617      -0.05434551
In       1.29305845       0.69799708       0.48195717        3       0.14580531       0.07870617       0.05434551
O        5.01806241       1.84041271      -0.13454831        4       0.00000000      -0.31092622       0.45030057
O        5.71080124       4.39687175       0.70205911        5       0.25993587      -0.48153823      -0.00000000
O        6.80944810       1.49324536       1.95965656        6      -0.25993587       0.17061201       0.45030057
O        3.19346780       3.90636051       1.76869541        7       0.25993587      -0.17061201      -0.45030057
O        4.98485349       3.55919317       3.86290029        8      -0.00000000       0.31092622      -0.45030057
O        4.29211466       1.00273412       3.02629287        9      -0.25993587       0.48153823       0.00000000
10
Lattice="5.017887609774859 -0.35257248035019634 -0.24344634334316684 2.4586722000280874 4.388443281055527 -0.24344634334316315 2.4586722000280905 1.3271990852783428 4.190017081249777" Properties=species:S:1:pos:R:3:spacegroup_kinds:I:1:forces:R:3 spacegroup="P 1" unit_cell=conventional occupancy="_JSON {\"0\": {\"In\": 1}, \"1\": {\"In\": 1}, \"2\": {\"In\": 1}, \"3\": {\"In\": 1}, \"4\": {\"O\": 1}, \"5\": {\"O\": 1}, \"6\": {\"O\": 1}, \"7\": {\"O\": 1}, \"8\": {\"O\": 1}, \"9\": {\"O\": 1}}" n_minim_iter=3 energy=-11283.017626709165 stress="-0.5067622492623901 -0.0003437589028954672 -0.00023736069138491085 -0.0003437589028954672 -0.5063109887518266 -0.00012812805623387962 -0.00023736069138491085 -0.00012812805623387962 -0.5062138972229889" free_energy=-11283.017626709165 pbc="T T T"
In       8.64152371       4.66472203       3.22092501        0      -0.24342579      -0.13140202      -0.09073125
In       6.26132429       3.37988280       2.33376158        1       0.24342579       0.13140202       0.09073125
In       3.67390771       1.98318709       1.36936281        2      -0.24342579      -0.13140202      -0.09073125
In       1.29370828       0.69834786       0.48219938        3       0.24342579       0.13140202       0.09073125
O        4.99275180       1.81005586      -0.13089901        4       0.00000000       0.02571747      -0.03724546
O        5.68238429       4.35851840       0.68233475        5      -0.02149993       0.03982921      -0.00000000
O        6.76179151       1.47383987       1.96410953        6       0.02149993      -0.01411174      -0.03724546
O        3.17344049       3.88923001       1.73901486        7      -0.02149993       0.01411174       0.03724546
O        4.94248020       3.55301403       3.83402340        8      -0.00000000      -0.02571747       0.03724546
O        4.25284770       1.00455148       3.02078964        9       0.02149993      -0.03982921      -0.00000000
10
Lattice="5.020350403840555 -0.3497114175025426 -0.24147081965043704 2.462415451738398 4.3889322614861195 -0.24147081965043327 2.4624154517384005 1.329219704475093 4.1897744008349" Properties=species:S:1:pos:R:3:spacegroup_kinds:I:1:forces:R:3 spacegroup="P 1" unit_cell=conventional occupancy="_JSON {\"0\": {\"In\": 1}, \"1\": {\"In\": 1}, \"2\": {\"In\": 1}, \"3\": {\"In\": 1}, \"4\": {\"O\": 1}, \"5\": {\"O\": 1}, \"6\": {\"O\": 1}, \"7\": {\"O\": 1}, \"8\": {\"O\": 1}, \"9\": {\"O\": 1}}" n_minim_iter=4 energy=-11283.024823277703 stress="-0.4962939371303186 -0.0029182029619344496 -0.0020149781377294873 -0.0029182029619344496 -0.4924631424772382 -0.0010876916172650945 -0.0020149781377294873 -0.0010876916172650945 -0.4916389229974108" free_energy=-11283.024823277703 pbc="T T T"
In       8.63817285       4.66291322       3.21967606        0       0.00395309       0.00213389       0.00147342
In       6.27959910       3.38974760       2.34057308        1      -0.00395309      -0.00213389      -0.00147342
In       3.66558219       1.97869295       1.36625967        2       0.00395309       0.00213389       0.00147342
In       1.30700845       0.70552733       0.48715670        3      -0.00395309      -0.00213389      -0.00147342
O        4.99647052       1.80911509      -0.12360538        4      -0.00000000       0.03531291      -0.05114211
O        5.69107954       4.35578418       0.68523737        5      -0.02952177       0.05468987       0.00000000
O        6.76427696       1.47966132       1.97128182        6       0.02952177      -0.01937696      -0.05114211
O        3.18090434       3.88877923       1.73555094        7      -0.02952177       0.01937696       0.05114211
O        4.94871077       3.55932546       3.83043814        8      -0.00000000      -0.03531291       0.05114211
O        4.25410176       1.01265637       3.02159539        9       0.02952177      -0.05468987      -0.00000000
10
Lattice="5.036988277433756 -0.33046329895942206 -0.22818026427043656 2.487636539512144 4.392279743623835 -0.22818026427043286 2.4876365395121462 1.3428341279930613 4.188195802961926" Properties=species:S:1:pos:R:3:spacegroup_kinds:I:1:forces:R:3 spacegroup="P 1" unit_cell=conventional occupancy="_JSON {\"0\": {\"In\": 1}, \"1\": {\"In\": 1}, \"2\": {\"In\": 1}, \"3\": {\"In\": 1}, \"4\": {\"O\": 1}, \"5\": {\"O\": 1}, \"6\": {\"O\": 1}, \"7\": {\"O\": 1}, \"8\": {\"O\": 1}, \"9\": {\"O\": 1}}" n_minim_iter=5 energy=-11283.02914367953 stress="-0.5060034228593179 7.228196029211619e-05 4.990967809092463e-05 7.228196029211619e-05 -0.5060983091097099 2.694140212876869e-05 4.990967809092463e-05 2.694140212876869e-05 -0.5061187244813953" free_energy=-11283.02914367953 pbc="T T T"
In       8.69472409       4.69343976       3.24075420        0      -0.01896987      -0.01024000      -0.00707058
In       6.32366793       3.41353610       2.35699871        1       0.01896987       0.01024000       0.00707058
In       3.68859341       1.99111448       1.37483657        2      -0.01896987      -0.01024000      -0.00707058
In       1.31753725       0.71121081       0.49108107        3       0.01896987       0.01024000       0.00707058
O        5.02155947       1.82832782      -0.11148598        4       0.00000000      -0.00036315       0.00052594
O        5.72833079       4.37696486       0.70477855        5       0.00030360      -0.00056242      -0.00000000
O        6.80242469       1.50485089       1.98261192        6      -0.00030360       0.00019927       0.00052594
O        3.20983666       3.89979969       1.74922335        7       0.00030360      -0.00019927      -0.00052594
O        4.99070187       3.57632276       3.84332125        8      -0.00000000       0.00036315      -0.00052594
O        4.28393055       1.02768571       3.02705672        9      -0.00030360       0.00056242       0.00000000
10
Lattice="5.037938742645719 -0.32936789928296806 -0.22742390618637073 2.4890738401283636 4.392473267547275 -0.22742390618636701 2.489073840128366 1.3436099874439849 4.188108790476111" Properties=species:S:1:pos:R:3:spacegroup_kinds:I:1:forces:R:3 spacegroup="P 1" unit_cell=conventional occupancy="_JSON {\"0\": {\"In\": 1}, \"1\": {\"In\": 1}, \"2\": {\"In\": 1}, \"3\": {\"In\": 1}, \"4\": {\"O\": 1}, \"5\": {\"O\": 1}, \"6\": {\"O\": 1}, \"7\": {\"O\": 1}, \"8\": {\"O\": 1}, \"9\": {\"O\": 1}}" n_minim_iter=6 energy=-11283.029192552178 stress="-0.5051230460757421 7.649706600278949e-05 5.282014808189077e-05 7.649706600278949e-05 -0.5052234655991165 2.8512483748128676e-05 5.282014808189077e-05 2.8512483748128676e-05 -0.505245071489928" free_energy=-11283.029192552178 pbc="T T T"
In       8.69697560       4.69465514       3.24159340        0       0.00124886       0.00067414       0.00046548
In       6.32715402       3.41541790       2.35829806        1      -0.00124886      -0.00067414      -0.00046548
In       3.68893239       1.99129746       1.37496291        2       0.00124886       0.00067414       0.00046548
In       1.31911081       0.71206022       0.49166757        3      -0.00124886      -0.00067414      -0.00046548
O        5.02299097       1.82908624      -0.11030897        4       0.00000000      -0.00071948       0.00104200
O        5.73073632       4.37765243       0.70589134        5       0.00060149      -0.00111428       0.00000000
O        6.80431946       1.50647033       1.98374542        6      -0.00060149       0.00039480       0.00104200
O        3.21176695       3.90024502       1.74951555        7       0.00060149      -0.00039480      -0.00104200
O        4.99309544       3.57762912       3.84356995        8      -0.00000000       0.00071948      -0.00104200
O        4.28535009       1.02906293       3.02736964        9      -0.00060149       0.00111428       0.00000000
