10
Lattice="5.961820454044982 -0.01327577305928271 -0.009166734746642695 3.2602825115570213 4.991396329410727 -0.009166734746642681 3.2602825115570235 1.7599108848418352 4.670849497007592" Properties=species:S:1:pos:R:3:spacegroup_kinds:I:1:forces:R:3 spacegroup="P 1" unit_cell=conventional occupancy="_JSON {\"0\": {\"In\": 1}, \"1\": {\"In\": 1}, \"2\": {\"In\": 1}, \"3\": {\"In\": 1}, \"4\": {\"O\": 1}, \"5\": {\"O\": 1}, \"6\": {\"O\": 1}, \"7\": {\"O\": 1}, \"8\": {\"O\": 1}, \"9\": {\"O\": 1}}" n_minim_iter=3 energy=-11287.662336762676 stress="0.012890598433536949 5.675030106949634e-06 3.9185292689862535e-06 5.675030106949634e-06 0.012883148686108379 2.1152342247028427e-06 3.9185292689862535e-06 2.1152342247028427e-06 0.01288154582515066" free_energy=-11287.662336762676 pbc="T T T"
In      10.70046002       5.77614241       3.98834516        0      -0.00057980      -0.00031298      -0.00021611
In       8.02311821       4.33090477       2.99042888        1       0.00057980       0.00031298       0.00021611
In       4.45926728       2.40712668       1.66208715        2      -0.00057980      -0.00031298      -0.00021611
In       1.78192547       0.96188905       0.66417087        3       0.00057980       0.00031298       0.00021611
O        6.10150660       2.33374084       0.20867714        4       0.00000000      -0.00009670       0.00014004
O        7.18333655       5.18932967       1.15396227        5       0.00008084      -0.00014976       0.00000000
O        8.27995916       2.19793476       2.54410188        6      -0.00008084       0.00005306       0.00014004
O        4.20242632       4.54009670       2.10841415        7       0.00008084      -0.00005306      -0.00014004
O        6.38087889       4.40429062       4.44383890        8      -0.00000000       0.00009670      -0.00014004
O        5.29904894       1.54870179       3.49855376        9      -0.00008084       0.00014976      -0.00000000
