10
Lattice="5.7984575658309145 0.02039578315468217 0.014083001667333245 3.1987913148639606 4.836347821927514 0.014083001667333624 3.198791314863962 1.726717740996644 4.5176215455177795" Properties=species:S:1:pos:R:3:spacegroup_kinds:I:1:forces:R:3 spacegroup="P 1" unit_cell=conventional occupancy="_JSON {\"0\": {\"In\": 1}, \"1\": {\"In\": 1}, \"2\": {\"In\": 1}, \"3\": {\"In\": 1}, \"4\": {\"O\": 1}, \"5\": {\"O\": 1}, \"6\": {\"O\": 1}, \"7\": {\"O\": 1}, \"8\": {\"O\": 1}, \"9\": {\"O\": 1}}" n_minim_iter=5 energy=-11287.660539996885 stress="-0.015044559550514038 -0.00016489815740893131 -0.00011385986183173064 -0.00016489815740893131 -0.014828093806743414 -6.146191604319432e-05 -0.00011385986183173064 -6.146191604319432e-05 -0.014781519844413204" free_energy=-11287.660539996885 pbc="T T T"
In      10.45148150       5.64174301       3.89554427        0      -0.00193261      -0.00104323      -0.00072034
In       7.84257881       4.23344902       2.92313706        1       0.00193261       0.00104323       0.00072034
In       4.35346140       2.35001233       1.62265049        2      -0.00193261      -0.00104323      -0.00072034
In       1.74455871       0.94171835       0.65024329        3       0.00193261       0.00104323       0.00072034
O        5.94823884       2.29172258       0.22289132        4      -0.00000000       0.00057620      -0.00083449
O        7.01622011       5.05869666       1.15052989        5      -0.00048171       0.00089238      -0.00000000
O        8.07904887       2.17062194       2.48170209        6       0.00048171      -0.00031617      -0.00083449
O        4.11699133       4.41283942       2.06408547        7      -0.00048171       0.00031617       0.00083449
O        6.24780137       4.29173878       4.32289624        8      -0.00000000      -0.00057620       0.00083449
O        5.17982009       1.52476470       3.39525766        9       0.00048171      -0.00089238      -0.00000000
