10
Lattice="6.293734921457599 0.04832033418041792 0.033364511755589854 3.49390588351644 5.235079349293514 0.03336451175557609 3.493905883516442 1.8860215251950665 4.883655576568126" Properties=species:S:1:pos:R:3:spacegroup_kinds:I:1:forces:R:3 spacegroup="P 1" unit_cell=conventional occupancy="_JSON {\"0\": {\"In\": 1}, \"1\": {\"In\": 1}, \"2\": {\"In\": 1}, \"3\": {\"In\": 1}, \"4\": {\"O\": 1}, \"5\": {\"O\": 1}, \"6\": {\"O\": 1}, \"7\": {\"O\": 1}, \"8\": {\"O\": 1}, \"9\": {\"O\": 1}}" n_minim_iter=1 energy=-11286.455993719741 stress="0.08598032276958235 -0.002488243074986832 -0.001718096879930966 -0.002488243074986832 0.08924669882344188 -0.0009274341677142086 -0.001718096879930966 -0.0009274341677142086 0.08994948009853844" free_energy=-11286.455993719741 pbc="T T T"
In      11.31891281       6.10998520       4.21885892        0      -0.06606428      -0.03566171      -0.02462391
In       8.60340723       4.64414663       3.20671799        1       0.06606428       0.03566171       0.02462391
In       4.67813947       2.52527459       1.74366662        2      -0.06606428      -0.03566171      -0.02462391
In       1.96263388       1.05943603       0.73152569        3       0.06606428       0.03566171       0.02462391
O        6.46725414       2.49808877       0.26718621        4      -0.00000000       0.04921072      -0.07126969
O        7.64440841       5.48962260       1.27096066        5      -0.04114041       0.07621372       0.00000000
O        8.78400575       2.38553208       2.70901400        6       0.04114041      -0.02700300      -0.07126969
O        4.49754095       4.78388914       2.24137061        7      -0.04114041       0.02700300       0.07126969
O        6.81429256       4.67133245       4.68319839        8       0.00000000      -0.04921072       0.07126969
O        5.63713829       1.67979862       3.67942394        9       0.04114041      -0.07621372      -0.00000000
10
Lattice="6.311978313005858 0.06686860010318212 0.046171828735543645 3.5194228737862026 5.240153076867751 0.04617182873552994 3.5194228737862034 1.8997956778229352 4.883862456017838" Properties=species:S:1:pos:R:3:spacegroup_kinds:I:1:forces:R:3 spacegroup="P 1" unit_cell=conventional occupancy="_JSON {\"0\": {\"In\": 1}, \"1\": {\"In\": 1}, \"2\": {\"In\": 1}, \"3\": {\"In\": 1}, \"4\": {\"O\": 1}, \"5\": {\"O\": 1}, \"6\": {\"O\": 1}, \"7\": {\"O\": 1}, \"8\": {\"O\": 1}, \"9\": {\"O\": 1}}" n_minim_iter=2 energy=-11286.459086751587 stress="0.08682625987371885 0.00013791370021238838 9.522747136845916e-05 0.00013791370021238838 0.0866452172683838 5.1404092507365244e-05 9.522747136845916e-05 5.1404092507365244e-05 0.08660626481659621" free_energy=-11286.459086751587 pbc="T T T"
In      11.37745954       6.14158891       4.24068084        0      -0.06898540      -0.03723854      -0.02571269
In       8.64877656       4.66863714       3.22362834        1       0.06898540       0.03723854       0.02571269
In       4.70204751       2.53818023       1.75257778        2      -0.06898540      -0.03723854      -0.02571269
In       1.97336453       1.06522846       0.73552528        3       0.06898540       0.03723854       0.02571269
O        6.49369518       2.51530599       0.28208142        4      -0.00000000       0.03771202      -0.05461663
O        7.68478333       5.50860520       1.29022336        5      -0.03152743       0.05840542       0.00000000
O        8.82202990       2.41181380       2.72401265        6       0.03152743      -0.02069341      -0.05461663
O        4.52879417       4.79500356       2.25219347        7      -0.03152743       0.02069341       0.05461663
O        6.85712889       4.69151138       4.69412469        8       0.00000000      -0.03771202       0.05461663
O        5.66604075       1.69821216       3.68598276        9       0.03152743      -0.05840542       0.00000000
10
Lattice="6.312609162599951 0.06750846007373212 0.046613643053913946 3.520303960865366 5.2403293651294565 0.04661364305390031 3.5203039608653666 1.9002712914348279 4.883870770782682" Properties=species:S:1:pos:R:3:spacegroup_kinds:I:1:forces:R:3 spacegroup="P 1" unit_cell=conventional occupancy="_JSON {\"0\": {\"In\": 1}, \"1\": {\"In\": 1}, \"2\": {\"In\": 1}, \"3\": {\"In\": 1}, \"4\": {\"O\": 1}, \"5\": {\"O\": 1}, \"6\": {\"O\": 1}, \"7\": {\"O\": 1}, \"8\": {\"O\": 1}, \"9\": {\"O\": 1}}" n_minim_iter=3 energy=-11286.461844576026 stress="0.08549929270892541 0.00036969827069507916 0.00025527146128344515 0.00036969827069507916 0.0850139809669846 0.00013779634836773657 0.00025527146128344515 0.00013779634836773657 0.08490956310509279" free_energy=-11286.461844576026 pbc="T T T"
In      11.37410645       6.13977890       4.23943105        0      -0.02806953      -0.01515202      -0.01046226
In       8.65571918       4.67238479       3.22621604        1       0.02806953       0.01515202       0.01046226
In       4.69749791       2.53572434       1.75088202        2      -0.02806953      -0.01515202      -0.01046226
In       1.97911064       1.06833023       0.73766701        3       0.02806953       0.01515202       0.01046226
O        6.49460886       2.51884689       0.27832823        4      -0.00000000       0.00843837      -0.01222091
O        7.68371478       5.51382446       1.29088816        5      -0.00705452       0.01306869      -0.00000000
O        8.82580690       2.41110427       2.72026361        6       0.00705452      -0.00463032      -0.01222091
O        4.52741020       4.79700486       2.25683445        7      -0.00705452       0.00463032       0.01222091
O        6.85860824       4.68926224       4.69876984        8       0.00000000      -0.00843837       0.01222091
O        5.66950231       1.69428467       3.68620990        9       0.00705452      -0.01306869      -0.00000000
10
Lattice="6.309674616920127 0.06453113550117047 0.04455784227384189 3.5162046533569233 5.239509793345786 0.044557842273828266 3.5162046533569233 1.8980584721840879 4.8838327481645685" Properties=species:S:1:pos:R:3:spacegroup_kinds:I:1:forces:R:3 spacegroup="P 1" unit_cell=conventional occupancy="_JSON {\"0\": {\"In\": 1}, \"1\": {\"In\": 1}, \"2\": {\"In\": 1}, \"3\": {\"In\": 1}, \"4\": {\"O\": 1}, \"5\": {\"O\": 1}, \"6\": {\"O\": 1}, \"7\": {\"O\": 1}, \"8\": {\"O\": 1}, \"9\": {\"O\": 1}}" n_minim_iter=4 energy=-11286.46222908397 stress="0.08463016343087937 -6.562151300936353e-06 -4.531073359887493e-06 -6.562151300936353e-06 0.08463877772787386 -2.4458871164829392e-06 -4.531073359887493e-06 -2.4458871164829392e-06 0.08464063114624745" free_energy=-11286.46222908397 pbc="T T T"
In      11.36189883       6.13318918       4.23488095        0      -0.00535122      -0.00288861      -0.00199454
In       8.65122707       4.66995993       3.22454171        1       0.00535122       0.00288861       0.00199454
In       4.69085687       2.53213948       1.74840673        2      -0.00535122      -0.00288861      -0.00199454
In       1.98018511       1.06891023       0.73806749        3       0.00535122       0.00288861       0.00199454
O        6.49035829       2.51751150       0.27386504        4       0.00000000      -0.00384108       0.00556286
O        7.67603039       5.51298781       1.28779495        5       0.00321116      -0.00594876       0.00000000
O        8.82089086       2.40609825       2.71578141        6      -0.00321116       0.00210768       0.00556286
O        4.52119308       4.79600117       2.25716703        7       0.00321116      -0.00210768      -0.00556286
O        6.85172564       4.68458791       4.69908340        8       0.00000000       0.00384108      -0.00556286
O        5.66605355       1.68911160       3.68515348        9      -0.00321116       0.00594876       0.00000000
