10
Lattice="5.832038451286876 0.0032534617587129944 0.0022464696268380546 3.2028868141643665 4.873827975827017 0.0022464696268384987 3.202886814164367 1.728928504564554 4.5568640983338575" Properties=species:S:1:pos:R:3:spacegroup_kinds:I:1:forces:R:3 spacegroup="P 1" unit_cell=conventional occupancy="_JSON {\"0\": {\"In\": 1}, \"1\": {\"In\": 1}, \"2\": {\"In\": 1}, \"3\": {\"In\": 1}, \"4\": {\"O\": 1}, \"5\": {\"O\": 1}, \"6\": {\"O\": 1}, \"7\": {\"O\": 1}, \"8\": {\"O\": 1}, \"9\": {\"O\": 1}}" n_minim_iter=1 energy=-11287.657624390855 stress="-0.018363718746341007 -0.0020821912370972474 -0.0014377237906276596 -0.0020821912370972474 -0.01563037662798276 -0.0007760878812725456 -0.0014377237906276596 -0.0007760878812725456 -0.015042280943003795" free_energy=-11287.657624390855 pbc="T T T"
In      10.48981483       5.66243546       3.90983212        0       0.00555412       0.00299813       0.00207017
In       7.86690329       4.24657946       2.93220344        1      -0.00555412      -0.00299813      -0.00207017
In       4.37090879       2.35943049       1.62915360        2       0.00555412       0.00299813       0.00207017
In       1.74799725       0.94357449       0.65152492        3      -0.00555412      -0.00299813      -0.00207017
O        5.97547225       2.29363430       0.21384755        4      -0.00000000       0.04042657      -0.05854800
O        7.04145022       5.08200742       1.14258573        5      -0.03379681       0.06260951      -0.00000000
O        8.11238110       2.16613434       2.49227960        6       0.03379681      -0.02218294      -0.05854800
O        4.12543099       4.43987561       2.06907744        7      -0.03379681       0.02218294       0.05854800
O        6.26233984       4.31237565       4.34750949        8      -0.00000000      -0.04042657       0.05854800
O        5.19636187       1.52400253       3.41877131        9       0.03379681      -0.06260951       0.00000000
10
Lattice="5.853925942781285 0.02574445858561194 0.017776186892952423 3.233699544375607 4.8797847265448695 0.01777618689295286 3.2336995443756065 1.745561314481557 4.556932155258235" Properties=species:S:1:pos:R:3:spacegroup_kinds:I:1:forces:R:3 spacegroup="P 1" unit_cell=conventional occupancy="_JSON {\"0\": {\"In\": 1}, \"1\": {\"In\": 1}, \"2\": {\"In\": 1}, \"3\": {\"In\": 1}, \"4\": {\"O\": 1}, \"5\": {\"O\": 1}, \"6\": {\"O\": 1}, \"7\": {\"O\": 1}, \"8\": {\"O\": 1}, \"9\": {\"O\": 1}}" n_minim_iter=2 energy=-11287.659279829124 stress="-0.014046979973131967 0.0009957937594457838 0.0006875815969228406 0.0009957937594457838 -0.01535418220026952 0.0003711587356064374 0.0006875815969228406 0.0003711587356064374 -0.01563543495201307" free_energy=-11287.659279829124 pbc="T T T"
In      10.56147904       5.70112003       3.93654327        0      -0.06594277      -0.03559612      -0.02457862
In       7.92050852       4.27551573       2.95218353        1       0.06594277       0.03559612       0.02457862
In       4.40081652       2.37557478       1.64030100        2      -0.06594277      -0.03559612      -0.02457862
In       1.75984600       0.94997048       0.65594127        3       0.06594277       0.03559612       0.02457862
O        6.00729423       2.31455117       0.23170972        4      -0.00000000       0.03096119      -0.04483971
O        7.09001515       5.10502538       1.16589732        5      -0.02588371       0.04795027       0.00000000
O        8.15827286       2.19784367       2.51017580        6       0.02588371      -0.01698908      -0.04483971
O        4.16305218       4.45324684       2.08230874        7      -0.02588371       0.01698908       0.04483971
O        6.31403081       4.33653934       4.36077481        8      -0.00000000      -0.03096119       0.04483971
O        5.23130989       1.54606513       3.42658721        9       0.02588371      -0.04795027       0.00000000
10
Lattice="5.848392377629731 0.0200713720282254 0.013859000343130933 3.2259204276460496 4.878271585017433 0.013859000343131356 3.2259204276460496 1.7413621224918223 4.556905055784" Properties=species:S:1:pos:R:3:spacegroup_kinds:I:1:forces:R:3 spacegroup="P 1" unit_cell=conventional occupancy="_JSON {\"0\": {\"In\": 1}, \"1\": {\"In\": 1}, \"2\": {\"In\": 1}, \"3\": {\"In\": 1}, \"4\": {\"O\": 1}, \"5\": {\"O\": 1}, \"6\": {\"O\": 1}, \"7\": {\"O\": 1}, \"8\": {\"O\": 1}, \"9\": {\"O\": 1}}" n_minim_iter=3 energy=-11287.659994203586 stress="-0.015143704010004986 9.914014260333599e-05 6.845487613199659e-05 9.914014260333599e-05 -0.015273847640911203 3.695215904854663e-05 6.845487613199659e-05 3.695215904854663e-05 -0.015301848859783067" free_energy=-11287.659994203586 pbc="T T T"
In      10.54271744       5.69099246       3.92955032        0      -0.03604646      -0.01945799      -0.01343547
In       7.90763242       4.26856517       2.94738427        1       0.03604646       0.01945799       0.01343547
In       4.39260082       2.37113992       1.63723879        2      -0.03604646      -0.01945799      -0.01343547
In       1.75751580       0.94871263       0.65507274        3       0.03604646       0.01945799       0.01343547
O        5.99925450       2.30978822       0.22645344        4       0.00000000       0.02476382      -0.03586434
O        7.07731678       5.10001065       1.16001477        5      -0.02070268       0.03835228       0.00000000
O        8.14711265       2.18955638       2.50490597        6       0.02070268      -0.01358845      -0.03586434
O        4.15312059       4.45014871       2.07971709        7      -0.02070268       0.01358845       0.03586434
O        6.30097874       4.32991687       4.35816962        8       0.00000000      -0.02476382       0.03586434
O        5.22291647       1.53969444       3.42460829        9       0.02070268      -0.03835228       0.00000000
10
Lattice="5.84724479579745 0.018893755777882087 0.013045872870099565 3.2243062313684154 4.877958384646844 0.013045872870099949 3.2243062313684163 1.740490774199394 4.556900269050464" Properties=species:S:1:pos:R:3:spacegroup_kinds:I:1:forces:R:3 spacegroup="P 1" unit_cell=conventional occupancy="_JSON {\"0\": {\"In\": 1}, \"1\": {\"In\": 1}, \"2\": {\"In\": 1}, \"3\": {\"In\": 1}, \"4\": {\"O\": 1}, \"5\": {\"O\": 1}, \"6\": {\"O\": 1}, \"7\": {\"O\": 1}, \"8\": {\"O\": 1}, \"9\": {\"O\": 1}}" n_minim_iter=4 energy=-11287.660383908897 stress="-0.015366153312818029 -0.00024027892476041193 -0.0001659092209054312 -0.00024027892476041193 -0.015050733433913097 -8.955832619035622e-05 -0.0001659092209054312 -8.955832619035622e-05 -0.01498286887059705" free_energy=-11287.660383908897 pbc="T T T"
In      10.53793755       5.68841226       3.92776873        0      -0.01334898      -0.00720582      -0.00497552
In       7.90584835       4.26760212       2.94671930        1       0.01334898       0.00720582       0.00497552
In       4.39000892       2.36974080       1.63627272        2      -0.01334898      -0.00720582      -0.00497552
In       1.75791972       0.94893067       0.65522329        3       0.01334898       0.00720582       0.00497552
O        5.99758672       2.30945680       0.22441109        4      -0.00000000       0.01227898      -0.01778309
O        7.07413302       5.09998792       1.15879388        5      -0.01026528       0.01901672       0.00000000
O        8.14534665       2.18747608       2.50286123        6       0.01026528      -0.00673774      -0.01778309
O        4.15051062       4.44986685       2.08013079        7      -0.01026528       0.00673774       0.01778309
O        6.29827055       4.32788613       4.35858093        8      -0.00000000      -0.01227898       0.01778309
O        5.22172425       1.53735501       3.42419814        9       0.01026528      -0.01901672       0.00000000
10
Lattice="5.848881466923145 0.02057314669331538 0.01420546869845199 3.2266082877475544 4.878405131384697 0.014205468698452371 3.2266082877475557 1.7417334315656823 4.556907183016564" Properties=species:S:1:pos:R:3:spacegroup_kinds:I:1:forces:R:3 spacegroup="P 1" unit_cell=conventional occupancy="_JSON {\"0\": {\"In\": 1}, \"1\": {\"In\": 1}, \"2\": {\"In\": 1}, \"3\": {\"In\": 1}, \"4\": {\"O\": 1}, \"5\": {\"O\": 1}, \"6\": {\"O\": 1}, \"7\": {\"O\": 1}, \"8\": {\"O\": 1}, \"9\": {\"O\": 1}}" n_minim_iter=5 energy=-11287.660539996885 stress="-0.015044559550514038 -0.00016489815740893131 -0.00011385986183173064 -0.00016489815740893131 -0.014828093806743414 -6.146191604319432e-05 -0.00011385986183173064 -6.146191604319432e-05 -0.014781519844413204" free_energy=-11287.660539996885 pbc="T T T"
In      10.54236851       5.69080410       3.92942026        0      -0.00193261      -0.00104323      -0.00072034
In       7.91077857       4.27026347       2.94855692        1       0.00193261       0.00104323       0.00072034
In       4.39131948       2.37044825       1.63676120        2      -0.00193261      -0.00104323      -0.00072034
In       1.75972955       0.94990762       0.65589786        3       0.00193261       0.00104323       0.00072034
O        5.99996525       2.31165160       0.22482960        4      -0.00000000       0.00057620      -0.00083449
O        7.07723379       5.10268753       1.16053500        5      -0.00048171       0.00089238      -0.00000000
O        8.14930500       2.18949786       2.50328319        6       0.00048171      -0.00031617      -0.00083449
O        4.15279305       4.45121386       2.08203494        7      -0.00048171       0.00031617       0.00083449
O        6.30213280       4.32906012       4.36048853        8      -0.00000000      -0.00057620       0.00083449
O        5.22486427       1.53802419       3.42478312        9       0.00048171      -0.00089238      -0.00000000
