10
Lattice="5.741605657553311 0.014532177311925706 0.01003426422813574 3.1626934270971656 4.792036831788959 0.010034264228135817 3.162693427097165 1.7072319861961411 4.477619527046634" Properties=species:S:1:pos:R:3:spacegroup_kinds:I:1:forces:R:3 spacegroup="P 1" unit_cell=conventional occupancy="_JSON {\"0\": {\"In\": 1}, \"1\": {\"In\": 1}, \"2\": {\"In\": 1}, \"3\": {\"In\": 1}, \"4\": {\"O\": 1}, \"5\": {\"O\": 1}, \"6\": {\"O\": 1}, \"7\": {\"O\": 1}, \"8\": {\"O\": 1}, \"9\": {\"O\": 1}}" n_minim_iter=4 energy=-11287.421684977135 stress="-0.0607161030829756 -5.1079718960862e-05 -3.526982831206706e-05 -5.1079718960862e-05 -0.06064904951514356 -1.903876459422361e-05 -3.526982831206706e-05 -1.903876459422361e-05 -0.06063462252221432" free_energy=-11287.421684977135 pbc="T T T"
In      10.35187168       5.58797331       3.85841705        0       0.00208253       0.00112416       0.00077622
In       7.74861709       4.18272819       2.88811504        1      -0.00208253      -0.00112416      -0.00077622
In       4.31837543       2.33107281       1.60957302        2       0.00208253       0.00112416       0.00077622
In       1.71512084       0.92582769       0.63927101        3      -0.00208253      -0.00112416      -0.00077622
O        5.88755096       2.27557768       0.20275652        4       0.00000000       0.00072008      -0.00104286
O        6.93397041       5.02270198       1.13445628        5      -0.00060199       0.00111520       0.00000000
O        8.00382494       2.13822644       2.44156628        6       0.00060199      -0.00039512      -0.00104286
O        4.06316758       4.37557456       2.05612178        7      -0.00060199       0.00039512       0.00104286
O        6.17944156       4.23822333       4.29493154        8       0.00000000      -0.00072008       0.00104286
O        5.13302211       1.49109902       3.36323178        9       0.00060199      -0.00111520       0.00000000
