10
Lattice="5.644742355724949 -0.031793183879590736 -0.021952746711926194 3.070814184410285 4.7364783662422605 -0.02195274671192502 3.0708141844102834 1.6576352783272785 4.43699836838082" Properties=species:S:1:pos:R:3:spacegroup_kinds:I:1:forces:R:3 spacegroup="P 1" unit_cell=conventional occupancy="_JSON {\"0\": {\"In\": 1}, \"1\": {\"In\": 1}, \"2\": {\"In\": 1}, \"3\": {\"In\": 1}, \"4\": {\"O\": 1}, \"5\": {\"O\": 1}, \"6\": {\"O\": 1}, \"7\": {\"O\": 1}, \"8\": {\"O\": 1}, \"9\": {\"O\": 1}}" n_minim_iter=6 energy=-11287.179889311868 stress="-0.08352042813858467 -0.00011711232837482611 -8.086441791503659e-05 -0.00011711232837482611 -0.08336669199052324 -4.365086929005002e-05 -8.086441791503659e-05 -4.365086929005002e-05 -0.08333361469575754" free_energy=-11287.179889311868 pbc="T T T"
In      10.13515999       5.47099165       3.77764286        0      -0.00246579      -0.00133104      -0.00091906
In       7.54439610       4.07248905       2.81199646        1       0.00246579       0.00133104       0.00091906
In       4.24197463       2.28983142       1.58109642        2      -0.00246579      -0.00133104      -0.00091907
In       1.65121074       0.89132882       0.61545002        3       0.00246579       0.00133104       0.00091906
O        5.76896386       2.22208587       0.14969292        4       0.00000000       0.00271393      -0.00393046
O        6.76313937       4.94556885       1.07632047        5      -0.00226886       0.00420312       0.00000000
O        7.84560254       2.04825736       2.36819210        6       0.00226886      -0.00148919      -0.00393046
O        3.94076820       4.31406311       2.02490078        7      -0.00226886       0.00148919       0.00393046
O        6.01740687       4.14023461       4.24339996        8      -0.00000000      -0.00271393       0.00393046
O        5.02323136       1.41675162       3.31677241        9       0.00226886      -0.00420312      -0.00000000
