10
Lattice="5.478415863689602 -0.1518740209487196 -0.10486687733558764 2.8791590262286393 4.663319568231544 -0.10486687733559467 2.8791590262286393 1.5541792134542802 4.397962417970388" Properties=species:S:1:pos:R:3:spacegroup_kinds:I:1:forces:R:3 spacegroup="P 1" unit_cell=conventional occupancy="_JSON {\"0\": {\"In\": 1}, \"1\": {\"In\": 1}, \"2\": {\"In\": 1}, \"3\": {\"In\": 1}, \"4\": {\"O\": 1}, \"5\": {\"O\": 1}, \"6\": {\"O\": 1}, \"7\": {\"O\": 1}, \"8\": {\"O\": 1}, \"9\": {\"O\": 1}}" n_minim_iter=7 energy=-11286.891368768034 stress="-0.0821226855392643 0.00010037093782923037 6.930472226056338e-05 0.00010037093782923037 -0.08225444486005554 3.741090939308468e-05 6.930472226056338e-05 3.741090939308468e-05 -0.08228279370391424" free_energy=-11286.891368768034 pbc="T T T"
In       9.72017045       5.24697897       3.62296525        0      -0.00340444      -0.00183773      -0.00126893
In       7.13493044       3.85145818       2.65937775        1       0.00340444       0.00183773       0.00126893
In       4.10180349       2.21416659       1.52885092        2      -0.00340444      -0.00183773      -0.00126893
In       1.51656348       0.81864580       0.56526342        3       0.00340444       0.00183773       0.00126893
O        5.54839142       2.10803845       0.02781294        4       0.00000000       0.00134814      -0.00195245
O        6.42987970       4.80600807       0.94219029        5      -0.00112705       0.00208790      -0.00000000
O        7.54606216       1.85124895       2.22679415        6       0.00112705      -0.00073976      -0.00195245
O        3.69067176       4.21437582       1.96143452        7      -0.00112705       0.00073976       0.00195245
O        5.68834251       3.95758632       4.16041572        8      -0.00000000      -0.00134814       0.00195245
O        4.80685423       1.25961670       3.24603838        9       0.00112705      -0.00208790      -0.00000000
