320
Lattice="17.822355053005726 1.3968679584594604e-09 -1.0000438426406703e-15 -5.940785018985554 16.803077485793953 -2.4194486666196917e-09 -5.940785017010085 -8.401538741500097 14.551891966068874" Properties=species:S:1:pos:R:3:spacegroup_kinds:I:1:forces:R:3 spacegroup="P 1" unit_cell=conventional occupancy="_JSON {\"0\": {\"In\": 1}, \"1\": {\"In\": 1}, \"2\": {\"In\": 1}, \"3\": {\"In\": 1}, \"4\": {\"In\": 1}, \"5\": {\"In\": 1}, \"6\": {\"In\": 1}, \"7\": {\"In\": 1}, \"8\": {\"In\": 1}, \"9\": {\"In\": 1}, \"10\": {\"In\": 1}, \"11\": {\"In\": 1}, \"12\": {\"In\": 1}, \"13\": {\"In\": 1}, \"14\": {\"In\": 1}, \"15\": {\"In\": 1}, \"16\": {\"O\": 1}, \"17\": {\"O\": 1}, \"18\": {\"O\": 1}, \"19\": {\"O\": 1}, \"20\": {\"O\": 1}, \"21\": {\"O\": 1}, \"22\": {\"O\": 1}, \"23\": {\"O\": 1}, \"24\": {\"O\": 1}, \"25\": {\"O\": 1}, \"26\": {\"O\": 1}, \"27\": {\"O\": 1}, \"28\": {\"O\": 1}, \"29\": {\"O\": 1}, \"30\": {\"O\": 1}, \"31\": {\"O\": 1}, \"32\": {\"O\": 1}, \"33\": {\"O\": 1}, \"34\": {\"O\": 1}, \"35\": {\"O\": 1}, \"36\": {\"O\": 1}, \"37\": {\"O\": 1}, \"38\": {\"O\": 1}, \"39\": {\"O\": 1}}" n_minim_iter=5 energy=-361215.29090299 stress="-1.255410936105321e-05 -2.454385919533629e-06 6.3775481921723685e-06 -2.454385919533629e-06 -2.3949876415793614e-05 -5.1480195865260085e-06 6.3775481921723685e-06 -5.1480195865260085e-06 -1.9894951115739383e-05" free_energy=-45151.91140858504 pbc="T T T"
In      -4.25459031       3.00844966       5.70313131        0      -0.00503614       0.00041132      -0.00107326
In       4.65658722       3.00844966       5.70313131        0      -0.00289600       0.00202763      -0.00326545
In      -7.22498282      11.40998840       5.70313131        0      -0.00176518       0.00124180      -0.00214531
In       1.68619471      11.40998840       5.70313131        0      -0.00169642       0.00097110      -0.00215983
In      -7.22498282      -1.19231971      12.97907729        0      -0.00180343       0.00129146      -0.00219956
In       1.68619471      -1.19231971      12.97907729        0      -0.00178396       0.00123572      -0.00218536
In     -10.19537533       7.20921903      12.97907729        0      -0.00170647       0.00130641      -0.00201228
In      -1.28419780       7.20921903      12.97907729        0      -0.00176190       0.00123147      -0.00215583
In       7.22498282       1.19231971       1.57281467        1       0.00151189      -0.00128122       0.00229964
In      16.13616035       1.19231971       1.57281467        1       0.00100205      -0.00225366       0.00034921
In       4.25459031       9.59385845       1.57281467        1       0.00173689      -0.00137262       0.00222294
In      13.16576784       9.59385845       1.57281467        1       0.00176140      -0.00119723       0.00206451
In       4.25459031      -3.00844966       8.84876065        1       0.00175109      -0.00124317       0.00214930
In      13.16576784      -3.00844966       8.84876065        1       0.00172973      -0.00127035       0.00219644
In       1.28419780       5.39308908       8.84876065        1       0.00170392      -0.00065784       0.00192838
In      10.19537533       5.39308908       8.84876065        1       0.00178998      -0.00127975       0.00211437
In       1.28419780      -0.90806497       5.21078766        2       0.00165682      -0.00078521       0.00152661
In      10.19537533      -0.90806497       5.21078766        2       0.00182792      -0.00120191       0.00216365
In      -1.68619471       7.49347377       5.21078766        2       0.00192413      -0.00064209       0.00222167
In       7.22498282       7.49347377       5.21078766        2       0.00164893      -0.00130305       0.00223474
In      -1.68619471      -5.10883434      12.48673364        2       0.00175958      -0.00131417       0.00208262
In       7.22498282      -5.10883434      12.48673364        2       0.00181718      -0.00120920       0.00224960
In      -4.65658722       3.29270440      12.48673364        2       0.00172715      -0.00128597       0.00218364
In       4.25459031       3.29270440      12.48673364        2       0.00175810      -0.00122817       0.00210425
In       7.42598127      -2.10038468       3.63797299        3       0.00003293      -0.00006262       0.00000781
In      16.33715879      -2.10038468       3.63797299        3      -0.00007710      -0.00020395       0.00006482
In       4.45558876       6.30115406       3.63797299        3      -0.00131829      -0.00059421       0.00066689
In      13.36676628       6.30115406       3.63797299        3      -0.00173022       0.00076726      -0.00000431
In       4.45558876      -6.30115405      10.91391897        3       0.00000053       0.00001421       0.00001696
In      13.36676628      -6.30115405      10.91391897        3       0.00003605       0.00004164      -0.00002622
In       1.48519625       2.10038469      10.91391897        3       0.00005419       0.00002608      -0.00000357
In      10.39637378       2.10038469      10.91391897        3      -0.00000414      -0.00001640       0.00003370
In      -1.28419781       4.05864201       3.39180117        4       0.02190966       0.00273851       0.00723530
In       7.62697972       4.05864201       3.39180117        4      -0.00184442       0.00128118       0.00231651
In      -4.25459032      12.46018075       3.39180117        4      -0.00178879       0.00121051       0.00213365
In       4.65658721      12.46018075       3.39180117        4      -0.00172853       0.00121254       0.00214705
In      -4.25459032      -0.14212736      10.66774715        4      -0.00178048       0.00122465       0.00215332
In       4.65658721      -0.14212736      10.66774715        4      -0.00175879       0.00127726       0.00212470
In      -7.22498283       8.25941138      10.66774715        4      -0.00176753       0.00123910       0.00214567
In       1.68619470       8.25941138      10.66774715        4      -0.00176551       0.00123539       0.00213854
In       4.65658721      -2.86632229       5.45695948        5      -0.00180885      -0.00239414      -0.00001735
In      13.56776474      -2.86632229       5.45695948        5      -0.00177024      -0.00246843       0.00000274
In       1.68619470       5.53521645       5.45695948        5       0.00959487       0.01025341       0.01262569
In      10.59737223       5.53521645       5.45695948        5      -0.00187639      -0.00242213       0.00006059
In       1.68619470      -7.06709166      12.73290546        5      -0.00172673      -0.00246605      -0.00002160
In      10.59737223      -7.06709166      12.73290546        5      -0.00180351      -0.00241274      -0.00000863
In      -1.28419781       1.33444708      12.73290546        5      -0.00173511      -0.00249512      -0.00006501
In       7.62697972       1.33444708      12.73290546        5      -0.00173212      -0.00250632       0.00001329
In      -1.28419781       1.33444708       5.45695948        6      -0.00170756      -0.00496184       0.00199069
In       7.62697972       1.33444708       5.45695948        6      -0.00204089      -0.00238555      -0.00011376
In      -4.25459032       9.73598582       5.45695948        6      -0.00181287      -0.00236016       0.00008438
In       4.65658721       9.73598582       5.45695948        6      -0.00179840      -0.00256307       0.00002657
In      -4.25459032      -2.86632229      12.73290546        6      -0.00171708      -0.00238399       0.00014325
In       4.65658721      -2.86632229      12.73290546        6      -0.00178363      -0.00248477      -0.00000820
In      -7.22498283       5.53521645      12.73290546        6      -0.00172614      -0.00245515       0.00001399
In       1.68619470       5.53521645      12.73290546        6      -0.00179767      -0.00248960      -0.00005525
In      -1.68619471       7.06709167       1.81898649        7       0.00084054       0.00380078      -0.00039663
In       7.22498282       7.06709167       1.81898649        7       0.00152446       0.00247043       0.00005808
In      -4.65658722      15.46863041       1.81898649        7       0.00190601       0.00265553       0.00013706
In       4.25459031      15.46863041       1.81898649        7       0.00172935       0.00248952       0.00000043
In      -4.65658722       2.86632230       9.09493247        7       0.00162134       0.00234959       0.00026855
In       4.25459031       2.86632230       9.09493247        7       0.00165933       0.00227926      -0.00005282
In      -7.62697973      11.26786104       9.09493247        7       0.00175509       0.00247293       0.00002531
In       1.28419780      11.26786104       9.09493247        7       0.00173803       0.00246983       0.00001450
In       4.25459031       0.14212737       3.88414481        8       0.00078215       0.00082224      -0.00231533
In      13.16576784       0.14212737       3.88414481        8       0.00180218      -0.00117311      -0.00218398
In       1.28419780       8.54366611       3.88414481        8       0.00326649      -0.00299103      -0.00267766
In      10.19537533       8.54366611       3.88414481        8       0.00163082      -0.00118828      -0.00213360
In       1.28419780      -4.05864200      11.16009079        8       0.00173047      -0.00125260      -0.00212468
In      10.19537533      -4.05864200      11.16009079        8       0.00170121      -0.00120029      -0.00219491
In      -1.68619471       4.34289674      11.16009079        8       0.00167545      -0.00129754      -0.00217938
In       7.22498282       4.34289674      11.16009079        8       0.00174674      -0.00121334      -0.00213003
In       7.42598127       4.20076937      -0.00000000        9      -0.00010309       0.00000894       0.00005314
In      16.33715879       4.20076937      -0.00000000        9      -0.00075324      -0.00026425      -0.00188098
In       4.45558876      12.60230811      -0.00000000        9       0.00001364      -0.00001553       0.00001023
In      13.36676628      12.60230811      -0.00000000        9      -0.00002555       0.00001320       0.00002175
In       4.45558876      -0.00000000       7.27594598        9      -0.00001595       0.00003357       0.00007131
In      13.36676628       0.00000000       7.27594598        9      -0.00003277      -0.00010555       0.00016418
In       1.48519625       8.40153874       7.27594598        9       0.00026367      -0.00083080      -0.00017714
In      10.39637378       8.40153874       7.27594598        9       0.00000598      -0.00001676      -0.00002358
In       4.25459031       6.44328143       0.24617182       10       0.00091549      -0.00225186      -0.00119943
In      13.16576784       6.44328143       0.24617182       10       0.00184303      -0.00126835      -0.00201094
In       1.28419780      14.84482017       0.24617182       10       0.00173896      -0.00122870      -0.00217185
In      10.19537533      14.84482017       0.24617182       10       0.00168055      -0.00122873      -0.00215886
In       1.28419780       2.24251206       7.52211780       10       0.00188667      -0.00147035      -0.00213773
In      10.19537533       2.24251206       7.52211780       10       0.00166064      -0.00122115      -0.00208507
In      -1.68619471      10.64405080       7.52211780       10       0.00171643      -0.00129051      -0.00218209
In       7.22498282      10.64405080       7.52211780       10       0.00169770      -0.00128041      -0.00216453
In      -1.28419781      -2.24251205       7.02977416       11      -0.00183004       0.00126656       0.00218151
In       7.62697972      -2.24251205       7.02977416       11      -0.00172331       0.00117677       0.00216439
In      -4.25459032       6.15902669       7.02977416       11      -0.00173765       0.00130942       0.00221434
In       4.65658721       6.15902669       7.02977416       11      -0.00272144       0.00021965       0.00049974
In      -4.25459032      -6.44328142      14.30572014       11      -0.00132415       0.00225035       0.00413481
In       4.65658721      -6.44328142      14.30572014       11      -0.00179265       0.00122644       0.00212310
In      -7.22498283       1.95825732      14.30572014       11      -0.00178539       0.00128778       0.00215848
In       1.68619470       1.95825732      14.30572014       11      -0.00171537       0.00128942       0.00210156
In       4.25459031       2.86632230       1.81898649       12       0.00067922       0.00308931       0.00083823
In      13.16576784       2.86632230       1.81898649       12       0.00112936       0.00227941      -0.00028894
In       1.28419780      11.26786104       1.81898649       12       0.00178425       0.00236774      -0.00004527
In      10.19537533      11.26786104       1.81898649       12       0.00175516       0.00249482      -0.00000363
In       1.28419780      -1.33444707       9.09493247       12       0.00179980       0.00249164       0.00001782
In      10.19537533      -1.33444707       9.09493247       12       0.00176182       0.00247234       0.00000029
In      -1.68619471       7.06709167       9.09493247       12       0.00181491       0.00247211      -0.00001315
In       7.22498282       7.06709167       9.09493247       12       0.00192154       0.00256755       0.00014371
In       1.68619470       5.10883435       2.06515831       13       0.00748295       0.00370119      -0.00839091
In      10.59737223       5.10883435       2.06515831       13      -0.00177859       0.00121251      -0.00214687
In      -1.28419781      13.51037309       2.06515831       13      -0.00171644       0.00114283      -0.00212662
In       7.62697972      13.51037309       2.06515831       13      -0.00174040       0.00125333      -0.00215917
In      -1.28419781       0.90806498       9.34110429       13      -0.00185634       0.00123303      -0.00207977
In       7.62697972       0.90806498       9.34110429       13      -0.00172183       0.00120454      -0.00209227
In      -4.25459032       9.30960372       9.34110429       13      -0.00171482       0.00120652      -0.00218411
In       4.65658721       9.30960372       9.34110429       13      -0.00173533       0.00126160      -0.00212775
In       1.48519625       8.40153874      -0.00000000       14       0.00010481      -0.00017253      -0.00004485
In      10.39637378       8.40153874      -0.00000000       14      -0.00001851      -0.00000602       0.00003352
In      -1.48519626      16.80307749      -0.00000000       14      -0.00006998      -0.00013079      -0.00004743
In       7.42598127      16.80307749      -0.00000000       14      -0.00012889      -0.00008637      -0.00007007
In      -1.48519626       4.20076937       7.27594598       14       0.00007573       0.00007413       0.00193466
In       7.42598127       4.20076937       7.27594598       14      -0.00030626       0.00011430      -0.00016786
In      -4.45558877      12.60230812       7.27594598       14      -0.00001280       0.00003333      -0.00002573
In       4.45558876      12.60230812       7.27594598       14       0.00002072      -0.00003025      -0.00000425
In       1.48519625       2.10038469       3.63797299       15       0.00695835      -0.00854433      -0.00098252
In      10.39637378       2.10038469       3.63797299       15      -0.00002269       0.00000042      -0.00003554
In      -1.48519626      10.50192343       3.63797299       15       0.00002027      -0.00034734       0.00005066
In       7.42598127      10.50192343       3.63797299       15       0.00007973       0.00007602       0.00002493
In      -1.48519626      -2.10038468      10.91391897       15       0.00001857       0.00000203       0.00004396
In       7.42598127      -2.10038468      10.91391897       15       0.00000763       0.00001193      -0.00000294
In      -4.45558877       6.30115406      10.91391897       15       0.00003878      -0.00003093      -0.00004673
In       4.45558876       6.30115406      10.91391897       15      -0.00003635      -0.00005855      -0.00007883
O        0.88499303       4.20109469       3.95923992       16      -0.07365096      -0.02023795      -0.01316386
O        9.78617056       4.20109469       3.95923992       16       0.00108380      -0.00209717       0.00292177
O       -2.09539948      12.60263343       3.95923992       16       0.00103557      -0.00202743       0.00290989
O        6.81577805      12.60263343       3.95923992       16       0.00095308      -0.00223558       0.00288727
O       -2.09539948       0.00032532      11.23518590       16       0.00105051      -0.00213406       0.00302639
O        6.81577805       0.00032532      11.23518590       16       0.00104074      -0.00208116       0.00288529
O       -5.06579199       8.40186406      11.23518590       16       0.00105167      -0.00208522       0.00292677
O        3.84538554       8.40186406      11.23518590       16       0.00094986      -0.00209981       0.00285711
O       -2.09539948       3.42863970       5.29604428       17       0.00716760       0.00585163      -0.00430231
O        6.81577805       3.42863970       5.29604428       17       0.00186697       0.00364693       0.00028182
O       -5.06579199      11.83017844       5.29604428       17       0.00099292       0.00358929       0.00038269
O        3.84538554      11.83017844       5.29604428       17       0.00105333       0.00362646       0.00036998
O       -5.06579199      -0.77212967      12.57199026       17       0.00109238       0.00361183       0.00036910
O        3.84538554      -0.77212967      12.57199026       17       0.00103712       0.00356763       0.00034511
O       -8.03618450       7.62940907      12.57199026       17       0.00102353       0.00344182       0.00024079
O        0.87499303       7.62940907      12.57199026       17       0.00100667       0.00352987       0.00032683
O       -0.43599978       2.25526692       0.05243957       18       0.00196338       0.00343128       0.00213458
O        8.47517775       2.25526692       0.05243957       18       0.00193862       0.00303583       0.00111727
O       -3.40639229      10.65680566       0.05243957       18       0.00178903       0.00295846       0.00122443
O        5.50478524      10.65680566       0.05243957       18       0.00177535       0.00318087       0.00116421
O       -3.40639229      -1.94550245       7.32838555       18       0.00177912       0.00322430       0.00108873
O        5.50478524      -1.94550245       7.32838555       18       0.00175755       0.00293907       0.00134868
O       -6.37678480       6.45603629       7.32838555       18       0.00182298       0.00300781       0.00115664
O        2.53439273       6.45603629       7.32838555       18       0.00155435       0.00301184       0.00114978
O       -0.87499303      -0.77180436       1.97933822       19      -0.00094689       0.00198081       0.00363661
O        8.03618450      -0.77180436       1.97933822       19      -0.00088842       0.00141431       0.00319393
O       -3.84538554       7.62973438       1.97933822       19      -0.00076815       0.00109470       0.00350126
O        5.06579199       7.62973438       1.97933822       19      -0.00074993       0.00152460       0.00318398
O       -3.84538554      -4.97257373       9.25528420       19      -0.00102608       0.00146825       0.00327221
O        5.06579199      -4.97257373       9.25528420       19      -0.00103991       0.00146517       0.00324369
O       -6.81577805       3.42896501       9.25528420       19      -0.00104073       0.00148893       0.00325180
O        2.09539948       3.42896501       9.25528420       19      -0.00117099       0.00154680       0.00279791
O        3.93101900       5.00284973       1.92689865       20       0.00409823       0.00004417       0.00041922
O       12.84219653       5.00284973       1.92689865       20       0.00300652      -0.00051964       0.00228732
O        0.96062649      13.40438847       1.92689865       20       0.00300775      -0.00092655       0.00208581
O        9.87180402      13.40438847       1.92689865       20       0.00299889      -0.00082317       0.00204984
O        0.96062649       0.80208036       9.20284463       20       0.00316367      -0.00089297       0.00213367
O        9.87180402       0.80208036       9.20284463       20       0.00298287      -0.00075565       0.00201828
O       -2.00976602       9.20361910       9.20284463       20       0.00304664      -0.00067597       0.00215429
O        6.90141151       9.20361910       9.20284463       20       0.00299186      -0.00079928       0.00215305
O        2.00976602       2.93306637       1.65807129       21      -0.00160714      -0.00679978      -0.00835396
O       10.92094355       2.93306637       1.65807129       21      -0.00293831      -0.00214198       0.00037798
O       -0.96062649      11.33460511       1.65807129       21      -0.00297989      -0.00211094       0.00033163
O        7.95055104      11.33460511       1.65807129       21      -0.00300939      -0.00215859       0.00036803
O       -0.96062649      -1.26770300       8.93401727       21      -0.00292495      -0.00222162       0.00030821
O        7.95055104      -1.26770300       8.93401727       21      -0.00301966      -0.00215936       0.00035427
O       -3.93101900       7.13383574       8.93401727       21      -0.00308698      -0.00225870       0.00036316
O        4.98015853       7.13383574       8.93401727       21      -0.00324377      -0.00247480      -0.00012743
O        2.00976602       6.27055274       0.26882736       22      -0.00296402       0.00165486       0.00148264
O       10.92094355       6.27055274       0.26882736       22      -0.00278767       0.00133212       0.00176585
O       -0.96062649      14.67209148       0.26882736       22      -0.00299415       0.00121841       0.00158515
O        7.95055104      14.67209148       0.26882736       22      -0.00293140       0.00151610       0.00174786
O       -0.96062649       2.06978337       7.54477334       22      -0.00311504       0.00203343       0.00075537
O        7.95055104       2.06978337       7.54477334       22      -0.00274007       0.00129891       0.00186823
O       -3.93101900      10.47132211       7.54477334       22      -0.00297195       0.00135010       0.00164716
O        4.98015853      10.47132211       7.54477334       22      -0.00304505       0.00147288       0.00171471
O       -2.27161930       5.96046296       3.69041256       23       0.00016665      -0.00674411       0.00105205
O        6.63955823       5.96046296       3.69041256       23      -0.00161209      -0.00258290       0.00108037
O       -5.24201181      14.36200170       3.69041256       23      -0.00221923      -0.00271883       0.00123335
O        3.66916572      14.36200170       3.69041256       23      -0.00234420      -0.00267071       0.00120308
O       -5.24201181       1.75969359      10.96635854       23      -0.00233590      -0.00261008       0.00120382
O        3.66916572       1.75969359      10.96635854       23      -0.00230295      -0.00268447       0.00114116
O       -8.21240432      10.16123233      10.96635854       23      -0.00233660      -0.00264397       0.00113695
O        0.69877321      10.16123233      10.96635854       23      -0.00233409      -0.00259390       0.00123773
O        3.40639229       1.94550246       7.22350641       24      -0.00182583      -0.00343132      -0.00061858
O       12.31756982       1.94550246       7.22350641       24      -0.00189475      -0.00306164      -0.00122152
O        0.43599978      10.34704120       7.22350641       24      -0.00183329      -0.00311016      -0.00123829
O        9.34717731      10.34704120       7.22350641       24      -0.00170666      -0.00305527      -0.00118864
O        0.43599978      -2.25526691      14.49945239       24      -0.00176672      -0.00300874      -0.00126270
O        9.34717731      -2.25526691      14.49945239       24      -0.00121466      -0.00301574      -0.00106328
O       -2.53439273       6.14627183      14.49945239       24      -0.00172604      -0.00307136      -0.00121388
O        6.37678480       6.14627183      14.49945239       24      -0.00178277      -0.00319244      -0.00130461
O        5.24201181      -1.75969358       3.58553342       25       0.00220588       0.00293465      -0.00111752
O       14.15318934      -1.75969358       3.58553342       25       0.00232782       0.00275751      -0.00108983
O        2.27161930       6.64184516       3.58553342       25       0.00633739       0.01563912      -0.00202503
O       11.18279683       6.64184516       3.58553342       25       0.00250830       0.00263046      -0.00121291
O        2.27161930      -5.96046295      10.86147940       25       0.00230314       0.00266051      -0.00118916
O       11.18279683      -5.96046295      10.86147940       25       0.00233363       0.00264760      -0.00128984
O       -0.69877321       2.44107579      10.86147940       25       0.00230195       0.00269966      -0.00108208
O        8.21240432       2.44107579      10.86147940       25       0.00231829       0.00262937      -0.00118896
O        6.37678480       3.27343215       1.71107433       26      -0.00121009       0.00283826      -0.00215446
O       15.28796233       3.27343215       1.71107433       26      -0.00143873       0.00341902      -0.00013311
O        3.40639229      11.67497089       1.71107433       26      -0.00174735       0.00254639      -0.00204762
O       12.31756982      11.67497089       1.71107433       26      -0.00176305       0.00256504      -0.00208942
O        3.40639229      -0.92733722       8.98702031       26      -0.00167293       0.00269705      -0.00210006
O       12.31756982      -0.92733722       8.98702031       26      -0.00172618       0.00258487      -0.00211554
O        0.43599978       7.47420152       8.98702031       26      -0.00159601       0.00270751      -0.00192530
O        9.34717731       7.47420152       8.98702031       26      -0.00166102       0.00257505      -0.00204772
O        3.66916572       2.31614424       3.90680035       27       0.00178528      -0.00041311       0.00133989
O       12.58034325       2.31614424       3.90680035       27      -0.00231293       0.00240790       0.00183726
O        0.69877321      10.71768298       3.90680035       27      -0.00222481       0.00243923       0.00174015
O        9.60995074      10.71768298       3.90680035       27      -0.00234883       0.00232626       0.00170211
O        0.69877321      -1.88462513      11.18274633       27      -0.00234320       0.00243332       0.00168944
O        9.60995074      -1.88462513      11.18274633       27      -0.00233885       0.00240210       0.00172222
O       -2.27161930       6.51691361      11.18274633       27      -0.00228332       0.00236546       0.00168899
O        6.63955823       6.51691361      11.18274633       27      -0.00230102       0.00245440       0.00184105
O        0.69877321       4.32570092       6.95467905       28      -0.00478088      -0.00015801      -0.00268947
O        9.60995074       4.32570092       6.95467905       28      -0.00221950       0.00025297      -0.00290270
O       -2.27161930      12.72723966       6.95467905       28      -0.00226433       0.00023663      -0.00287227
O        6.63955823      12.72723966       6.95467905       28      -0.00236642       0.00022847      -0.00289869
O       -2.27161930       0.12493155      14.23062503       28      -0.00238256       0.00005517      -0.00265967
O        6.63955823       0.12493155      14.23062503       28      -0.00216154       0.00018516      -0.00280795
O       -5.24201181       8.52647029      14.23062503       28      -0.00220332       0.00022045      -0.00300618
O        3.66916572       8.52647029      14.23062503       28      -0.00242105       0.00004365      -0.00309369
O        2.27161930      -0.12493155       0.32126693       29       0.00230011      -0.00050898       0.00302911
O       11.18279683      -0.12493155       0.32126693       29       0.00240823      -0.00022155       0.00294016
O       -0.69877321       8.27660719       0.32126693       29       0.00229652      -0.00052085       0.00275208
O        8.21240432       8.27660719       0.32126693       29       0.00246170      -0.00021698       0.00284853
O       -0.69877321      -4.32570092       7.59721291       29       0.00230630      -0.00025748       0.00288352
O        8.21240432      -4.32570092       7.59721291       29       0.00230971      -0.00027068       0.00290809
O       -3.66916572       4.07583782       7.59721291       29       0.00292528      -0.00029966       0.00225130
O        5.24201181       4.07583782       7.59721291       29       0.00273678      -0.00035830       0.00337905
O       -3.40639229       0.92733723       5.56487164       30       0.00201142      -0.00200180       0.00164794
O        5.50478524       0.92733723       5.56487164       30       0.00246548      -0.00309986       0.00256304
O       -6.37678480       9.32887597       5.56487164       30       0.00181059      -0.00264661       0.00204608
O        2.53439273       9.32887597       5.56487164       30       0.00177749      -0.00282536       0.00221175
O       -6.37678480      -3.27343214      12.84081762       30       0.00158589      -0.00252952       0.00259282
O        2.53439273      -3.27343214      12.84081762       30       0.00173285      -0.00260068       0.00206350
O       -9.34717731       5.12810660      12.84081762       30       0.00175462      -0.00257780       0.00204151
O       -0.43599978       5.12810660      12.84081762       30       0.00172927      -0.00256098       0.00202944
O        5.06579199       0.77212968       1.97990170       31      -0.00074543      -0.00423257      -0.00067394
O       13.97696952       0.77212968       1.97990170       31      -0.00076815      -0.00385385      -0.00029578