10
Lattice="5.87940641 8.881784197001252e-16 1.3322676295501878e-15 3.226158737651724 4.915213071009489 1.5543122344752192e-15 3.226158737651723 1.741490762991984 4.596360457561627" Properties=species:S:1:pos:R:3:spacegroup_kinds:I:1:forces:R:3 spacegroup="P 1" unit_cell=conventional occupancy="_JSON {\"0\": {\"In\": 1}, \"1\": {\"In\": 1}, \"2\": {\"In\": 1}, \"3\": {\"In\": 1}, \"4\": {\"O\": 1}, \"5\": {\"O\": 1}, \"6\": {\"O\": 1}, \"7\": {\"O\": 1}, \"8\": {\"O\": 1}, \"9\": {\"O\": 1}}" n_minim_iter=1 energy=-11287.683147661799 stress="0.002182179071543117 -0.000751086645083921 -0.0005186147738050293 -0.000751086645083921 0.0031681484305644114 -0.0002799499063826996 -0.0005186147738050293 -0.0002799499063826996 0.0033802859180352713" free_energy=-11287.683147661799 pbc="T T T"
In      10.57093869       5.70622638       3.94006913        0       0.00274051       0.00147934       0.00102146
In       7.92664715       4.27882938       2.95447156        1      -0.00274051      -0.00147934      -0.00102146
In       4.40507675       2.37787446       1.64188890        2       0.00274051       0.00147934       0.00102146
In       1.76078520       0.95047747       0.65629133        3      -0.00274051      -0.00147934      -0.00102146
O        6.02263418       2.30932706       0.21474656        4       0.00000000       0.00912970      -0.01322214
O        7.09636402       5.12094210       1.14909012        5      -0.00763248       0.01413937       0.00000000
O        8.17506308       2.18091285       2.51292679        6       0.00763248      -0.00500967      -0.01322214
O        4.15666081       4.47579100       2.08343367        7      -0.00763248       0.00500967       0.01322214
O        6.30908971       4.34737678       4.38161390        8       0.00000000      -0.00912970       0.01322214
O        5.23535988       1.53576175       3.44727035        9       0.00763248      -0.01413937      -0.00000000
10
Lattice="5.875063689996768 0.001494069475397621 0.0010316339781402323 3.2250248418458822 4.910762706875477 0.0010316339781404592 3.2250248418458822 1.740878682424149 4.591833276654194" Properties=species:S:1:pos:R:3:spacegroup_kinds:I:1:forces:R:3 spacegroup="P 1" unit_cell=conventional occupancy="_JSON {\"0\": {\"In\": 1}, \"1\": {\"In\": 1}, \"2\": {\"In\": 1}, \"3\": {\"In\": 1}, \"4\": {\"O\": 1}, \"5\": {\"O\": 1}, \"6\": {\"O\": 1}, \"7\": {\"O\": 1}, \"8\": {\"O\": 1}, \"9\": {\"O\": 1}}" n_minim_iter=2 energy=-11287.683785875763 stress="-0.00043928517502415574 -0.00032624433073712286 -0.00022526712506755757 -0.00032624433073712286 -1.1016457006601911e-05 -0.0001215999134771697 -0.00022526712506755757 -0.0001215999134771697 8.112823876820056e-05" free_energy=-11287.683785875763 pbc="T T T"
In      10.56527904       5.70317128       3.93795963        0       0.00269952       0.00145721       0.00100618
In       7.92239103       4.27653191       2.95288519        1      -0.00269952      -0.00145721      -0.00100618
In       4.40272236       2.37660356       1.64101136        2       0.00269952       0.00145721       0.00100618
In       1.75983434       0.94996419       0.65593692        3      -0.00269952      -0.00145721      -0.00100618
O        6.01881019       2.30842501       0.21574272        4       0.00000000       0.01225073      -0.01774219
O        7.09260593       5.11739948       1.14950577        5      -0.01024167       0.01897298       0.00000000
O        8.17003930       2.18087713       2.51165936        6       0.01024167      -0.00672224      -0.01774219
O        4.15507409       4.47225834       2.08223719        7      -0.01024167       0.00672224       0.01774219
O        6.30630319       4.34471046       4.37815383        8      -0.00000000      -0.01225073       0.01774219
O        5.23250745       1.53573599       3.44439078        9       0.01024167      -0.01897298      -0.00000000
10
Lattice="5.877940564146804 0.003963877421974528 0.0027370016595792915 3.2286682172964607 4.911812550432515 0.0027370016595795288 3.228668217296461 1.7428453880977557 4.592210793828048" Properties=species:S:1:pos:R:3:spacegroup_kinds:I:1:forces:R:3 spacegroup="P 1" unit_cell=conventional occupancy="_JSON {\"0\": {\"In\": 1}, \"1\": {\"In\": 1}, \"2\": {\"In\": 1}, \"3\": {\"In\": 1}, \"4\": {\"O\": 1}, \"5\": {\"O\": 1}, \"6\": {\"O\": 1}, \"7\": {\"O\": 1}, \"8\": {\"O\": 1}, \"9\": {\"O\": 1}}" n_minim_iter=3 energy=-11287.683843771023 stress="0.00012636766350408935 9.534330871160906e-05 6.583321530300869e-05 9.534330871160906e-05 1.2082293237922345e-06 3.5536977842990526e-05 6.583321530300869e-05 3.5536977842990526e-05 -2.5720608632045713e-05" free_energy=-11287.683843771023 pbc="T T T"
In      10.57401708       5.70788811       3.94121653        0      -0.00264113      -0.00142569      -0.00098442
In       7.92889843       4.28004463       2.95531067        1       0.00264113       0.00142569       0.00098442
In       4.40637858       2.37857720       1.64237413        2      -0.00264113      -0.00142569      -0.00098442
In       1.76125993       0.95073372       0.65646827        3       0.00264113       0.00142569       0.00098442
O        6.02278954       2.31096050       0.21764529        4      -0.00000000       0.01231532      -0.01783573
O        7.09846632       5.12042094       1.15215820        5      -0.01029567       0.01907301       0.00000000
O        8.17578097       2.18450593       2.51375069        6       0.01029567      -0.00675769      -0.01783573
O        4.15949603       4.47411590       2.08393412        7      -0.01029567       0.00675769       0.01783573
O        6.31248747       4.34766132       4.38003951        8       0.00000000      -0.01231532       0.01783573
O        5.23681069       1.53820088       3.44552660        9       0.01029567      -0.01907301      -0.00000000
10
Lattice="5.877771728859735 0.004158201540392762 0.0028711797327099944 3.2287380296179164 4.911564773401837 0.002871179732710224 3.2287380296179173 1.7428830730112526 4.591931550100213" Properties=species:S:1:pos:R:3:spacegroup_kinds:I:1:forces:R:3 spacegroup="P 1" unit_cell=conventional occupancy="_JSON {\"0\": {\"In\": 1}, \"1\": {\"In\": 1}, \"2\": {\"In\": 1}, \"3\": {\"In\": 1}, \"4\": {\"O\": 1}, \"5\": {\"O\": 1}, \"6\": {\"O\": 1}, \"7\": {\"O\": 1}, \"8\": {\"O\": 1}, \"9\": {\"O\": 1}}" n_minim_iter=4 energy=-11287.68395551356 stress="-3.797838935557191e-05 1.2366233424441388e-05 8.538710986566412e-06 1.2366233424441388e-05 -5.421184352753524e-05 4.609223531006884e-06 8.538710986566412e-06 4.609223531006884e-06 -5.770457215903477e-05" free_energy=-11287.68395551356 pbc="T T T"
In      10.57387969       5.70781394       3.94116532        0       0.00593717       0.00320490       0.00221294
In       7.92899200       4.28009514       2.95534555        1      -0.00593717      -0.00320490      -0.00221294
In       4.40625580       2.37851092       1.64232836        2       0.00593717       0.00320490       0.00221294
In       1.76136811       0.95079212       0.65650860        3      -0.00593717      -0.00320490      -0.00221294
O        6.02269782       2.31197293       0.21637840        4       0.00000000       0.00024898      -0.00036059
O        7.09764104       5.12181388       1.15228966        5      -0.00020815       0.00038561      -0.00000000
O        8.17649262       2.18411360       2.51234418        6       0.00020815      -0.00013662      -0.00036059
O        4.15875517       4.47449246       2.08532974        7      -0.00020815       0.00013662       0.00036059
O        6.31254998       4.34663312       4.38129551        8       0.00000000      -0.00024898       0.00036059
O        5.23760676       1.53679218       3.44538425        9       0.00020815      -0.00038561       0.00000000
