10
Lattice="5.679732970448984 -0.044988809550044154 -0.031064140812804054 3.0789826902599144 4.7729714226747575 -0.03106414081280011 3.07898269025991 1.6620446638043425 4.474352323860278" Properties=species:S:1:pos:R:3:spacegroup_kinds:I:1:forces:R:3 spacegroup="P 1" unit_cell=conventional occupancy="_JSON {\"0\": {\"In\": 1}, \"1\": {\"In\": 1}, \"2\": {\"In\": 1}, \"3\": {\"In\": 1}, \"4\": {\"O\": 1}, \"5\": {\"O\": 1}, \"6\": {\"O\": 1}, \"7\": {\"O\": 1}, \"8\": {\"O\": 1}, \"9\": {\"O\": 1}}" n_minim_iter=4 energy=-11287.283687618072 stress="-0.08611061499334119 -7.716660926761825e-05 -5.328245808201147e-05 -7.716660926761825e-05 -0.08600931654733085 -2.876204169621637e-05 -5.328245808201147e-05 -2.876204169621637e-05 -0.08598752154921735" free_energy=-11287.283687618072 pbc="T T T"
In      10.17836904       5.49431603       3.79374801        0      -0.00599092      -0.00323392      -0.00223298
In       7.57817849       4.09072489       2.82458805        1       0.00599092       0.00323392       0.00223298
In       4.25951987       2.29930240       1.58763599        2      -0.00599092      -0.00323392      -0.00223298
In       1.65932932       0.89571125       0.61847603        3       0.00599092       0.00323392       0.00223297
O        5.79929108       2.22263759       0.14959729        4      -0.00000000       0.00373077      -0.00540311
O        6.79736455       4.96448938       1.07199187        5      -0.00311894       0.00577793       0.00000000
O        7.88020029       2.05066867       2.38677346        6       0.00311894      -0.00204716      -0.00540311
O        3.95749807       4.33935862       2.02545059        7      -0.00311894       0.00204716       0.00540311
O        6.03840728       4.16738970       4.26262675        8       0.00000000      -0.00373077       0.00540311
O        5.04033381       1.42553791       3.34023217        9       0.00311894      -0.00577793       0.00000000
