10
Lattice="5.174175098266002 -0.2366970934735002 -0.1634360169825091 2.641302960327266 4.455517044445146 -0.163436016982492 2.6413029603272706 1.4257837514286025 4.224391572658774" Properties=species:S:1:pos:R:3:spacegroup_kinds:I:1:forces:R:3 spacegroup="P 1" unit_cell=conventional occupancy="_JSON {\"0\": {\"In\": 1}, \"1\": {\"In\": 1}, \"2\": {\"In\": 1}, \"3\": {\"In\": 1}, \"4\": {\"O\": 1}, \"5\": {\"O\": 1}, \"6\": {\"O\": 1}, \"7\": {\"O\": 1}, \"8\": {\"O\": 1}, \"9\": {\"O\": 1}}" n_minim_iter=1 energy=-11282.974457116848 stress="-0.38380308807156305 0.010855692009236723 0.007495702787509734 0.010855692009236723 -0.39805361399031 0.00404620424141155 0.007495702787509734 0.00404620424141155 -0.4011197039444502" free_energy=-11282.974457116848 pbc="T T T"
In       9.11154503       4.91844103       3.39611442        0       0.10094544       0.05449067       0.03762504
In       6.57362649       3.54846452       2.45016489        1      -0.10094544      -0.05449067      -0.03762504
In       3.88315452       2.09613918       1.44735465        2       0.10094544       0.05449067       0.03762504
In       1.34523598       0.72616267       0.50140512        3      -0.10094544      -0.05449067      -0.03762504
O        5.20128280       1.94958832      -0.05853191        4      -0.00000000      -0.05882250       0.08519000
O        5.97285795       4.53773964       0.81094387        5       0.04917590      -0.09109969       0.00000000
O        7.07101060       1.64530146       2.05366387        6      -0.04917590       0.03227719       0.08519000
O        3.38577040       3.99930224       1.84385566        7       0.04917590      -0.03227719      -0.08519000
O        5.25549821       3.69501538       3.95605145        8       0.00000000       0.05882250      -0.08519000
O        4.48392305       1.10686406       3.08657567        9      -0.04917590       0.09109969      -0.00000000
10
Lattice="5.1453244982443005 -0.2689989169081802 -0.1857399721598348 2.598467520395485 4.449122515168632 -0.18573997215981752 2.5984675203954892 1.4026610445080505 4.226314291017404" Properties=species:S:1:pos:R:3:spacegroup_kinds:I:1:forces:R:3 spacegroup="P 1" unit_cell=conventional occupancy="_JSON {\"0\": {\"In\": 1}, \"1\": {\"In\": 1}, \"2\": {\"In\": 1}, \"3\": {\"In\": 1}, \"4\": {\"O\": 1}, \"5\": {\"O\": 1}, \"6\": {\"O\": 1}, \"7\": {\"O\": 1}, \"8\": {\"O\": 1}, \"9\": {\"O\": 1}}" n_minim_iter=2 energy=-11282.991984804554 stress="-0.3839013259035232 -0.0004190367909909643 -0.0002893390178251175 -0.0004190367909909643 -0.38335124631031403 -0.00015618612433602834 -0.0002893390178251175 -0.00015618612433602834 -0.3832328932357876" free_energy=-11282.991984804554 pbc="T T T"
In       9.01231500       4.86487635       3.35912875        0       0.26800064       0.14466760       0.09989094
In       6.50107430       3.50930062       2.42312276        1      -0.26800064      -0.14466760      -0.09989094
In       3.84118523       2.07348402       1.43171158        2       0.26800064       0.14466760       0.09989094
In       1.32994453       0.71790830       0.49570559        3      -0.26800064      -0.14466760      -0.09989094
O        5.15822713       1.92127807      -0.08512780        4       0.00000000      -0.17682782       0.25609184
O        5.90562957       4.50804039       0.77796861        5       0.14782894      -0.27385710       0.00000000
O        7.00929220       1.60032616       2.02802934        6      -0.14782894       0.09702929       0.25609184
O        3.33296733       3.98245848       1.82680500        7       0.14782894      -0.09702929      -0.25609184
O        5.18403240       3.66150657       3.93996215        8      -0.00000000       0.17682782      -0.25609184
O        4.43662995       1.07474425       3.07686573        9      -0.14782894       0.27385710       0.00000000
10
Lattice="5.126220817402874 -0.2905925178981161 -0.20065005021070748 2.569932555297916 4.445000623335485 -0.2006500502106901 2.5699325552979206 1.3872577794548604 4.227742522605221" Properties=species:S:1:pos:R:3:spacegroup_kinds:I:1:forces:R:3 spacegroup="P 1" unit_cell=conventional occupancy="_JSON {\"0\": {\"In\": 1}, \"1\": {\"In\": 1}, \"2\": {\"In\": 1}, \"3\": {\"In\": 1}, \"4\": {\"O\": 1}, \"5\": {\"O\": 1}, \"6\": {\"O\": 1}, \"7\": {\"O\": 1}, \"8\": {\"O\": 1}, \"9\": {\"O\": 1}}" n_minim_iter=3 energy=-11283.007722437887 stress="-0.37537510714719863 -0.002154497614548036 -0.0014876503288026135 -0.002154497614548036 -0.3725468467201015 -0.0008030383877519627 -0.0014876503288026135 -0.0008030383877519627 -0.37193832876699723" free_energy=-11283.007722437887 pbc="T T T"
In       8.95456579       4.83370314       3.33760409        0       0.07742458       0.04179404       0.02885819
In       6.44456309       3.47879569       2.40205954        1      -0.07742458      -0.04179404      -0.02885819
In       3.82152283       2.06287020       1.42438288        2       0.07742458       0.04179404       0.02885819
In       1.31152012       0.70796274       0.48883832        3      -0.07742458      -0.04179404      -0.02885819
O        5.12963188       1.89674017      -0.09466782        4       0.00000000       0.00211601      -0.00306452
O        5.86566061       4.47954219       0.75596055        5      -0.00176900       0.00327711      -0.00000000
O        6.96353572       1.57344739       2.01920345        6       0.00176900      -0.00116110      -0.00306452
O        3.30255020       3.96821850       1.80723897        7      -0.00176900       0.00116110       0.00306452
O        5.13645403       3.64492572       3.92111023        8       0.00000000      -0.00211601       0.00306452
O        4.40042531       1.06212369       3.07048186        9       0.00176900      -0.00327711       0.00000000
10
Lattice="5.131050215117781 -0.2851179284705456 -0.19686992313974788 2.577159335381714 4.446033997086666 -0.19686992313973048 2.577159335381719 1.391158818363836 4.227369538137869" Properties=species:S:1:pos:R:3:spacegroup_kinds:I:1:forces:R:3 spacegroup="P 1" unit_cell=conventional occupancy="_JSON {\"0\": {\"In\": 1}, \"1\": {\"In\": 1}, \"2\": {\"In\": 1}, \"3\": {\"In\": 1}, \"4\": {\"O\": 1}, \"5\": {\"O\": 1}, \"6\": {\"O\": 1}, \"7\": {\"O\": 1}, \"8\": {\"O\": 1}, \"9\": {\"O\": 1}}" n_minim_iter=4 energy=-11283.008551237046 stress="-0.3748424738372407 0.00018440360256996515 0.00012732809685101336 0.00018440360256996515 -0.3750845448518815 6.873211139948431e-05 0.00012732809685101336 6.873211139948431e-05 -0.3751366279448417" free_energy=-11283.008551237046 pbc="T T T"
In       8.97217705       4.84320975       3.34416828        0       0.04082884       0.02203954       0.01521799
In       6.45587627       3.48490258       2.40627626        1      -0.04082884      -0.02203954      -0.01521799
In       3.82949260       2.06717231       1.42735343        2       0.04082884       0.02203954       0.01521799
In       1.31319183       0.70886513       0.48946141        3      -0.04082884      -0.02203954      -0.01521799
O        5.13686732       1.90168299      -0.09040638        4       0.00000000       0.02071486      -0.03000041
O        5.87684109       4.48478402       0.76153750        5      -0.01731773       0.03208156       0.00000000
O        6.97405289       1.58095514       2.02327838        6       0.01731773      -0.01136670      -0.03000041
O        3.31131598       3.97111975       1.81035130        7      -0.01731773       0.01136670       0.03000041
O        5.14850155       3.65039189       3.92403607        8       0.00000000      -0.02071486       0.03000041
O        4.40852778       1.06729087       3.07209219        9       0.01731773      -0.03208156      -0.00000000
10
Lattice="5.132000189357529 -0.28404230308449613 -0.19612721892533866 2.5785798351853875 4.446237961140018 -0.19612721892532126 2.5785798351853937 1.3919256086826308 4.227297126176414" Properties=species:S:1:pos:R:3:spacegroup_kinds:I:1:forces:R:3 spacegroup="P 1" unit_cell=conventional occupancy="_JSON {\"0\": {\"In\": 1}, \"1\": {\"In\": 1}, \"2\": {\"In\": 1}, \"3\": {\"In\": 1}, \"4\": {\"O\": 1}, \"5\": {\"O\": 1}, \"6\": {\"O\": 1}, \"7\": {\"O\": 1}, \"8\": {\"O\": 1}, \"9\": {\"O\": 1}}" n_minim_iter=5 energy=-11283.009015727344 stress="-0.37512440202911956 0.0006621893482783917 0.00045723243895272596 0.0006621893482783917 -0.3759936737828693 0.00024681552643816097 0.00045723243895272596 0.00024681552643816097 -0.3761807030490519" free_energy=-11283.009015727344 pbc="T T T"
In       8.97814837       4.84643309       3.34639395        0      -0.00498450      -0.00269065      -0.00185786
In       6.45559141       3.48474881       2.40617008        1       0.00498450       0.00269065       0.00185786
In       3.83356844       2.06937246       1.42887260        2      -0.00498450      -0.00269065      -0.00185786
In       1.31101148       0.70768817       0.48864874        3       0.00498450       0.00269065       0.00185786
O        5.13829005       1.90345871      -0.09073367        4       0.00000000       0.00906211      -0.01312425
O        5.87836687       4.48706026       0.76263345        5      -0.00757597       0.01403469      -0.00000000
O        6.97679307       1.58198940       2.02291489        6       0.00757597      -0.00497258      -0.01312425
O        3.31236678       3.97213187       1.81212779        7      -0.00757597       0.00497258       0.01312425
O        5.15086979       3.65066255       3.92577635        8       0.00000000      -0.00906211       0.01312425
O        4.41079298       1.06706100       3.07240923        9       0.00757597      -0.01403469       0.00000000
10
Lattice="5.130901104905289 -0.2852867987741579 -0.19698652571143146 2.5769363389349444 4.446002003030322 -0.19698652571141406 2.576936338934952 1.39103844417155 4.227380932574948" Properties=species:S:1:pos:R:3:spacegroup_kinds:I:1:forces:R:3 spacegroup="P 1" unit_cell=conventional occupancy="_JSON {\"0\": {\"In\": 1}, \"1\": {\"In\": 1}, \"2\": {\"In\": 1}, \"3\": {\"In\": 1}, \"4\": {\"O\": 1}, \"5\": {\"O\": 1}, \"6\": {\"O\": 1}, \"7\": {\"O\": 1}, \"8\": {\"O\": 1}, \"9\": {\"O\": 1}}" n_minim_iter=6 energy=-11283.009065690965 stress="-0.3753245360786476 7.959215729587818e-05 5.495726596932141e-05 7.959215729587818e-05 -0.3754290186056348 2.9666106215609974e-05 5.495726596932141e-05 2.9666106215609974e-05 -0.37545149867592814" free_energy=-11283.009065690965 pbc="T T T"
In       8.97445525       4.84443953       3.34501742        0      -0.00112742      -0.00060858      -0.00042022
In       6.45270541       3.48319094       2.40509440        1       0.00112742       0.00060858       0.00042022
In       3.83206836       2.06856271       1.42831348        2      -0.00112742      -0.00060858      -0.00042022
In       1.31031852       0.70731411       0.48839046        3       0.00112742       0.00060858       0.00042022
O        5.13664399       1.90247969      -0.09191255        4      -0.00000000       0.00144792      -0.00209695
O        5.87570249       4.48609228       0.76136544        5      -0.00121046       0.00224242      -0.00000000
O        6.97452183       1.58020265       2.02177792        6       0.00121046      -0.00079450      -0.00209695
O        3.31025194       3.97155100       1.81162996        7      -0.00121046       0.00079450       0.00209695
O        5.14812978       3.64927396       3.92532043        8       0.00000000      -0.00144792       0.00209695
O        4.40907128       1.06566137       3.07204243        9       0.00121046      -0.00224242      -0.00000000
