10
Lattice="6.3132172277778436 0.07301842907372613 0.0504181992224777 3.525243981066546 5.237814270289608 0.050418199222479254 3.525243981066547 1.9029379300750457 4.8801708534787975" Properties=species:S:1:pos:R:3:spacegroup_kinds:I:1:forces:R:3 spacegroup="P 1" unit_cell=conventional occupancy="_JSON {\"0\": {\"In\": 1}, \"1\": {\"In\": 1}, \"2\": {\"In\": 1}, \"3\": {\"In\": 1}, \"4\": {\"O\": 1}, \"5\": {\"O\": 1}, \"6\": {\"O\": 1}, \"7\": {\"O\": 1}, \"8\": {\"O\": 1}, \"9\": {\"O\": 1}}" n_minim_iter=1 energy=-11285.948629969693 stress="0.1099614153528162 -0.0011405714075262956 -0.0007875485296925097 -0.0011405714075262956 0.11145867065484037 -0.00042512120550185234 -0.0007875485296925097 -0.00042512120550185234 0.11178081451478879" free_energy=-11285.948629969693 pbc="T T T"
In      11.37690915       6.14129180       4.24047569        0      -0.02730107      -0.01473721      -0.01017583
In       8.66864864       4.67936415       3.23103519        1       0.02730107       0.01473721       0.01017583
In       4.69505656       2.53440649       1.74997207        2      -0.02730107      -0.01473721      -0.01017583
In       1.98679605       1.07247884       0.74053157        3       0.02730107       0.01473721       0.01017583
O        6.49753492       2.51528895       0.29240036        4       0.00000000       0.05475328      -0.07929673
O        7.69557175       5.50476828       1.29567001        5      -0.04577401       0.08479760      -0.00000000
O        8.82474206       2.42084864       2.73248579        6       0.04577401      -0.03004432      -0.07929673
O        4.53896314       4.79292200       2.24852147        7      -0.04577401       0.03004432       0.07929673
O        6.86617028       4.69848170       4.68860689        8      -0.00000000      -0.05475328       0.07929673
O        5.66813345       1.70900236       3.68533724        9       0.04577401      -0.08479760       0.00000000
10
Lattice="6.322287781965137 0.08219468040989567 0.05675427182567529 3.537892584168824 5.240362089241214 0.05675427182567683 3.5378925841688265 1.9097656863197383 4.880308483803327" Properties=species:S:1:pos:R:3:spacegroup_kinds:I:1:forces:R:3 spacegroup="P 1" unit_cell=conventional occupancy="_JSON {\"0\": {\"In\": 1}, \"1\": {\"In\": 1}, \"2\": {\"In\": 1}, \"3\": {\"In\": 1}, \"4\": {\"O\": 1}, \"5\": {\"O\": 1}, \"6\": {\"O\": 1}, \"7\": {\"O\": 1}, \"8\": {\"O\": 1}, \"9\": {\"O\": 1}}" n_minim_iter=2 energy=-11285.949492604766 stress="0.11081038946120773 0.0003670014221172848 0.00025340932412773904 0.0003670014221172848 0.1103286179401594 0.00013679115990782042 0.00025340932412773904 0.00013679115990782042 0.11022496177680306" free_energy=-11285.949492604766 pbc="T T T"
In      11.40594788       6.15696700       4.25129919        0      -0.02828480      -0.01526822      -0.01054249
In       8.69116156       4.69151670       3.23942635        1       0.02828480       0.01526822       0.01054249
In       4.70691140       2.54080577       1.75439068        2      -0.02828480      -0.01526822      -0.01054249
In       1.99212508       1.07535547       0.74251784        3       0.02828480       0.01526822       0.01054249
O        6.51066213       2.52408692       0.29939086        4      -0.00000000       0.04522887      -0.06550295
O        7.71538117       5.51460525       1.30520853        5      -0.03781156       0.07004694       0.00000000
O        8.84383568       2.43372351       2.73954510        6       0.03781156      -0.02481807      -0.06550295
O        4.55423728       4.79859895       2.25427193        7      -0.03781156       0.02481807       0.06550295
O        6.88741083       4.70823555       4.69442618        8       0.00000000      -0.04522887       0.06550295
O        5.68269179       1.71771722       3.68860850        9       0.03781156      -0.07004694       0.00000000
10
Lattice="6.318301013768843 0.07816401988634512 0.05397115737289274 3.5323353050724076 5.239240842635134 0.0539711573728943 3.532335305072409 1.9067658493616777 4.880246047964424" Properties=species:S:1:pos:R:3:spacegroup_kinds:I:1:forces:R:3 spacegroup="P 1" unit_cell=conventional occupancy="_JSON {\"0\": {\"In\": 1}, \"1\": {\"In\": 1}, \"2\": {\"In\": 1}, \"3\": {\"In\": 1}, \"4\": {\"O\": 1}, \"5\": {\"O\": 1}, \"6\": {\"O\": 1}, \"7\": {\"O\": 1}, \"8\": {\"O\": 1}, \"9\": {\"O\": 1}}" n_minim_iter=3 energy=-11285.952298180368 stress="0.10926534079674316 0.00016457628298924526 0.00011363760917171674 0.00016457628298924526 0.10904929758563467 6.134194448524263e-05 0.00011363760917171674 6.134194448524263e-05 0.109002814533489" free_energy=-11285.952298180368 pbc="T T T"
In      11.39052010       6.14863904       4.24554885        0      -0.03234262      -0.01745865      -0.01205495
In       8.68393734       4.68761704       3.23673370        1       0.03234262       0.01745865       0.01205495
In       4.69903429       2.53655368       1.75145467        2      -0.03234262      -0.01745865      -0.01205495
In       1.99245153       1.07553169       0.74263951        3       0.03234262       0.01745865       0.01205495
O        6.50489342       2.52472234       0.28980172        4      -0.00000000       0.01012422      -0.01466245
O        7.70291405       5.51725283       1.30101825        5      -0.00846390       0.01567960      -0.00000000
O        8.83920809       2.42559755       2.72992474        6       0.00846390      -0.00555538      -0.01466245
O        4.54376355       4.79857318       2.25826363        7      -0.00846390       0.00555538       0.01466245
O        6.87807822       4.69944839       4.69838665        8       0.00000000      -0.01012422       0.01466245
O        5.68005758       1.70691789       3.68717012        9       0.00846390      -0.01567960      -0.00000000
10
Lattice="6.31594169942 0.07577683792765948 0.05232284177503454 3.5290450017290826 5.238578342967642 0.0523228417750361 3.529045001729083 1.9049897331362204 4.880210533555564" Properties=species:S:1:pos:R:3:spacegroup_kinds:I:1:forces:R:3 spacegroup="P 1" unit_cell=conventional occupancy="_JSON {\"0\": {\"In\": 1}, \"1\": {\"In\": 1}, \"2\": {\"In\": 1}, \"3\": {\"In\": 1}, \"4\": {\"O\": 1}, \"5\": {\"O\": 1}, \"6\": {\"O\": 1}, \"7\": {\"O\": 1}, \"8\": {\"O\": 1}, \"9\": {\"O\": 1}}" n_minim_iter=4 energy=-11285.95271119606 stress="0.1084151240192525 -1.4816487505594883e-05 -1.023057665266173e-05 -1.4816487505594883e-05 0.10843457397132278 -5.5224992086120674e-06 -1.023057665266173e-05 -5.5224992086120674e-06 0.10843875875331724" free_energy=-11285.95271119606 pbc="T T T"
In      11.38113195       6.14357128       4.24204964        0      -0.03144686      -0.01697511      -0.01172108
In       8.67991562       4.68544610       3.23523469        1       0.03144686       0.01697511       0.01172108
In       4.69411610       2.53389882       1.74962153        2      -0.03144686      -0.01697511      -0.01172108
In       1.99289977       1.07577364       0.74280658        3       0.03144686       0.01697511       0.01172108
O        6.50147878       2.52461881       0.28481858        4      -0.00000000      -0.00676281       0.00979428
O        7.69593436       5.51807821       1.29853690        5       0.00565374      -0.01047371       0.00000000
O        8.83606820       2.42104930       2.72492385        6      -0.00565374       0.00371090       0.00979428
O        4.53796351       4.79829563       2.25993238        7       0.00565374      -0.00371090      -0.00979428
O        6.87255293       4.69472611       4.70003764        8       0.00000000       0.00676281      -0.00979428
O        5.67809735       1.70126672       3.68631932        9      -0.00565374       0.01047371      -0.00000000
10
Lattice="6.315104241551591 0.07492914894437545 0.05173752444377882 3.5278767980854813 5.238343369478033 0.05173752444378038 3.5278767980854817 1.9043591330882805 4.880198184522154" Properties=species:S:1:pos:R:3:spacegroup_kinds:I:1:forces:R:3 spacegroup="P 1" unit_cell=conventional occupancy="_JSON {\"0\": {\"In\": 1}, \"1\": {\"In\": 1}, \"2\": {\"In\": 1}, \"3\": {\"In\": 1}, \"4\": {\"O\": 1}, \"5\": {\"O\": 1}, \"6\": {\"O\": 1}, \"7\": {\"O\": 1}, \"8\": {\"O\": 1}, \"9\": {\"O\": 1}}" n_minim_iter=5 energy=-11285.953095861872 stress="0.10789502103734398 -9.040573153254694e-05 -6.242388679867174e-05 -9.040573153254694e-05 0.10801369879703002 -3.369661245166097e-05 -6.242388679867174e-05 -3.369661245166097e-05 0.10803923306307862" free_energy=-11285.953095861872 pbc="T T T"
In      11.37492755       6.14022213       4.23973710        0      -0.02007241      -0.01083515      -0.00748152
In       8.68135922       4.68622536       3.23577276        1       0.02007241       0.01083515       0.00748152
In       4.68949863       2.53140630       1.74790048        2      -0.02007241      -0.01083515      -0.00748152
In       1.99593030       1.07740954       0.74393614        3       0.02007241       0.01083515       0.00748152
O        6.50026659       2.52462177       0.28299175        4      -0.00000000      -0.01099175       0.01591886
O        7.69342318       5.51843290       1.29765584        5       0.00918915      -0.01702316      -0.00000000
O        8.83498678       2.41941262       2.72309084        6      -0.00918915       0.00603141       0.01591886
O        4.53587106       4.79821905       2.26058240        7       0.00918915      -0.00603141      -0.01591886
O        6.87059126       4.69300989       4.70068149        8       0.00000000       0.01099175      -0.01591886
O        5.67743466       1.69919876       3.68601740        9      -0.00918915       0.01702316       0.00000000
10
Lattice="6.315615907000965 0.07544708649000488 0.052095153040992014 3.5285905584656723 5.238486920698601 0.05209515304099358 3.528590558465674 1.904744423215077 4.880205713444032" Properties=species:S:1:pos:R:3:spacegroup_kinds:I:1:forces:R:3 spacegroup="P 1" unit_cell=conventional occupancy="_JSON {\"0\": {\"In\": 1}, \"1\": {\"In\": 1}, \"2\": {\"In\": 1}, \"3\": {\"In\": 1}, \"4\": {\"O\": 1}, \"5\": {\"O\": 1}, \"6\": {\"O\": 1}, \"7\": {\"O\": 1}, \"8\": {\"O\": 1}, \"9\": {\"O\": 1}}" n_minim_iter=6 energy=-11285.953420284199 stress="0.10771596045371822 -6.320789917165484e-05 -4.364416719029952e-05 -6.320789917165484e-05 0.10779893497450045 -2.355926061899613e-05 -4.364416719029952e-05 -2.355926061899613e-05 0.10781678746265635" free_energy=-11285.953420284199 pbc="T T T"
In      11.37254399       6.13893548       4.23884868        0      -0.00380211      -0.00205239      -0.00141715
In       8.68665156       4.68908218       3.23774535        1       0.00380211       0.00205239       0.00141715
In       4.68614548       2.52959626       1.74665067        2      -0.00380211      -0.00205239      -0.00141715
In       2.00025304       1.07974297       0.74554734        3       0.00380211       0.00205239       0.00141715
O        6.50100721       2.52480244       0.28384365        4       0.00000000      -0.00537325       0.00778184
O        7.69480493       5.51849879       1.29819416        5       0.00449206      -0.00832167      -0.00000000
O        8.83580006       2.42031249       2.72394651        6      -0.00449206       0.00294842       0.00778184
O        4.53699698       4.79836596       2.26044951        7       0.00449206      -0.00294842      -0.00778184
O        6.87178982       4.69387600       4.70055237        8      -0.00000000       0.00537325      -0.00778184
O        5.67799211       1.70017966       3.68620186        9      -0.00449206       0.00832167      -0.00000000
