10
Lattice="6.118740361476919 0.05672357580224441 0.0391668320133538 3.4049076974453794 5.084171982446669 0.039166832013352026 3.404907697445374 1.8379800208645325 4.740481856386387" Properties=species:S:1:pos:R:3:spacegroup_kinds:I:1:forces:R:3 spacegroup="P 1" unit_cell=conventional occupancy="_JSON {\"0\": {\"In\": 1}, \"1\": {\"In\": 1}, \"2\": {\"In\": 1}, \"3\": {\"In\": 1}, \"4\": {\"O\": 1}, \"5\": {\"O\": 1}, \"6\": {\"O\": 1}, \"7\": {\"O\": 1}, \"8\": {\"O\": 1}, \"9\": {\"O\": 1}}" n_minim_iter=1 energy=-11287.181073413936 stress="0.07075977673330913 -0.0004531186912885481 -0.0003128720889702649 -0.0004531186912885481 0.07135459645038093 -0.0001688893497148838 -0.0003128720889702649 -0.0001688893497148838 0.07148257564411906" free_energy=-11287.181073413936 pbc="T T T"
In      11.03652021       5.95754877       4.11360371        0      -0.02607496      -0.01407534      -0.00971883
In       8.35631344       4.51076461       3.11461958        1       0.02607496       0.01407534       0.00971883
In       4.57224233       2.46811098       1.70419595        2      -0.02607496      -0.01407534      -0.00971883
In       1.89203556       1.02132682       0.70521182        3       0.02607496       0.01407534       0.00971883
O        6.29150912       2.42242841       0.28386596        4      -0.00000000      -0.00632469       0.00915976
O        7.45110504       5.32082568       1.24387071        5       0.00528747      -0.00979518       0.00000000
O        8.53682091       2.33575942       2.65410689        6      -0.00528747       0.00347049       0.00915976
O        4.39173486       4.64311617       2.16470864        7       0.00528747      -0.00347049      -0.00915976
O        6.63704664       4.55644718       4.53494957        8      -0.00000000       0.00632469      -0.00915976
O        5.47745072       1.65804991       3.57494481        9      -0.00528747       0.00979518      -0.00000000
10
Lattice="6.12441915463149 0.06249177090799568 0.04314968967935852 3.4128460151734195 5.085754347170459 0.04314968967935675 3.4128460151734146 1.8422651500603584 4.740550420822015" Properties=species:S:1:pos:R:3:spacegroup_kinds:I:1:forces:R:3 spacegroup="P 1" unit_cell=conventional occupancy="_JSON {\"0\": {\"In\": 1}, \"1\": {\"In\": 1}, \"2\": {\"In\": 1}, \"3\": {\"In\": 1}, \"4\": {\"O\": 1}, \"5\": {\"O\": 1}, \"6\": {\"O\": 1}, \"7\": {\"O\": 1}, \"8\": {\"O\": 1}, \"9\": {\"O\": 1}}" n_minim_iter=2 energy=-11287.181198356448 stress="0.07138171277729542 0.0002972711903124484 0.00020526158025879567 0.0002972711903124484 0.07099147778952042 0.00011080085534594386 0.00020526158025879567 0.00011080085534594386 0.07090751628827888" free_energy=-11287.181198356448 pbc="T T T"
In      11.05454798       5.96728021       4.12032313        0      -0.03159771      -0.01705655      -0.01177731
In       8.37061881       4.51848670       3.11995157        1       0.03159771       0.01705655       0.01177731
In       4.57949239       2.47202458       1.70689823        2      -0.03159771      -0.01705655      -0.01177731
In       1.89556322       1.02323107       0.70652667        3       0.03159771       0.01705655       0.01177731
O        6.29973738       2.42759051       0.28877969        4       0.00000000      -0.00851864       0.01233717
O        7.46382991       5.32643276       1.24986214        5       0.00712163      -0.01319301      -0.00000000
O        8.54849086       2.34404120       2.65905490        6      -0.00712163       0.00467437       0.01233717
O        4.40162033       4.64647008       2.16779490        7       0.00712163      -0.00467437      -0.01233717
O        6.65037382       4.56292077       4.53807011        8      -0.00000000       0.00851864      -0.01233717
O        5.48628129       1.66407852       3.57698766        9      -0.00712163       0.01319301      -0.00000000
10
Lattice="6.120337151939641 0.05834636870497819 0.040287347709250965 3.4071405542127278 5.084616445317449 0.040287347709249195 3.4071405542127233 1.8391853240599518 4.740500480976734" Properties=species:S:1:pos:R:3:spacegroup_kinds:I:1:forces:R:3 spacegroup="P 1" unit_cell=conventional occupancy="_JSON {\"0\": {\"In\": 1}, \"1\": {\"In\": 1}, \"2\": {\"In\": 1}, \"3\": {\"In\": 1}, \"4\": {\"O\": 1}, \"5\": {\"O\": 1}, \"6\": {\"O\": 1}, \"7\": {\"O\": 1}, \"8\": {\"O\": 1}, \"9\": {\"O\": 1}}" n_minim_iter=3 energy=-11287.181466096088 stress="0.07068756864414719 -0.0004249396273016534 -0.00029341484261695747 -0.0004249396273016534 0.07124539702964247 -0.00015838626938451133 -0.00029341484261695747 -0.00015838626938451133 0.07136541730601462" free_energy=-11287.181466096088 pbc="T T T"
In      11.03952737       5.95917204       4.11472455        0      -0.01803499      -0.00973534      -0.00672212
In       8.36240003       4.51405018       3.11688821        1       0.01803499       0.00973534       0.00672212
In       4.57221824       2.46809797       1.70418697        2      -0.01803499      -0.00973534      -0.00672212
In       1.89509090       1.02297611       0.70635063        3       0.01803499       0.00973534       0.00672212
O        6.29382315       2.42334494       0.28602375        4      -0.00000000      -0.00125847       0.00182259
O        7.45513157       5.32157320       1.24555614        5       0.00105209      -0.00194902       0.00000000
O        8.53965528       2.33838285       2.65627399        6      -0.00105209       0.00069055       0.00182259
O        4.39496299       4.64376530       2.16480119        7       0.00105209      -0.00069055      -0.00182259
O        6.64079512       4.55880321       4.53505143        8      -0.00000000       0.00125847      -0.00182259
O        5.47948670       1.66057495       3.57551904        9      -0.00105209       0.00194902      -0.00000000
10
Lattice="6.126169097274398 0.06426754362123924 0.044375835784744654 3.41529080177205 5.086242902663429 0.044375835784742884 3.4152908017720454 1.8435848536537711 4.74057285220617" Properties=species:S:1:pos:R:3:spacegroup_kinds:I:1:forces:R:3 spacegroup="P 1" unit_cell=conventional occupancy="_JSON {\"0\": {\"In\": 1}, \"1\": {\"In\": 1}, \"2\": {\"In\": 1}, \"3\": {\"In\": 1}, \"4\": {\"O\": 1}, \"5\": {\"O\": 1}, \"6\": {\"O\": 1}, \"7\": {\"O\": 1}, \"8\": {\"O\": 1}, \"9\": {\"O\": 1}}" n_minim_iter=4 energy=-11287.18184097122 stress="0.07089635137855219 1.4222478885802073e-05 9.820423256847272e-06 1.4222478885802073e-05 0.07087768119254931 5.3010960969899776e-06 9.820423256847272e-06 5.3010960969899776e-06 0.07087366418304862" free_energy=-11287.18184097122 pbc="T T T"
In      11.05402996       5.96700059       4.12013005        0      -0.00430005      -0.00232118      -0.00160274
In       8.38109610       4.52414238       3.12385674        1       0.00430005       0.00232118       0.00160274
In       4.57565461       2.46995294       1.70546779        2      -0.00430005      -0.00232118      -0.00160274
In       1.90272075       1.02709473       0.70919447        3       0.00430005       0.00232118       0.00160274
O        6.30227223       2.42773366       0.29238766        4      -0.00000000       0.00594942      -0.00861627
O        7.46895882       5.32591987       1.25170697        5      -0.00497374       0.00921399      -0.00000000
O        8.55087644       2.34738526       2.66267409        6       0.00497374      -0.00326457      -0.00861627
O        4.40587427       4.64671005       2.16665044        7      -0.00497374       0.00326457       0.00861627
O        6.65447848       4.56636166       4.53693686        8      -0.00000000      -0.00594942       0.00861627
O        5.48779189       1.66817544       3.57761756        9       0.00497374      -0.00921399       0.00000000
10
Lattice="6.1257314091025075 0.06382347072168996 0.04406920968770588 3.41467938555249 5.086120665670721 0.0440692096877041 3.4146793855524855 1.843254809230885 4.740567184341188" Properties=species:S:1:pos:R:3:spacegroup_kinds:I:1:forces:R:3 spacegroup="P 1" unit_cell=conventional occupancy="_JSON {\"0\": {\"In\": 1}, \"1\": {\"In\": 1}, \"2\": {\"In\": 1}, \"3\": {\"In\": 1}, \"4\": {\"O\": 1}, \"5\": {\"O\": 1}, \"6\": {\"O\": 1}, \"7\": {\"O\": 1}, \"8\": {\"O\": 1}, \"9\": {\"O\": 1}}" n_minim_iter=5 energy=-11287.181873617094 stress="0.07085911900127315 -1.978815565583155e-05 -1.3663441180756239e-05 -1.978815565583155e-05 0.07088509537947045 -7.375569284550416e-06 -1.3663441180756239e-05 -7.375569284550416e-06 0.07089068436190567" free_energy=-11287.181873617094 pbc="T T T"
In      11.05238450       5.96611236       4.11951675        0      -0.00220872      -0.00119227      -0.00082325
In       8.38025078       4.52368607       3.12354166        1       0.00220872       0.00119227       0.00082325
In       4.57483941       2.46951289       1.70516395        2      -0.00220872      -0.00119227      -0.00082325
In       1.90270569       1.02708660       0.70918886        3       0.00220872       0.00119227       0.00082325
O        6.30163825       2.42776774       0.29138416        4       0.00000000       0.00104295      -0.00151046
O        7.46761769       5.32615633       1.25124561        5      -0.00087191       0.00161524      -0.00000000
O        8.55033821       2.34651062       2.66166775        6       0.00087191      -0.00057229      -0.00151046
O        4.40475198       4.64668834       2.16703785        7      -0.00087191       0.00057229       0.00151046
O        6.65345194       4.56543122       4.53732145        8       0.00000000      -0.00104295       0.00151046
O        5.48747250       1.66704262       3.57746000        9       0.00087191      -0.00161524       0.00000000
