10
Lattice="5.187575814767442 -0.22181878163869423 -0.1531627517301895 2.6610945690922074 4.458556055517956 -0.1531627517301916 2.6610945690922065 1.4364673248829138 4.223593559193061" Properties=species:S:1:pos:R:3:spacegroup_kinds:I:1:forces:R:3 spacegroup="P 1" unit_cell=conventional occupancy="_JSON {\"0\": {\"In\": 1}, \"1\": {\"In\": 1}, \"2\": {\"In\": 1}, \"3\": {\"In\": 1}, \"4\": {\"O\": 1}, \"5\": {\"O\": 1}, \"6\": {\"O\": 1}, \"7\": {\"O\": 1}, \"8\": {\"O\": 1}, \"9\": {\"O\": 1}}" n_minim_iter=7 energy=-11283.084489376828 stress="-0.38522477705556385 2.2740268153641903e-08 1.5700501585528428e-08 2.2740268153641903e-08 -0.3852248069025575 8.475421702707462e-09 1.5700501585528428e-08 8.475421702707462e-09 -0.3852248133214976" free_energy=-11283.084489376828 pbc="T T T"
In       9.15233385       4.94045897       3.41131749        0       0.00000216       0.00000116       0.00000080
In       6.61231357       3.56934793       2.46458459        1      -0.00000216      -0.00000116      -0.00000080
In       3.89745137       2.10385667       1.45268347        2       0.00000216       0.00000116       0.00000080
In       1.35743109       0.73274563       0.50595056        3      -0.00000216      -0.00000116      -0.00000080
O        5.22122914       1.95727518      -0.03846153        4       0.00000000      -0.00000520       0.00000753
O        6.00847064       4.54315844       0.82615426        5       0.00000435      -0.00000806       0.00000000
O        7.09508220       1.66902019       2.07333525        6      -0.00000435       0.00000285       0.00000753
O        3.41468274       4.00418441       1.84393281        7       0.00000435      -0.00000285      -0.00000753
O        5.28853580       3.71592942       3.95572959        8       0.00000000       0.00000520      -0.00000753
O        4.50129430       1.13004616       3.09111379        9      -0.00000435       0.00000806      -0.00000000
