10
Lattice="5.549507249943251 -0.07142879980543526 -0.04932058255014895 2.985421028857908 4.678610271337773 -0.04932058255014182 2.9854210288579064 1.611539780953973 4.392580804644713" Properties=species:S:1:pos:R:3:spacegroup_kinds:I:1:forces:R:3 spacegroup="P 1" unit_cell=conventional occupancy="_JSON {\"0\": {\"In\": 1}, \"1\": {\"In\": 1}, \"2\": {\"In\": 1}, \"3\": {\"In\": 1}, \"4\": {\"O\": 1}, \"5\": {\"O\": 1}, \"6\": {\"O\": 1}, \"7\": {\"O\": 1}, \"8\": {\"O\": 1}, \"9\": {\"O\": 1}}" n_minim_iter=4 energy=-11286.464865122638 stress="-0.16601494140573583 -2.90280273283889e-05 -2.0043445714590437e-05 -2.90280273283889e-05 -0.16597683561974702 -1.081951829073052e-05 -2.0043445714590437e-05 -1.081951829073052e-05 -0.16596863692435732" free_energy=-11286.464865122638 pbc="T T T"
In       9.93412914       5.36247455       3.70271333        0      -0.00558635      -0.00301553      -0.00208218
In       7.34639483       3.96560733       2.73819614        1       0.00558635       0.00301553       0.00208218
In       4.17395448       2.25311393       1.55574351        2      -0.00558635      -0.00301553      -0.00208218
In       1.58622018       0.85624671       0.59122632        3       0.00558635       0.00301553       0.00208218
O        5.65484096       2.17413690       0.09996971        4       0.00000000       0.00359517      -0.00520673
O        6.59982526       4.87294867       1.02416433        5      -0.00300558       0.00556792      -0.00000000
O        7.69527768       1.96522918       2.29626011        6       0.00300558      -0.00197275      -0.00520673
O        3.82507164       4.25349208       1.99767953        7      -0.00300558       0.00197275       0.00520673
O        5.86550836       4.04458436       4.19396993        8      -0.00000000      -0.00359517       0.00520673
O        4.92052405       1.34577260       3.26977531        9       0.00300558      -0.00556792       0.00000000
