10
Lattice="5.681764755221193 -0.042869081157278395 -0.029600498143957675 3.0818696784548516 4.773506863597618 -0.029600498143958574 3.0818696784548445 1.6636030692280104 4.474334452671048" Properties=species:S:1:pos:R:3:spacegroup_kinds:I:1:forces:R:3 spacegroup="P 1" unit_cell=conventional occupancy="_JSON {\"0\": {\"In\": 1}, \"1\": {\"In\": 1}, \"2\": {\"In\": 1}, \"3\": {\"In\": 1}, \"4\": {\"O\": 1}, \"5\": {\"O\": 1}, \"6\": {\"O\": 1}, \"7\": {\"O\": 1}, \"8\": {\"O\": 1}, \"9\": {\"O\": 1}}" n_minim_iter=7 energy=-11287.294898652906 stress="-0.08555404683706062 -5.927931878860773e-05 -4.093153461816049e-05 -5.927931878860773e-05 -0.08547622945994723 -2.209497309156903e-05 -4.093153461816049e-05 -2.209497309156903e-05 -0.0854594865658765" free_energy=-11287.294898652906 pbc="T T T"
In      10.18339111       5.49702696       3.79561987        0       0.00074630       0.00040286       0.00027817
In       7.58486507       4.09433433       2.82708032        1      -0.00074630      -0.00040286      -0.00027817
In       4.26063906       2.29990654       1.58805314        2       0.00074630       0.00040286       0.00027817
In       1.66211301       0.89721390       0.61951359        3      -0.00074630      -0.00040286      -0.00027817
O        5.80225841       2.22816431       0.14611291        4      -0.00000000      -0.00113684       0.00164644
O        6.79892171       4.97215686       1.07418287        5       0.00095041      -0.00176065      -0.00000000
O        7.88746479       2.05168809       2.38328013        6      -0.00095041       0.00062381       0.00164644
O        3.95803933       4.34255277       2.03185333        7       0.00095041      -0.00062381      -0.00164644
O        6.04324571       4.16607655       4.26902055        8      -0.00000000       0.00113684      -0.00164644
O        5.04658241       1.42208400       3.34095059        9      -0.00095041       0.00176065       0.00000000
