10
Lattice="6.42296003596497 0.09749882343057517 0.06732156752806896 3.605927989072275 5.316126877887557 0.06732156752805482 3.6059279890722777 1.946491414602443 4.9474143093268435" Properties=species:S:1:pos:R:3:spacegroup_kinds:I:1:forces:R:3 spacegroup="P 1" unit_cell=conventional occupancy="_JSON {\"0\": {\"In\": 1}, \"1\": {\"In\": 1}, \"2\": {\"In\": 1}, \"3\": {\"In\": 1}, \"4\": {\"O\": 1}, \"5\": {\"O\": 1}, \"6\": {\"O\": 1}, \"7\": {\"O\": 1}, \"8\": {\"O\": 1}, \"9\": {\"O\": 1}}" n_minim_iter=7 energy=-11285.202637700557 stress="0.11848785593602633 -3.67938722328462e-06 -2.540565053871891e-06 -3.67938722328462e-06 0.11849268596011975 -1.3714050841824707e-06 -2.540565053871891e-06 -1.3714050841824707e-06 0.11849372516720966" free_energy=-11285.202637700557 pbc="T T T"
In      11.56209583       6.24125616       4.30949967        0       0.00009738       0.00005257       0.00003630
In       8.89012820       4.79891953       3.31358650        1      -0.00009738      -0.00005257      -0.00003630
In       4.74468782       2.56119760       1.76847095        2       0.00009738       0.00005257       0.00003630
In       2.07272020       1.11886097       0.77255777        3      -0.00009738      -0.00005257      -0.00003630
O        6.62018403       2.59249353       0.28501634        4      -0.00000000      -0.00055174       0.00079906
O        7.83483891       5.63670067       1.33783593        5       0.00046126      -0.00085449      -0.00000000
O        9.01145713       2.47588070       2.75872350        6      -0.00046126       0.00030275       0.00079906
O        4.62335890       4.88423643       2.32333395        7       0.00046126      -0.00030275      -0.00079906
O        7.01463200       4.76762360       4.79704110        8       0.00000000       0.00055174      -0.00079906
O        5.79997711       1.72341646       3.74422152        9      -0.00046126       0.00085449      -0.00000000
