10
Lattice="5.570312022336713 -0.04958542488377837 -0.03423803910923362 3.0150982323039948 4.684017227776512 -0.034238039109233176 3.015098232303987 1.6275596299061224 4.392293169237351" Properties=species:S:1:pos:R:3:spacegroup_kinds:I:1:forces:R:3 spacegroup="P 1" unit_cell=conventional occupancy="_JSON {\"0\": {\"In\": 1}, \"1\": {\"In\": 1}, \"2\": {\"In\": 1}, \"3\": {\"In\": 1}, \"4\": {\"O\": 1}, \"5\": {\"O\": 1}, \"6\": {\"O\": 1}, \"7\": {\"O\": 1}, \"8\": {\"O\": 1}, \"9\": {\"O\": 1}}" n_minim_iter=1 energy=-11286.464797331968 stress="-0.16895798307510404 0.0017458844901679085 0.001205508708100772 0.0017458844901679085 -0.1712498473068868 0.0006507374399416621 0.001205508708100772 0.0006507374399416621 -0.17174295626017072" free_energy=-11286.464797331968 pbc="T T T"
In       9.98567082       5.39029692       3.72192428        0       0.12900169       0.06963552       0.04808235
In       7.41509192       4.00269024       2.76380136        1      -0.12900169      -0.06963552      -0.04808235
In       4.18541658       2.25930120       1.56001573        2       0.12900169       0.06963552       0.04808235
In       1.61483767       0.87169452       0.60189282        3      -0.12900169      -0.06963552      -0.04808235
O        5.68528314       2.18720596       0.12753698        4       0.00000000       0.07331495      -0.10617877
O        6.65235436       4.88396369       1.04671624        5      -0.06129166       0.11354447       0.00000000
O        7.73331015       1.99973585       2.32368356        6       0.06129167      -0.04022952      -0.10617877
O        3.86719835       4.26225559       2.00013354        7      -0.06129167       0.04022952       0.10617877
O        5.91522536       4.07478549       4.19628012        8      -0.00000000      -0.07331495       0.10617877
O        4.94815414       1.37802776       3.27710086        9       0.06129166      -0.11354447       0.00000000
10
Lattice="5.554973408059238 -0.0656780559457221 -0.045349774724303474 2.993228079766377 4.680024447989152 -0.045349774724303016 2.9932280797663693 1.615754051902479 4.392496360795812" Properties=species:S:1:pos:R:3:spacegroup_kinds:I:1:forces:R:3 spacegroup="P 1" unit_cell=conventional occupancy="_JSON {\"0\": {\"In\": 1}, \"1\": {\"In\": 1}, \"2\": {\"In\": 1}, \"3\": {\"In\": 1}, \"4\": {\"O\": 1}, \"5\": {\"O\": 1}, \"6\": {\"O\": 1}, \"7\": {\"O\": 1}, \"8\": {\"O\": 1}, \"9\": {\"O\": 1}}" n_minim_iter=2 energy=-11286.46742962585 stress="-0.17114011781191749 -0.0018381709725927946 -0.0012692312289068067 -0.0018381709725927946 -0.16872710691744722 -0.0006851350560862878 -0.0012692312289068067 -0.0006851350560862878 -0.16820793250417818" free_energy=-11286.46742962585 pbc="T T T"
In       9.93664942       5.36383501       3.70365270        0       0.16922373       0.09134751       0.06307417
In       7.37549494       3.98131566       2.74904252        1      -0.16922373      -0.09134751      -0.06307417
In       4.16593464       2.24878479       1.55275430        2       0.16922373       0.09134751       0.06307417
In       1.60478015       0.86626544       0.59814411        3      -0.16922373      -0.09134751      -0.06307417
O        5.66284410       2.17388949       0.11256199        4      -0.00000000       0.03765392      -0.05453249
O        6.61672086       4.87013380       1.03009943        5      -0.03147886       0.05831545       0.00000000
O        7.70219542       1.97633103       2.30881017        6       0.03147886      -0.02066153      -0.05453249
O        3.83923416       4.25376943       1.99298664        7      -0.03147886       0.02066153       0.05453249
O        5.87858548       4.05621097       4.18923482        8       0.00000000      -0.03765392       0.05453249
O        4.92470871       1.35996666       3.27169739        9       0.03147886      -0.05831545      -0.00000000
10
Lattice="5.559391004612787 -0.0610354116034432 -0.04214409404426854 2.9995333853177715 4.681170060359192 -0.042144094044268075 2.999533385317764 1.6191576759236534 4.392431863918171" Properties=species:S:1:pos:R:3:spacegroup_kinds:I:1:forces:R:3 spacegroup="P 1" unit_cell=conventional occupancy="_JSON {\"0\": {\"In\": 1}, \"1\": {\"In\": 1}, \"2\": {\"In\": 1}, \"3\": {\"In\": 1}, \"4\": {\"O\": 1}, \"5\": {\"O\": 1}, \"6\": {\"O\": 1}, \"7\": {\"O\": 1}, \"8\": {\"O\": 1}, \"9\": {\"O\": 1}}" n_minim_iter=3 energy=-11286.47637147531 stress="-0.16358025635201762 0.0005565852138153185 0.00038431427037656854 0.0005565852138153185 -0.16431089903785207 0.00020745406719582912 0.00038431427037656854 0.00020745406719582912 -0.1644681013918587" free_energy=-11286.47637147531 pbc="T T T"
In       9.96541176       5.37936101       3.71437319        0       0.01525758       0.00823609       0.00568691
In       7.37227491       3.97957748       2.74784233        1      -0.01525758      -0.00823609      -0.00568691
In       4.18618287       2.25971485       1.56030135        2       0.01525758       0.00823609       0.00568690
In       1.59304602       0.85993132       0.59377049        3      -0.01525758      -0.00823609      -0.00568691
O        5.66930995       2.18328657       0.10883208        4      -0.00000000      -0.01025248       0.01484821
O        6.62234510       4.88272537       1.03489183        5       0.00857113      -0.01587824      -0.00000000
O        7.71580818       1.98003045       2.30504801        6      -0.00857113       0.00562576       0.01484821
O        3.84264960       4.25926188       2.00309567        7       0.00857113      -0.00562576      -0.01484821
O        5.88914783       4.05600576       4.19931160        8       0.00000000       0.01025248      -0.01484821
O        4.93611268       1.35656696       3.27325185        9      -0.00857113       0.01587824      -0.00000000
10
Lattice="5.556712077090914 -0.06385004721900046 -0.04408756038562979 2.9957103498559414 4.6804749156451955 -0.044087560385629346 2.995710349855935 1.6170939892036957 4.3924703959214115" Properties=species:S:1:pos:R:3:spacegroup_kinds:I:1:forces:R:3 spacegroup="P 1" unit_cell=conventional occupancy="_JSON {\"0\": {\"In\": 1}, \"1\": {\"In\": 1}, \"2\": {\"In\": 1}, \"3\": {\"In\": 1}, \"4\": {\"O\": 1}, \"5\": {\"O\": 1}, \"6\": {\"O\": 1}, \"7\": {\"O\": 1}, \"8\": {\"O\": 1}, \"9\": {\"O\": 1}}" n_minim_iter=4 energy=-11286.476507468771 stress="-0.1637405738643511 1.4720737742973263e-05 1.01644609351525e-05 1.4720737742973263e-05 -0.16375989812244293 5.486808324312738e-06 1.01644609351525e-05 5.486808324312738e-06 -0.16376405586087261" free_energy=-11286.476507468771 pbc="T T T"
In       9.95723460       5.37494696       3.71132534        0       0.01228297       0.00663039       0.00457819
In       7.36496457       3.97563134       2.74511757        1      -0.01228297      -0.00663039      -0.00457819
In       4.18316821       2.25808753       1.55917771        2       0.01228297       0.00663039       0.00457819
In       1.59089819       0.85877191       0.59296994        3      -0.01228297      -0.00663039      -0.00457819
O        5.66538924       2.18077446       0.10648033        4      -0.00000000      -0.00990887       0.01435058
O        6.61627163       4.88002403       1.03198626        5       0.00828387      -0.01534609      -0.00000000
O        7.71021720       1.97603958       2.30271552        6      -0.00828387       0.00543721       0.01435058
O        3.83791559       4.25767929       2.00157975        7       0.00828387      -0.00543721      -0.01435058
O        5.88274355       4.05294441       4.19781495        8      -0.00000000       0.00990887      -0.01435058
O        4.93186116       1.35369484       3.27230902        9      -0.00828387       0.01534609      -0.00000000
10
Lattice="5.555861294709462 -0.06474442177951002 -0.044705113451935334 2.9944958053856334 4.68025442019236 -0.0447051134519349 2.9944958053856277 1.616438374229888 4.392483007049199" Properties=species:S:1:pos:R:3:spacegroup_kinds:I:1:forces:R:3 spacegroup="P 1" unit_cell=conventional occupancy="_JSON {\"0\": {\"In\": 1}, \"1\": {\"In\": 1}, \"2\": {\"In\": 1}, \"3\": {\"In\": 1}, \"4\": {\"O\": 1}, \"5\": {\"O\": 1}, \"6\": {\"O\": 1}, \"7\": {\"O\": 1}, \"8\": {\"O\": 1}, \"9\": {\"O\": 1}}" n_minim_iter=5 energy=-11286.476548555893 stress="-0.16371833407632222 -7.412035808811053e-05 -5.117906518396913e-05 -7.412035808811053e-05 -0.1636210345167054 -2.7626622908563105e-05 -5.117906518396913e-05 -2.7626622908563105e-05 -0.16360009990182947" free_energy=-11286.476548555893 pbc="T T T"
In       9.95483451       5.37365138       3.71043076        0       0.00506602       0.00273465       0.00188824
In       7.36244486       3.97427119       2.74417841        1      -0.00506602      -0.00273465      -0.00188824
In       4.18240805       2.25767719       1.55889437        2       0.00506602       0.00273465       0.00188824
In       1.59001841       0.85829700       0.59264202        3      -0.00506602      -0.00273465      -0.00188824
O        5.66414388       2.17980668       0.10597885        4      -0.00000000      -0.00423429       0.00613234
O        6.61448418       4.87890321       1.03106308        5       0.00353989      -0.00655774      -0.00000000
O        7.70829938       1.97486475       2.30222036        6      -0.00353989       0.00232345       0.00613234
O        3.83655354       4.25708363       2.00085243        7       0.00353989      -0.00232345      -0.00613234
O        5.88070904       4.05214171       4.19709393        8       0.00000000       0.00423429      -0.00613234
O        4.93036873       1.35304517       3.27200970        9      -0.00353989       0.00655774      -0.00000000
