10
Lattice="6.316630393640839 0.07647083564534486 0.05280203744706851 3.5300030888451337 5.238773283061155 0.0528020374470659 3.5300030888451293 1.9055069116132928 4.880223045749854" Properties=species:S:1:pos:R:3:spacegroup_kinds:I:1:forces:R:3 spacegroup="P 1" unit_cell=conventional occupancy="_JSON {\"0\": {\"In\": 1}, \"1\": {\"In\": 1}, \"2\": {\"In\": 1}, \"3\": {\"In\": 1}, \"4\": {\"O\": 1}, \"5\": {\"O\": 1}, \"6\": {\"O\": 1}, \"7\": {\"O\": 1}, \"8\": {\"O\": 1}, \"9\": {\"O\": 1}}" n_minim_iter=5 energy=-11285.963897588723 stress="0.10939451463490552 5.930458261806005e-06 4.094899208330073e-06 5.930458261806005e-06 0.10938672957956826 2.21043933525988e-06 4.094899208330073e-06 2.21043933525988e-06 0.10938505457559104" free_energy=-11285.963897588723 pbc="T T T"
In      11.38913771       6.14789282       4.24503360        0      -0.00017884      -0.00009654      -0.00006666
In       8.67581716       4.68323374       3.23370709        1       0.00017884       0.00009654       0.00006666
In       4.70081943       2.53751730       1.75212004        2      -0.00017884      -0.00009654      -0.00006666
In       1.98749887       1.07285822       0.74079353        3       0.00017884       0.00009654       0.00006666
O        6.50247434       2.52276608       0.28899578        4      -0.00000000      -0.00037140       0.00053788
O        7.69954184       5.51492301       1.29925882        5       0.00031049      -0.00057520      -0.00000000
O        8.83540994       2.42340635       2.72910730        6      -0.00031049       0.00020380       0.00053788
O        4.54122664       4.79734470       2.25671982        7       0.00031049      -0.00020380      -0.00053788
O        6.87416224       4.69798496       4.69683134        8       0.00000000       0.00037140      -0.00053788
O        5.67709474       1.70582803       3.68656831        9      -0.00031049       0.00057520       0.00000000
