10
Lattice="6.269067411116562 0.0725077939822652 0.05006561286725793 3.500591118693053 5.2011850000782704 0.05006561286726242 3.5005911186930536 1.8896302364381201 4.8460426680096225" Properties=species:S:1:pos:R:3:spacegroup_kinds:I:1:forces:R:3 spacegroup="P 1" unit_cell=conventional occupancy="_JSON {\"0\": {\"In\": 1}, \"1\": {\"In\": 1}, \"2\": {\"In\": 1}, \"3\": {\"In\": 1}, \"4\": {\"O\": 1}, \"5\": {\"O\": 1}, \"6\": {\"O\": 1}, \"7\": {\"O\": 1}, \"8\": {\"O\": 1}, \"9\": {\"O\": 1}}" n_minim_iter=5 energy=-11286.299911089087 stress="0.10103723263216832 -1.669595460994244e-05 -1.1528321397266587e-05 -1.669595460994244e-05 0.10105914980665893 -6.223025255142919e-06 -1.1528321397266587e-05 -6.223025255142919e-06 0.10106386542660951" free_energy=-11286.299911089087 pbc="T T T"
In      11.29734774       6.09834430       4.21082104        0       0.00033678       0.00018180       0.00012553
In       8.60802674       4.64664026       3.20843980        1      -0.00033678      -0.00018180      -0.00012553
In       4.66222292       2.51668279       1.73773410        2       0.00033678       0.00018180       0.00012553
In       1.97290191       1.06497874       0.73535285        3      -0.00033678      -0.00018180      -0.00012553
O        6.45209612       2.49769894       0.29035554        4      -0.00000000      -0.00005070       0.00007343
O        7.64175480       5.46627214       1.28660909        5       0.00004239      -0.00007852       0.00000000
O        8.76302856       2.40391908       2.71337687        6      -0.00004239       0.00002782       0.00007343
O        4.50722110       4.75940397       2.23279703        7       0.00004239      -0.00002782      -0.00007343
O        6.81815354       4.66562411       4.65581836        8       0.00000000       0.00005070      -0.00007343
O        5.62849485       1.69705090       3.65956481        9      -0.00004239       0.00007852      -0.00000000
