10
Lattice="6.312356441065587 0.07214354770292933 0.049814105929764596 3.524040243405184 5.237574714827267 0.0498141059297637 3.5240402434051794 1.9022881486511125 4.880160872148488" Properties=species:S:1:pos:R:3:spacegroup_kinds:I:1:forces:R:3 spacegroup="P 1" unit_cell=conventional occupancy="_JSON {\"0\": {\"In\": 1}, \"1\": {\"In\": 1}, \"2\": {\"In\": 1}, \"3\": {\"In\": 1}, \"4\": {\"O\": 1}, \"5\": {\"O\": 1}, \"6\": {\"O\": 1}, \"7\": {\"O\": 1}, \"8\": {\"O\": 1}, \"9\": {\"O\": 1}}" n_minim_iter=6 energy=-11286.313772713465 stress="0.1016825922567791 -2.4613396557328404e-05 -1.6995204769913396e-05 -2.4613396557328404e-05 0.1017149028523221 -9.174066209151325e-06 -1.6995204769913396e-05 -9.174066209151325e-06 0.10172185467668211" free_energy=-11286.313772713465 pbc="T T T"
In      11.38574117       6.14605936       4.24376762        0      -0.00241165      -0.00130182      -0.00089889
In       8.65491423       4.67195027       3.22591601        1       0.00241165       0.00130182       0.00089889
In       4.70552271       2.54005615       1.75387308        2      -0.00241165      -0.00130182      -0.00089889
In       1.97469577       1.06594707       0.73602147        3       0.00241165       0.00130182       0.00089889
O        6.49628746       2.51313984       0.29363395        4      -0.00000000      -0.00221608       0.00320946
O        7.69478466       5.50180218       1.29476138        5       0.00185266      -0.00343210      -0.00000000
O        8.82183050       2.42034247       2.73371438        6      -0.00185266       0.00121601       0.00320946
O        4.53860644       4.79166396       2.24607471        7       0.00185266      -0.00121601      -0.00320946
O        6.86414948       4.69886659       4.68615514        8       0.00000000       0.00221608      -0.00320946
O        5.66565228       1.71020424       3.68502771        9      -0.00185266       0.00343210      -0.00000000
