10
Lattice="5.502436242438592 -0.06412184070083705 -0.04427522996560367 2.965700792975952 4.635249186300388 -0.04427522996560324 2.9657007929759462 1.6008947348092808 4.3502449773716085" Properties=species:S:1:pos:R:3:spacegroup_kinds:I:1:forces:R:3 spacegroup="P 1" unit_cell=conventional occupancy="_JSON {\"0\": {\"In\": 1}, \"1\": {\"In\": 1}, \"2\": {\"In\": 1}, \"3\": {\"In\": 1}, \"4\": {\"O\": 1}, \"5\": {\"O\": 1}, \"6\": {\"O\": 1}, \"7\": {\"O\": 1}, \"8\": {\"O\": 1}, \"9\": {\"O\": 1}}" n_minim_iter=5 energy=-11286.476548555893 stress="-0.16371833407632222 -7.412035808811053e-05 -5.117906518396913e-05 -7.412035808811053e-05 -0.1636210345167054 -2.7626622908563105e-05 -5.117906518396913e-05 -2.7626622908563105e-05 -0.16360009990182947" free_energy=-11286.476548555893 pbc="T T T"
In       9.85910901       5.32197845       3.67475134        0       0.00506602       0.00273465       0.00188824
In       7.29164774       3.93605468       2.71779044        1      -0.00506602      -0.00273465      -0.00188824
In       4.14219010       2.23596741       1.54390408        2       0.00506602       0.00273465       0.00188824
In       1.57472882       0.85004364       0.58694319        3      -0.00506602      -0.00273465      -0.00188824
O        5.60967758       2.15884570       0.10495976        4      -0.00000000      -0.00423429       0.00613234
O        6.55087944       4.83198777       1.02114840        5       0.00353989      -0.00655774      -0.00000000
O        7.63417652       1.95587449       2.28008225        6      -0.00353989       0.00232345       0.00613234
O        3.79966131       4.21614760       1.98161227        7       0.00353989      -0.00232345      -0.00613234
O        5.82416025       4.01317639       4.15673476        8       0.00000000       0.00423429      -0.00613234
O        4.88295840       1.34003432       3.24054612        9      -0.00353989       0.00655774      -0.00000000
