10
Lattice="5.13118465489841 -0.2194075169509121 -0.15149780734630003 2.6321673370611864 4.410089651114569 -0.15149780734630208 2.6321673370611856 1.4208523128895434 4.177681297257484" Properties=species:S:1:pos:R:3:spacegroup_kinds:I:1:forces:R:3 spacegroup="P 1" unit_cell=conventional occupancy="_JSON {\"0\": {\"In\": 1}, \"1\": {\"In\": 1}, \"2\": {\"In\": 1}, \"3\": {\"In\": 1}, \"4\": {\"O\": 1}, \"5\": {\"O\": 1}, \"6\": {\"O\": 1}, \"7\": {\"O\": 1}, \"8\": {\"O\": 1}, \"9\": {\"O\": 1}}" n_minim_iter=7 energy=-11283.084489376828 stress="-0.38522477705556385 2.2740268153641903e-08 1.5700501585528428e-08 2.2740268153641903e-08 -0.3852248069025575 8.475421702707462e-09 1.5700501585528428e-08 8.475421702707462e-09 -0.3852248133214976" free_energy=-11283.084489376828 pbc="T T T"
In       9.05284408       4.88675407       3.37423502        0       0.00000216       0.00000116       0.00000080
In       6.54043490       3.53054760       2.43779350        1      -0.00000216      -0.00000116      -0.00000080
In       3.85508442       2.08098685       1.43689218        2       0.00000216       0.00000116       0.00000080
In       1.34267523       0.72478037       0.50045066        3      -0.00000216      -0.00000116      -0.00000080
O        5.16447215       1.93599876      -0.03804344        4       0.00000000      -0.00000520       0.00000753
O        5.94315601       4.49377237       0.81717361        5       0.00000435      -0.00000806       0.00000000
O        7.01795564       1.65087723       2.05079721        6      -0.00000435       0.00000285       0.00000753
O        3.37756368       3.96065722       1.82388847        7       0.00000435      -0.00000285      -0.00000753
O        5.23104716       3.67553568       3.91272912        8       0.00000000       0.00000520      -0.00000753
O        4.45236331       1.11776208       3.05751207        9      -0.00000435       0.00000806      -0.00000000
