10
Lattice="5.322402188828719 -0.13724527181488932 -0.0947659316214521 2.8057806217936965 4.524864244002391 -0.09476593162145333 2.805780621793695 1.5145693170052332 4.264909939545471" Properties=species:S:1:pos:R:3:spacegroup_kinds:I:1:forces:R:3 spacegroup="P 1" unit_cell=conventional occupancy="_JSON {\"0\": {\"In\": 1}, \"1\": {\"In\": 1}, \"2\": {\"In\": 1}, \"3\": {\"In\": 1}, \"4\": {\"O\": 1}, \"5\": {\"O\": 1}, \"6\": {\"O\": 1}, \"7\": {\"O\": 1}, \"8\": {\"O\": 1}, \"9\": {\"O\": 1}}" n_minim_iter=5 energy=-11285.118154103966 stress="-0.24722097274265614 0.00015198933708180902 0.00010494650316786071 0.00015198933708180902 -0.24742049277308248 5.6650455387609655e-05 0.00010494650316786071 5.6650455387609655e-05 -0.24746342075655403" free_energy=-11285.118154103966 pbc="T T T"
In       9.48052941       5.11761998       3.53364468        0      -0.00231009      -0.00124699      -0.00086103
In       6.92041574       3.73566246       2.57942244        1       0.00231009       0.00124699       0.00086103
In       4.01354770       2.16652583       1.49595564        2      -0.00231009      -0.00124699      -0.00086103
In       1.45343403       0.78456832       0.54173340        3       0.00231009       0.00124699       0.00086103
O        5.39469196       2.05675853       0.03033584        4       0.00000000       0.00245583      -0.00355667
O        6.25431773       4.67576881       0.92407859        5      -0.00205309       0.00380340      -0.00000000
O        7.34084680       1.80763094       2.16279081        6       0.00205309      -0.00134757      -0.00355667
O        3.59311664       4.09455736       1.91258727        7      -0.00205309       0.00134757       0.00355667
O        5.53927148       3.84542977       4.04504224        8      -0.00000000      -0.00245583       0.00355667
O        4.67964571       1.22641949       3.15129949        9       0.00205309      -0.00380340       0.00000000
