10
Lattice="5.829784816766988 0.005571563964287169 0.0038470866258832454 3.2035881406717457 4.87067193281166 0.0038470866258891903 3.2035881406717426 1.7293070828471917 4.553345680965738" Properties=species:S:1:pos:R:3:spacegroup_kinds:I:1:forces:R:3 spacegroup="P 1" unit_cell=conventional occupancy="_JSON {\"0\": {\"In\": 1}, \"1\": {\"In\": 1}, \"2\": {\"In\": 1}, \"3\": {\"In\": 1}, \"4\": {\"O\": 1}, \"5\": {\"O\": 1}, \"6\": {\"O\": 1}, \"7\": {\"O\": 1}, \"8\": {\"O\": 1}, \"9\": {\"O\": 1}}" n_minim_iter=1 energy=-11287.679731342421 stress="-8.736251959686692e-05 -4.97385022348249e-05 -3.43437383152955e-05 -4.97385022348249e-05 -2.20695970903538e-05 -1.8538858169344754e-05 -3.43437383152955e-05 -1.8538858169344754e-05 -8.021416257500707e-06" free_energy=-11287.679731342421 pbc="T T T"
In      10.48893037       5.66195803       3.90950246        0       0.00046856       0.00025293       0.00017464
In       7.86651129       4.24636785       2.93205733        1      -0.00046856      -0.00025293      -0.00017464
In       4.37044982       2.35918274       1.62898253        2       0.00046856       0.00025293       0.00017464
In       1.74803074       0.94359256       0.65153740        3      -0.00046856      -0.00025293      -0.00017464
O        5.97413269       2.29396795       0.21559764        4      -0.00000000       0.00200267      -0.00290037
O        7.04105535       5.08037315       1.14410705        5      -0.00167424       0.00310157      -0.00000000
O        8.11079817       2.16775774       2.49227049        6       0.00167424      -0.00109891      -0.00290037
O        4.12616294       4.43779285       2.06876937        7      -0.00167424       0.00109891       0.00290037
O        6.26282842       4.31158264       4.34544221        8       0.00000000      -0.00200267       0.00290037
O        5.19590576       1.52517744       3.41693281        9       0.00167424      -0.00310157      -0.00000000
