10
Lattice="5.5703120223367115 -0.04958542488377756 -0.03423803910923239 3.015098232303992 4.684017227776514 -0.03423803910923239 3.0150982323039845 1.627559629906125 4.392293169237352" Properties=species:S:1:pos:R:3:spacegroup_kinds:I:1:forces:R:3 spacegroup="P 1" unit_cell=conventional occupancy="_JSON {\"0\": {\"In\": 1}, \"1\": {\"In\": 1}, \"2\": {\"In\": 1}, \"3\": {\"In\": 1}, \"4\": {\"O\": 1}, \"5\": {\"O\": 1}, \"6\": {\"O\": 1}, \"7\": {\"O\": 1}, \"8\": {\"O\": 1}, \"9\": {\"O\": 1}}" n_minim_iter=5 energy=-11286.950471036935 stress="-0.12299880876250513 0.00022694445743255971 0.00015670196167107025 0.00022694445743255971 -0.1232967241728055 8.45882172950896e-05 0.00015670196167107025 8.45882172950896e-05 -0.12336082253708532" free_energy=-11286.950471036935 pbc="T T T"
In       9.98567082       5.39029692       3.72192428        0       0.00357484       0.00192971       0.00133244
In       7.41509192       4.00269024       2.76380136        1      -0.00357484      -0.00192971      -0.00133244
In       4.18541658       2.25930120       1.56001573        2       0.00357484       0.00192971       0.00133244
In       1.61483767       0.87169452       0.60189282        3      -0.00357484      -0.00192971      -0.00133244
O        5.68528314       2.18720596       0.12753698        4       0.00000000      -0.00035190       0.00050964
O        6.65235436       4.88396369       1.04671624        5       0.00029419      -0.00054500      -0.00000000
O        7.73331015       1.99973585       2.32368356        6      -0.00029419       0.00019310       0.00050964
O        3.86719835       4.26225559       2.00013354        7       0.00029419      -0.00019310      -0.00050964
O        5.91522536       4.07478549       4.19628012        8      -0.00000000       0.00035190      -0.00050964
O        4.94815414       1.37802776       3.27710086        9      -0.00029419       0.00054500      -0.00000000
