10
Lattice="5.630109489200726 -0.04247934066526008 -0.029331387810841644 3.0538511305319185 4.730108944550886 -0.029331387810842536 3.0538511305319114 1.6484785678106522 4.433656433362896" Properties=species:S:1:pos:R:3:spacegroup_kinds:I:1:forces:R:3 spacegroup="P 1" unit_cell=conventional occupancy="_JSON {\"0\": {\"In\": 1}, \"1\": {\"In\": 1}, \"2\": {\"In\": 1}, \"3\": {\"In\": 1}, \"4\": {\"O\": 1}, \"5\": {\"O\": 1}, \"6\": {\"O\": 1}, \"7\": {\"O\": 1}, \"8\": {\"O\": 1}, \"9\": {\"O\": 1}}" n_minim_iter=7 energy=-11287.294898652906 stress="-0.08555404683706062 -5.927931878860773e-05 -4.093153461816049e-05 -5.927931878860773e-05 -0.08547622945994723 -2.209497309156903e-05 -4.093153461816049e-05 -2.209497309156903e-05 -0.0854594865658765" free_energy=-11287.294898652906 pbc="T T T"
In      10.09080970       5.44705122       3.76111233        0       0.00074630       0.00040286       0.00027817
In       7.51590793       4.05711104       2.80137816        1      -0.00074630      -0.00040286      -0.00027817
In       4.22190383       2.27899714       1.57361550        2       0.00074630       0.00040286       0.00027817
In       1.64700205       0.88905696       0.61388134        3      -0.00074630      -0.00040286      -0.00027817
O        5.74950769       2.20790715       0.14478453        4      -0.00000000      -0.00113684       0.00164644
O        6.73710991       4.92695293       1.06441703        5       0.00095041      -0.00176065      -0.00000000
O        7.81575660       2.03303535       2.36161275        6      -0.00095041       0.00062381       0.00164644
O        3.92205516       4.30307283       2.01338091        7       0.00095041      -0.00062381      -0.00164644
O        5.98830407       4.12820103       4.23020913        8      -0.00000000       0.00113684      -0.00164644
O        5.00070185       1.40915525       3.31057663        9      -0.00095041       0.00176065       0.00000000
