80
Lattice="11.758812762970885 0.0 0.0 6.452317444010323 9.830426094342354 0.0 6.452317444010323 3.4829815090918417 9.192720870539437" Properties=species:S:1:pos:R:3:initial_magmoms:R:1:forces:R:3 uid=supercell-003.xyz_R3c type=Bulk energy=-90301.46906926025 stress="0.002063750455472644 -0.000799633688042111 -0.000559711191018474 -0.000799633688042111 0.003063380498883334 -0.0002920851613686816 -0.000559711191018474 -0.0002920851613686816 0.0033334534057637595" virial="-2.085809515918755e-06 7.931951680254419e-07 5.538541423794208e-07 7.931951680254419e-07 -3.0906962048224462e-06 2.9118384708559254e-07 5.538541423794208e-07 2.9118384708559254e-07 -3.3473181709483243e-06" pbc="T T T"
In      10.57093864       5.70622635       3.94006911      10.00000000       0.00244590       0.00126810       0.00048772
In      16.45034502       5.70622635       3.94006911      10.00000000       0.00328112       0.00127592       0.00062032
In      13.79709736      10.62143940       3.94006911      10.00000000       0.00434027       0.00251810       0.00121813
In      19.67650374      10.62143940       3.94006911      10.00000000       0.00222118       0.00139321       0.00202723
In      13.79709736       7.44771711       8.53642955      10.00000000       0.01393563       0.01811466      -0.00264423
In      19.67650374       7.44771711       8.53642955      10.00000000       0.00054837       0.00359589       0.00062341
In      17.02325608      12.36293015       8.53642955      10.00000000       0.00059273      -0.00418027      -0.00050962
In      22.90266246      12.36293015       8.53642955      10.00000000       0.00405086       0.00092632       0.00121468
In       7.92664710       4.27882935       2.95447155      10.00000000      -0.00502377      -0.00175281      -0.00551053
In      13.80605348       4.27882935       2.95447155      10.00000000      -0.00291452      -0.00001821      -0.00097244
In      11.15280582       9.19404240       2.95447155      10.00000000      -0.00328932      -0.00410935       0.00207365
In      17.03221221       9.19404240       2.95447155      10.00000000      -0.00269329      -0.00124988      -0.00107556
In      11.15280582       6.02032010       7.55083198      10.00000000       0.00449572       0.00622659       0.00111239
In      17.03221221       6.02032010       7.55083198      10.00000000      -0.00634468      -0.00129128       0.00146751
In      14.37896455      10.93553315       7.55083198      10.00000000      -0.00364481      -0.00387415      -0.00077482
In      20.25837093      10.93553315       7.55083198      10.00000000      -0.00221852      -0.00266944      -0.00169623
In       4.40507673       2.37787445       1.64188889      10.00000000       0.02059915       0.00643535      -0.01103566
In      10.28448311       2.37787445       1.64188889      10.00000000      -0.00003588       0.00177989      -0.00120880
In       7.63123545       7.29308750       1.64188889      10.00000000       0.00208212      -0.00256940       0.00064233
In      13.51064183       7.29308750       1.64188889      10.00000000       0.00387683      -0.00044854       0.00125892
In       7.63123545       4.11936520       6.23824933      10.00000000       0.00261612       0.00161424       0.00022582
In      13.51064183       4.11936520       6.23824933      10.00000000       0.00497065       0.00321130      -0.00059089
In      10.85739417       9.03457825       6.23824933      10.00000000       0.00447998      -0.00003424       0.00468670
In      16.73680055       9.03457825       6.23824933      10.00000000       0.00197165       0.00078545       0.00159482
In       1.76078518       0.95047746       0.65629133      10.00000000      -0.00653903      -0.00288309      -0.00122707
In       7.64019156       0.95047746       0.65629133      10.00000000      -0.00214292       0.00853935      -0.00221520
In       4.98694390       5.86569050       0.65629133      10.00000000       0.00066599      -0.00460354      -0.00201731
In      10.86635028       5.86569050       0.65629133      10.00000000      -0.00387450      -0.00269792      -0.00096182
In       4.98694390       2.69196821       5.25265176      10.00000000      -0.00242217      -0.00034852      -0.00029445
In      10.86635028       2.69196821       5.25265176      10.00000000      -0.00359885      -0.00296099      -0.00373129
In       8.21310263       7.60718126       5.25265176      10.00000000      -0.00334785      -0.00193139      -0.00183344
In      14.09250901       7.60718126       5.25265176      10.00000000      -0.00326240      -0.00190221       0.00102214
O        6.02844157       2.31817494       0.21474656       4.00000000      -0.05953102      -0.04609633       0.00863662
O       11.90204053       2.30932705       0.21474656       4.00000000       0.00187175       0.00843296      -0.01344032
O        9.24879287       7.22454010       0.21474656       4.00000000       0.00176125       0.01210683      -0.01328243
O       15.12819925       7.22454010       0.21474656       4.00000000      -0.00051643       0.01037407      -0.01265659
O        9.24879287       4.05081780       4.81110699       4.00000000       0.00079240       0.00911848      -0.01147904
O       15.12819925       4.05081780       4.81110699       4.00000000       0.00007950       0.00899999      -0.01255051
O       12.47495159       8.96603085       4.81110699       4.00000000      -0.00028476       0.00939010      -0.01430052
O       18.35435798       8.96603085       4.81110699       4.00000000      -0.00013253       0.00912486      -0.01308977
O        7.09636398       5.12094207       1.14909010       4.00000000      -0.00477735       0.02427875       0.00561556
O       12.97577036       5.12094207       1.14909010       4.00000000      -0.00743688       0.01362400      -0.00005037
O       10.32252270      10.03615511       1.14909010       4.00000000       0.00033463       0.02070473      -0.00213128
O       16.20192908      10.03615511       1.14909010       4.00000000      -0.00747543       0.01308250      -0.00002359
O       10.32252270       6.86243282       5.74545054       4.00000000      -0.00833624       0.01363778      -0.00037591
O       16.20192908       6.86243282       5.74545054       4.00000000      -0.00714895       0.01422781      -0.00051441
O       13.54868142      11.77764587       5.74545054       4.00000000      -0.00746162       0.01363445       0.00005101
O       19.42808780      11.77764587       5.74545054       4.00000000      -0.00831402       0.01499711       0.00120768
O        8.17506304       2.18091283       2.51292678       4.00000000       0.00899776      -0.00677038      -0.00998449
O       14.05446942       2.18091283       2.51292678       4.00000000       0.00827565      -0.00577863      -0.01427792
O       11.40122176       7.09612588       2.51292678       4.00000000       0.00764082      -0.00355536      -0.01352772
O       17.28062814       7.09612588       2.51292678       4.00000000       0.00674714      -0.00372089      -0.01247308
O       11.40122176       3.92240358       7.10928721       4.00000000       0.00905012      -0.00067697      -0.00558514
O       17.28062814       3.92240358       7.10928721       4.00000000       0.00763199      -0.00497971      -0.01300901
O       14.62738048       8.83761663       7.10928721       4.00000000       0.00826552      -0.00506374      -0.01339129
O       20.50678687       8.83761663       7.10928721       4.00000000       0.00675483      -0.00486872      -0.01352108
O        4.15666079       4.47579097       2.08343366       4.00000000      -0.00941252       0.00382705       0.01374281
O       10.03606717       4.47579097       2.08343366       4.00000000      -0.00571342       0.00593140       0.01362656
O        7.38281951       9.39100402       2.08343366       4.00000000      -0.00577203       0.00530974       0.01219538
O       13.26222589       9.39100402       2.08343366       4.00000000      -0.00943341       0.00833207       0.01027084
O        7.38281951       6.21728172       6.67979410       4.00000000      -0.00698939       0.00478136       0.01403791
O       13.26222589       6.21728172       6.67979410       4.00000000      -0.00754973       0.00320268       0.00533667
O       10.60897823      11.13249477       6.67979410       4.00000000      -0.00772520       0.00476513       0.01262657
O       16.48838462      11.13249477       6.67979410       4.00000000      -0.00698459       0.00642780       0.01322314
O        6.30908968       4.34737676       4.38161388       4.00000000      -0.00008029      -0.00937016       0.01333098
O       12.18849606       4.34737676       4.38161388       4.00000000      -0.00007608      -0.00931257       0.01344416
O        9.53524840       9.26258981       4.38161388       4.00000000       0.00079773      -0.00864501       0.01187613
O       15.41465478       9.26258981       4.38161388       4.00000000      -0.00049339      -0.00903206       0.01293739
O        9.53524840       6.08886751       8.97797431       4.00000000       0.00915370      -0.01105963       0.01530001
O       15.41465478       6.08886751       8.97797431       4.00000000       0.01394398      -0.01054230       0.01181180
O       12.76140712      11.00408056       8.97797431       4.00000000      -0.00016033      -0.00722316       0.01269787
O       18.64081350      11.00408056       8.97797431       4.00000000      -0.00023797      -0.00886879       0.01325980
O        5.23535984       1.53576173       3.44727032       4.00000000       0.00673954      -0.01414929      -0.00378214
O       11.11476623       1.53576173       3.44727032       4.00000000       0.00792690      -0.01437193       0.00019370
O        8.46151857       6.45097478       3.44727032       4.00000000       0.00853132      -0.01315059       0.00140752
O       14.34092495       6.45097478       3.44727032       4.00000000       0.00703801      -0.01416212      -0.00010965
O        8.46151857       3.27725249       8.04363076       4.00000000       0.00926621      -0.01305477       0.00168560
O       14.34092495       3.27725249       8.04363076       4.00000000       0.00529083      -0.01320939       0.00111771
O       11.68767729       8.19246553       8.04363076       4.00000000       0.00096222      -0.00577141      -0.00746627
O       17.56708367       8.19246553       8.04363076       4.00000000       0.00836802      -0.01303682      -0.00058728
