320
Lattice="17.824133412077096 1.3970074417045712e-09 -7.516654128604041e-16 -5.941377805342815 16.804754138805574 -2.419690265985799e-09 -5.94137780336715 -8.402377068005782 14.553343990170447" Properties=species:S:1:pos:R:3:spacegroup_kinds:I:1:forces:R:3 spacegroup="P 1" unit_cell=conventional occupancy="_JSON {\"0\": {\"In\": 1}, \"1\": {\"In\": 1}, \"2\": {\"In\": 1}, \"3\": {\"In\": 1}, \"4\": {\"In\": 1}, \"5\": {\"In\": 1}, \"6\": {\"In\": 1}, \"7\": {\"In\": 1}, \"8\": {\"In\": 1}, \"9\": {\"In\": 1}, \"10\": {\"In\": 1}, \"11\": {\"In\": 1}, \"12\": {\"In\": 1}, \"13\": {\"In\": 1}, \"14\": {\"In\": 1}, \"15\": {\"In\": 1}, \"16\": {\"O\": 1}, \"17\": {\"O\": 1}, \"18\": {\"O\": 1}, \"19\": {\"O\": 1}, \"20\": {\"O\": 1}, \"21\": {\"O\": 1}, \"22\": {\"O\": 1}, \"23\": {\"O\": 1}, \"24\": {\"O\": 1}, \"25\": {\"O\": 1}, \"26\": {\"O\": 1}, \"27\": {\"O\": 1}, \"28\": {\"O\": 1}, \"29\": {\"O\": 1}, \"30\": {\"O\": 1}, \"31\": {\"O\": 1}, \"32\": {\"O\": 1}, \"33\": {\"O\": 1}, \"34\": {\"O\": 1}, \"35\": {\"O\": 1}, \"36\": {\"O\": 1}, \"37\": {\"O\": 1}, \"38\": {\"O\": 1}, \"39\": {\"O\": 1}}" n_minim_iter=7 energy=-361215.24688398064 stress="0.0001408290104117151 -8.509441883464086e-06 4.0416940725992846e-06 -8.509441883464086e-06 0.00015121463154644342 -3.308954353715178e-06 4.0416940725992846e-06 -3.308954353715178e-06 0.0001375008719789032" free_energy=-45151.905940313234 pbc="T T T"
In      -4.25192657       2.99949504       5.70340025        0      -0.03656066       0.12412948       0.00708620
In       4.65680681       3.00892313       5.70340025        0       0.00191594      -0.00121145       0.00208680
In      -7.22594880      11.41130020       5.70340025        0       0.00193220      -0.00179623       0.00216262
In       1.68611790      11.41130020       5.70340025        0       0.00172085      -0.00123179       0.00211528
In      -7.22594880      -1.19226540      12.98007225        0       0.00166458      -0.00132147       0.00225265
In       1.68611790      -1.19226540      12.98007225        0       0.00165981      -0.00116748       0.00203643
In     -10.19663770       7.21011167      12.98007224        0       0.00171767      -0.00120045       0.00213689
In      -1.28457100       7.21011167      12.98007224        0       0.00158598      -0.00119584       0.00196149
In       7.22594880       1.19226541       1.57327174        1      -0.00173352       0.00133698      -0.00218432
In      16.13801551       1.19226541       1.57327174        1      -0.00157076       0.00117635      -0.00278510
In       4.25525990       9.59464248       1.57327174        1      -0.00172656       0.00122080      -0.00211465
In      13.16732660       9.59464248       1.57327174        1      -0.00178834       0.00114359      -0.00204893
In       4.25525990      -3.00892312       8.84994374        1      -0.00172656       0.00122080      -0.00211465
In      13.16732660      -3.00892312       8.84994374        1      -0.00203385      -0.00013656      -0.00129184
In       1.28457100       5.39345395       8.84994373        1      -0.00195228       0.00124859      -0.00212783
In      10.19663770       5.39345395       8.84994373        1      -0.00043536       0.00011963      -0.00260019
In       1.28457100      -0.90832886       5.21160774        2      -0.00082275       0.00048336      -0.00230970
In      10.19663771      -0.90832886       5.21160774        2      -0.00225732       0.00092666      -0.00242454
In      -1.68611790       7.49404821       5.21160774        2      -0.00223372      -0.00023449      -0.00164909
In       7.22594880       7.49404821       5.21160774        2      -0.00156935       0.00129032      -0.00212785
In      -1.68611790      -5.10951739      12.48827974        2      -0.00172677       0.00122118      -0.00211479
In       7.22594880      -5.10951739      12.48827974        2      -0.00181279       0.00133453      -0.00219952
In      -4.65680680       3.29285968      12.48827973        2      -0.00171363       0.00129732      -0.00220546
In       4.25525990       3.29285968      12.48827973        2      -0.00172677       0.00122085      -0.00211476
In      -4.45603335       6.30178280       3.63833600        3      -0.00154466      -0.00712908       0.00739658
In       4.45603335       6.30178280       3.63833600        3       0.00007974      -0.00000691      -0.00002287
In      -7.42672226      14.70415987       3.63833600        3       0.00056284      -0.00055207      -0.00065749
In       1.48534445      14.70415987       3.63833600        3      -0.00014891      -0.00019145       0.00005033
In      -7.42672225       2.10059427      10.91500799        3       0.00000100       0.00022292       0.00012008
In       1.48534445       2.10059427      10.91500799        3       0.00005466      -0.00015353       0.00017993
In     -10.39741116      10.50297133      10.91500799        3       0.00000130      -0.00005291       0.00002834
In      -1.48534445      10.50297134      10.91500799        3       0.00000759      -0.00009376      -0.00009237
In      -1.28457100       4.05922027       3.39243974        4       0.00157213       0.00096975      -0.00332246
In       7.62749571       4.05922027       3.39243974        4       0.00210156      -0.00115057      -0.00216037
In      -4.25525990      12.46159734       3.39243974        4       0.00185803      -0.00142484      -0.00210561
In       4.65680680      12.46159734       3.39243974        4       0.00153726      -0.00117398      -0.00201627
In      -4.25525990      -0.14196826      10.66911174        4       0.00194747      -0.00162281       0.00005070
In       4.65680680      -0.14196826      10.66911174        4       0.00172618      -0.00122327      -0.00211125
In      -7.22594880       8.26040881      10.66911173        4       0.00170995      -0.00086468      -0.00204832
In       1.68611790       8.26040881      10.66911173        4       0.00167610      -0.00125681      -0.00213964
In       4.65680681      -2.86695486       5.45750399        5       0.00174748       0.00241914      -0.00000039
In      13.56887352      -2.86695486       5.45750399        5       0.00150125      -0.00063044      -0.00043449
In       1.68611791       5.53542221       5.45750399        5       0.00198902       0.00272674      -0.00003413
In      10.59818461       5.53542221       5.45750399        5       0.01238651      -0.00184495       0.00049531
In       1.68611791      -7.06814339      12.73417599        5       0.00167296       0.00236141      -0.00000510
In      10.59818461      -7.06814339      12.73417599        5       0.00184501       0.00227834      -0.00010225
In      -1.28457099       1.33423368      12.73417598        5       0.00194850       0.00235009       0.00009572
In       7.62749571       1.33423368      12.73417598        5       0.00167019       0.00240739       0.00002622
In      -1.28457100       1.33423368       5.45750399        6       0.01416662      -0.00072841      -0.00091455
In       7.62749571       1.33423368       5.45750399        6       0.00134478       0.00245576      -0.00003866
In      -4.25525990       9.73661075       5.45750399        6       0.00156526       0.00226343      -0.00013479
In       4.65680680       9.73661075       5.45750399        6       0.00172249       0.00244376       0.00000035
In      -4.25525990      -2.86695485      12.73417599        6       0.00170698       0.00234943       0.00015954
In       4.65680680      -2.86695485      12.73417599        6       0.00193445       0.00231058       0.00011775
In      -7.22594880       5.53542222      12.73417598        6       0.00184126       0.00234482      -0.00013573
In       1.68611790       5.53542222      12.73417598        6       0.00167973       0.00237661      -0.00018654
In      -1.68611791       7.06814340       1.81916800        7      -0.00206190      -0.00271310       0.00048585
In       7.22594880       7.06814340       1.81916800        7      -0.00183492      -0.00240136       0.00001448
In      -4.65680681      15.47052047       1.81916800        7      -0.00188609      -0.00239428      -0.00001399
In       4.25525989      15.47052047       1.81916800        7      -0.00149162      -0.00246139       0.00012871
In      -4.65680681       2.86695487       9.09584000        7      -0.00202362       0.00237492       0.00096361
In       4.25525989       2.86695487       9.09584000        7      -0.00171685      -0.00242019       0.00009026
In      -7.62749571      11.26933194       9.09583999        7      -0.00169505      -0.00268188      -0.00002124
In       1.28457099      11.26933194       9.09583999        7      -0.00172667      -0.00244170       0.00000233
In       4.25525990       0.14196827       3.88423225        8      -0.00145975       0.00122933       0.00212185
In      13.16732661       0.14196827       3.88423225        8      -0.00598459      -0.00785073      -0.00848892
In       1.28457100       8.54434534       3.88423225        8      -0.00175937       0.00107160       0.00206734
In      10.19663770       8.54434534       3.88423225        8      -0.00172412       0.00110226       0.00182545
In       1.28457100      -4.05922026      11.16090425        8      -0.00172831       0.00122383       0.00211323
In      10.19663770      -4.05922026      11.16090425        8      -0.00171013       0.00117926       0.00224421
In      -1.68611790       4.34315681      11.16090424        8      -0.00195401       0.00129225       0.00187129
In       7.22594880       4.34315681      11.16090424        8      -0.00167705       0.00103460       0.00203441
In      -1.48534445       4.20118854       0.00000000        9       0.00000555      -0.00000250      -0.00005242
In       7.42672226       4.20118854      -0.00000000        9       0.00006818      -0.00020158       0.00013285
In      -4.45603335      12.60356561      -0.00000000        9       0.00000005      -0.00000320       0.00000198
In       4.45603335      12.60356561      -0.00000000        9      -0.00001976      -0.00007842      -0.00014375
In      -4.45603335       0.00000001       7.27667200        9      -0.00405529      -0.01182471       0.00980418
In       4.45603335       0.00000001       7.27667200        9       0.00018963      -0.00002183       0.00000345
In      -7.42672225       8.40237708       7.27667199        9       0.00014413      -0.00014136      -0.00011010
In       1.48534445       8.40237708       7.27667199        9      -0.00016857      -0.00017258       0.00007567
In       4.25525990       6.44375107       0.24589625       10      -0.00172330       0.00122110       0.00211703
In      13.16732661       6.44375107       0.24589625       10      -0.00197910       0.00108754       0.00261490
In       1.28457100      14.84612814       0.24589625       10      -0.00167520       0.00123460       0.00206789
In      10.19663770      14.84612814       0.24589625       10      -0.00168066       0.00160445       0.00230400
In       1.28457100       2.24256254       7.52256825       10      -0.00055539       0.00152411       0.00297518
In      10.19663770       2.24256254       7.52256825       10      -0.00286131       0.00208841       0.00213866
In      -1.68611790      10.64493961       7.52256824       10      -0.00177268       0.00133851       0.00230115
In       7.22594880      10.64493961       7.52256824       10      -0.00166927       0.00087977       0.00218465
In      -1.28457100      -2.24256254       7.03077573       11       0.00237777      -0.00179507      -0.00157742
In       7.62749571      -2.24256254       7.03077573       11       0.00174457      -0.00127535      -0.00223080
In      -4.25525990       6.15981453       7.03077573       11       0.00037588      -0.01279032      -0.00972004
In       4.65680680       6.15981453       7.03077573       11       0.00181137      -0.00121648      -0.00209477
In      -4.25525990      -6.44375107      14.30744773       11       0.00175413      -0.00137842      -0.00228946
In       4.65680680      -6.44375107      14.30744773       11       0.00176394      -0.00108402      -0.00201037
In      -7.22594880       1.95862600      14.30744772       11       0.00178695      -0.00122496      -0.00211346
In       1.68611790       1.95862600      14.30744772       11       0.00172860      -0.00121986      -0.00211108
In       4.25525990       2.86695486       1.81916800       12      -0.00164284      -0.00243026      -0.00008354
In      13.16732661       2.86695486       1.81916800       12      -0.00178168      -0.00021351      -0.00070686
In       1.28457100      11.26933193       1.81916800       12      -0.00172971      -0.00244500       0.00000310
In      10.19663770      11.26933193       1.81916800       12      -0.00171171      -0.00268669       0.00000364
In       1.28457100      -1.33423367       9.09584000       12      -0.00207902      -0.00220155       0.00004341
In      10.19663770      -1.33423367       9.09584000       12      -0.00199812      -0.00260204      -0.00015890
In      -1.68611790       7.06814340       9.09583999       12      -0.00294429      -0.00335432      -0.00110400
In       7.22594880       7.06814340       9.09583999       12      -0.00191864      -0.00239787      -0.00008209
In       1.68611790       5.10951740       2.06506425       13       0.00172605      -0.00120866       0.00213021
In      10.59818461       5.10951740       2.06506425       13       0.00281949      -0.00148429       0.00353652
In      -1.28457100      13.51189447       2.06506425       13       0.00172663      -0.00122088       0.00211463
In       7.62749570      13.51189447       2.06506425       13       0.00153171      -0.00147083       0.00189595
In      -1.28457100       0.90832887       9.34173625       13       0.00285242      -0.00183951       0.00338513
In       7.62749570       0.90832887       9.34173625       13       0.00153378      -0.00120364       0.00220227
In      -4.25525990       9.31070594       9.34173624       13       0.00172604      -0.00140685       0.00216098
In       4.65680680       9.31070594       9.34173624       13       0.00172663      -0.00122088       0.00211463
In       1.48534445       8.40237707      -0.00000000       14       0.00000507       0.00001015       0.00004928
In      10.39741115       8.40237707      -0.00000000       14       0.00006063       0.00003941       0.00002781
In      -1.48534446      16.80475414      -0.00000000       14       0.00000057       0.00000018       0.00000030
In       7.42672225      16.80475414      -0.00000000       14      -0.00011423      -0.00014028      -0.00029341
In      -1.48534445       4.20118854       7.27667199       14      -0.00302924       0.00403060       0.00090765
In       7.42672225       4.20118854       7.27667199       14      -0.00009278       0.00004838       0.00003999
In      -4.45603336      12.60356560       7.27667199       14       0.00021603      -0.00021317      -0.00003904
In       4.45603335      12.60356561       7.27667199       14      -0.00022259       0.00005897      -0.00005136
In       1.48534445       2.10059427       3.63833599       15       0.00110632       0.00020920      -0.00077719
In      10.39741116       2.10059427       3.63833599       15      -0.00092075       0.00162097       0.00037466
In      -1.48534445      10.50297134       3.63833599       15      -0.00008516       0.00009458      -0.00007858
In       7.42672225      10.50297134       3.63833599       15       0.00011496      -0.00030507      -0.00007757
In      -1.48534445      -2.10059426      10.91500799       15       0.00011190       0.00038039      -0.00004802
In       7.42672225      -2.10059426      10.91500799       15      -0.00014907      -0.00003302       0.00006810
In      -4.45603335       6.30178281      10.91500798       15       0.00014802      -0.00004430      -0.00048002
In       4.45603335       6.30178281      10.91500798       15       0.00000187       0.00000109       0.00000051
O        0.87536957       4.20174602       3.95958871       16      -0.00066742      -0.00601329       0.00027705
O        9.78743628       4.20174602       3.95958871       16      -0.00137506      -0.00725767      -0.00063030
O       -2.09531933      12.60412309       3.95958871       16      -0.00032239      -0.00610738       0.00004429
O        6.81674737      12.60412309       3.95958871       16      -0.00007870      -0.00571600       0.00015863
O       -2.09531933       0.00055749      11.23626071       16      -0.00033177      -0.00600212       0.00023040
O        6.81674737       0.00055749      11.23626071       16      -0.00032446      -0.00606422       0.00006024
O       -5.06600823       8.40293456      11.23626070       16      -0.00031354      -0.00592819       0.00013199
O        3.84605847       8.40293456      11.23626070       16      -0.00031406      -0.00606055       0.00001037
O       -2.09531933       3.42882568       5.29639484       17       0.00417376      -0.00064551       0.00573146
O        6.81674738       3.42882568       5.29639484       17      -0.00044106       0.00307426       0.00530142
O       -5.06600823      11.83120275       5.29639484       17      -0.00034571       0.00291294       0.00528162
O        3.84605847      11.83120275       5.29639484       17      -0.00026676       0.00304368       0.00523572
O       -5.06600823      -0.77236285      12.57306684       17      -0.00031642       0.00308480       0.00505218
O        3.84605847      -0.77236285      12.57306684       17      -0.00032262       0.00304216       0.00526054
O       -8.03669713       7.63001422      12.57306683       17      -0.00033799       0.00304215       0.00520020
O        0.87536957       7.63001422      12.57306683       17      -0.00032853       0.00300745       0.00516718
O       -0.43587523       2.25542151       0.05211850       18      -0.00292988       0.00501404       0.00205592
O        8.47619148       2.25542151       0.05211850       18      -0.00292776       0.00481380       0.00200828
O       -3.40656413      10.65779858       0.05211850       18      -0.00290764       0.00497562       0.00195655
O        5.50550257      10.65779858       0.05211850       18      -0.00292904       0.00490913       0.00202816
O       -3.40656413      -1.94576702       7.32879050       18      -0.00348589       0.00832145       0.00112556
O        5.50550257      -1.94576702       7.32879050       18      -0.00291095       0.00493751       0.00200812
O       -6.37725303       6.45661005       7.32879049       18      -0.00485684       0.00688383       0.00489295
O        2.53481367       6.45661005       7.32879049       18      -0.00283002       0.00489736       0.00199785
O       -0.87536958      -0.77180538       1.97931157       19       0.00016452      -0.00320783       0.00536251
O        8.03669713      -0.77180538       1.97931157       19       0.00039446      -0.00292372       0.00533453
O       -3.84605848       7.63057169       1.97931157       19       0.00055025      -0.00215623       0.00428559
O        5.06600822       7.63057169       1.97931157       19       0.00030944      -0.00300584       0.00526815
O       -3.84605848      -4.97299391       9.25598357       19       0.00032557      -0.00313369       0.00534537
O        5.06600822      -4.97299391       9.25598357       19       0.00032808      -0.00296589       0.00526356
O       -6.81674738       3.42938316       9.25598356       19       0.00030999      -0.00381412       0.00548447
O        2.09531932       3.42938316       9.25598356       19       0.00025193      -0.00299308       0.00516200
O        3.93116762       5.00308454       1.92719307       20       0.00304918       0.00420050       0.00322959
O       12.84323433       5.00308454       1.92719307       20       0.00306440       0.00383196       0.00196229
O        0.96047872      13.40546161       1.92719307       20       0.00297465       0.00415933       0.00323200
O        9.87254542      13.40546161       1.92719307       20       0.00291814       0.00439613       0.00349052
O        0.96047872       0.80189601       9.20386507       20       0.00306833       0.00429354       0.00334319
O        9.87254542       0.80189601       9.20386507       20       0.00359159       0.00452377       0.00290907
O       -2.01021018       9.20427308       9.20386506       20       0.00303191       0.00430025       0.00324704
O        6.90185652       9.20427308       9.20386506       20       0.00302359       0.00415137       0.00323896
O        2.01021018       2.93313838       1.65805885       21      -0.00309676      -0.00067102       0.00531429
O       10.92227689       2.93313838       1.65805885       21      -0.00278699      -0.00113773       0.00517114
O       -0.96047872      11.33551545       1.65805885       21      -0.00297890      -0.00074792       0.00523719
O        7.95158798      11.33551545       1.65805885       21      -0.00299205      -0.00067197       0.00528422
O       -0.96047872      -1.26805015       8.93473085       21      -0.00307618      -0.00077584       0.00512060
O        7.95158798      -1.26805015       8.93473085       21      -0.00292613      -0.00065962       0.00520402
O       -3.93116762       7.13432692       8.93473084       21      -0.00264835       0.00041154       0.00690680
O        4.98089908       7.13432692       8.93473084       21      -0.00294515      -0.00074983       0.00522060
O        2.01021018       6.27113470       0.26913422       22      -0.00298199       0.00492439      -0.00200445
O       10.92227689       6.27113470       0.26913422       22      -0.00308175       0.00486593      -0.00202547
O       -0.96047872      14.67351177       0.26913422       22      -0.00299219       0.00489721      -0.00198422
O        7.95158798      14.67351177       0.26913422       22      -0.00291739       0.00494412      -0.00186457
O       -0.96047872       2.06994617       7.54580622       22      -0.00504853       0.00369215      -0.00310791
O        7.95158798       2.06994617       7.54580622       22      -0.00305862       0.00478381      -0.00180157
O       -3.93116762      10.47232324       7.54580621       22      -0.00298969       0.00508118      -0.00197067
O        4.98089908      10.47232324       7.54580621       22      -0.00296698       0.00486884      -0.00196804
O       -2.27172353       5.96092274       3.69045449       23      -0.00434693       0.00137492       0.00125374
O        6.64034318       5.96092274       3.69045449       23      -0.00555813       0.00116250       0.00206874
O       -5.24241243      14.36329981       3.69045449       23      -0.00577028       0.00115313       0.00210682
O        3.66965427      14.36329981       3.69045449       23      -0.00583375       0.00111183       0.00197307
O       -5.24241243       1.75973421      10.96712649       23      -0.00585699       0.00101538       0.00222468
O        3.66965427       1.75973421      10.96712649       23      -0.00559484       0.00112724       0.00202126
O       -8.21310133      10.16211128      10.96712648       23      -0.00565566       0.00119058       0.00205223
O        0.69896537      10.16211128      10.96712648       23      -0.00560745       0.00115872       0.00197121
O        3.40656413       1.94576703       7.22455349       24       0.00287079      -0.00488831      -0.00203466
O       12.31863084       1.94576703       7.22455349       24       0.00327420      -0.01214327       0.00215835
O        0.43587523      10.34814410       7.22455349       24       0.00295308      -0.00488656      -0.00204893
O        9.34794193      10.34814410       7.22455349       24       0.00301988      -0.00503586      -0.00202776
O        0.43587523      -2.25542150      14.50122549       24       0.00295998      -0.00491578      -0.00202736
O        9.34794193      -2.25542150      14.50122549       24       0.00298969      -0.00488984      -0.00202112
O       -2.53481367       6.14695557      14.50122548       24       0.00289125      -0.00498194      -0.00207243
O        6.37725303       6.14695557      14.50122548       24       0.00290418      -0.00492684      -0.00197719
O        5.24241243      -1.75973421       3.58621750       25       0.00558083      -0.00110133      -0.00201317
O       14.15447914      -1.75973421       3.58621750       25       0.00543495       0.00124759      -0.00096002
O        2.27172353       6.64264286       3.58621750       25       0.00553086      -0.00122870      -0.00196185
O       11.18379023       6.64264286       3.58621750       25       0.00270740       0.00158929      -0.00512211
O        2.27172353      -5.96092274      10.86288950       25       0.00560321      -0.00107476      -0.00199248
O       11.18379023      -5.96092274      10.86288950       25       0.00561279      -0.00111330      -0.00203741
O       -0.69896537       2.44145433      10.86288949       25       0.00562848      -0.00124302      -0.00213678
O        8.21310133       2.44145433      10.86288949       25       0.00565828      -0.00119257      -0.00202629
O        6.37725303       3.27344096       1.71114292       26       0.00291246       0.00427729      -0.00322496
O       15.28931974       3.27344096       1.71114292       26       0.00319131       0.00366896      -0.00339107
O        3.40656413      11.67581803       1.71114292       26       0.00292643       0.00417604      -0.00325888
O       12.31863083      11.67581803       1.71114292       26       0.00290745       0.00425967      -0.00320208
O        3.40656413      -0.92774757       8.98781492       26       0.00287519       0.00424105      -0.00329074
O       12.31863083      -0.92774757       8.98781492       26       0.00358109       0.00547975      -0.00502889
O        0.43587523       7.47462950       8.98781491       26       0.00299924       0.00432969      -0.00319457
O        9.34794193       7.47462950       8.98781491       26       0.00290057       0.00410018      -0.00316367
O        3.66965427       2.31616024       3.90747022       27      -0.00560439       0.00120337      -0.00193999
O       12.58172098       2.31616024       3.90747022       27      -0.00695460      -0.00631878      -0.00733259
O        0.69896537      10.71853731       3.90747022       27      -0.00565686       0.00118844      -0.00197241
O        9.61103207      10.71853731       3.90747022       27      -0.00561337       0.00122643      -0.00191736
O        0.69896537      -1.88502829      11.18414222       27      -0.00564774       0.00117619      -0.00202762
O        9.61103207      -1.88502829      11.18414222       27      -0.00556635       0.00123578      -0.00204403
O       -2.27172353       6.51734878      11.18414221       27      -0.00554886       0.00122525      -0.00193714
O        6.64034317       6.51734878      11.18414221       27      -0.00560026       0.00117536      -0.00199511
O        0.69896537       4.32648262       6.95541927       28      -0.00507217      -0.00204052      -0.00033439
O        9.61103208       4.32648262       6.95541927       28      -0.00654180      -0.00275778       0.00043559
O       -2.27172353      12.72885969       6.95541927       28      -0.00562965      -0.00240338      -0.00005978
O        6.64034317      12.72885969       6.95541927       28      -0.00548260      -0.00219854      -0.00000742
O       -2.27172353       0.12529409      14.23209127       28      -0.00562187      -0.00232326      -0.00006325
O        6.64034317       0.12529409      14.23209127       28      -0.00559409      -0.00239677       0.00007843
O       -5.24241243       8.52767116      14.23209126       28      -0.00566262      -0.00230814      -0.00003851
O        3.66965427       8.52767116      14.23209126       28      -0.00569114      -0.00233145      -0.00022890
O        2.27172353      -0.12529408       0.32125272       29       0.00564281       0.00228845       0.00002145
O       11.18379024      -0.12529408       0.32125272       29       0.00550806       0.00238925      -0.00007535
O       -0.69896537       8.27708299       0.32125272       29       0.00561037       0.00229639       0.00005083
O        8.21310133       8.27708299       0.32125272       29       0.00561237       0.00231284       0.00003007
O       -0.69896537      -4.32648261       7.59792472       29       0.00554262       0.00233760       0.00000829
O        8.21310133      -4.32648261       7.59792472       29       0.00557681       0.00229590       0.00007088
O       -3.66965427       4.07589446       7.59792471       29       0.00566556      -0.00718542      -0.00799272
O        5.24241243       4.07589446       7.59792471       29       0.00567824       0.00230219      -0.00001727
O       -3.40656413       0.92774757       5.56552906       30       0.00691782      -0.02890664       0.00192242
O        5.50550258       0.92774757       5.56552906       30      -0.00291887      -0.00419216       0.00323896
O       -6.37725303       9.33012464       5.56552906       30      -0.00301762      -0.00418385       0.00333992
O        2.53481367       9.33012464       5.56552906       30      -0.00298505      -0.00423553       0.00326538
O       -6.37725303      -3.27344096      12.84220106       30      -0.00295824      -0.00417653       0.00329552
O        2.53481367      -3.27344096      12.84220106       30      -0.00292737      -0.00418130       0.00326691
O       -9.34794193       5.12893611      12.84220105       30      -0.00293578      -0.00421528       0.00322659
O       -0.43587523       5.12893611      12.84220105       30      -0.00291956      -0.00420019       0.00327770
O        5.06600823       0.77236286       1.98027715       31       0.00028363      -0.00305515      -0.00520552
O       13.97807494       0.77236286       1.98027715       31       0.00049348      -0.00321808      -0.00440449