320
Lattice="17.824133412077096 1.3970074417045712e-09 -7.516654128604041e-16 -5.941377805342815 16.804754138805574 -2.419690265985799e-09 -5.94137780336715 -8.402377068005782 14.553343990170447" Properties=species:S:1:pos:R:3:spacegroup_kinds:I:1:forces:R:3 spacegroup="P 1" unit_cell=conventional occupancy="_JSON {\"0\": {\"In\": 1}, \"1\": {\"In\": 1}, \"2\": {\"In\": 1}, \"3\": {\"In\": 1}, \"4\": {\"In\": 1}, \"5\": {\"In\": 1}, \"6\": {\"In\": 1}, \"7\": {\"In\": 1}, \"8\": {\"In\": 1}, \"9\": {\"In\": 1}, \"10\": {\"In\": 1}, \"11\": {\"In\": 1}, \"12\": {\"In\": 1}, \"13\": {\"In\": 1}, \"14\": {\"In\": 1}, \"15\": {\"In\": 1}, \"16\": {\"O\": 1}, \"17\": {\"O\": 1}, \"18\": {\"O\": 1}, \"19\": {\"O\": 1}, \"20\": {\"O\": 1}, \"21\": {\"O\": 1}, \"22\": {\"O\": 1}, \"23\": {\"O\": 1}, \"24\": {\"O\": 1}, \"25\": {\"O\": 1}, \"26\": {\"O\": 1}, \"27\": {\"O\": 1}, \"28\": {\"O\": 1}, \"29\": {\"O\": 1}, \"30\": {\"O\": 1}, \"31\": {\"O\": 1}, \"32\": {\"O\": 1}, \"33\": {\"O\": 1}, \"34\": {\"O\": 1}, \"35\": {\"O\": 1}, \"36\": {\"O\": 1}, \"37\": {\"O\": 1}, \"38\": {\"O\": 1}, \"39\": {\"O\": 1}}" n_minim_iter=7 energy=-361215.24713513855 stress="0.00014051407066605886 2.641165250478151e-06 -7.098200001333812e-06 2.641165250478151e-06 0.00015240599602899993 5.905845781930571e-06 -7.098200001333812e-06 5.905845781930571e-06 0.00014838963409368638" free_energy=-45151.905940313234 pbc="T T T"
In      -4.25525990       3.00892313       5.70340025        0       0.00502864      -0.00043281       0.00110562
In       4.65680681       3.00892313       5.70340025        0       0.00284360      -0.00196829       0.00321920
In      -7.22594880      11.41130020       5.70340025        0       0.00173835      -0.00122623       0.00211306
In       1.68611790      11.41130020       5.70340025        0       0.00163730      -0.00100282       0.00211494
In      -7.22594880      -1.19226540      12.98007225        0       0.00178436      -0.00121876       0.00209294
In       1.68611790      -1.19226540      12.98007225        0       0.00176605      -0.00121876       0.00215412
In     -10.19663770       7.21011167      12.98007224        0       0.00166650      -0.00124215       0.00200842
In      -1.28457100       7.21011167      12.98007224        0       0.00173981      -0.00121701       0.00211526
In       7.22594880       1.19226541       1.57327174        1      -0.00151853       0.00127233      -0.00227555
In      16.13801551       1.19226541       1.57327174        1      -0.00082476       0.00228044      -0.00014899
In       4.25525990       9.59464248       1.57327174        1      -0.00169020       0.00136648      -0.00216210
In      13.16732660       9.59464248       1.57327174        1      -0.00174061       0.00119667      -0.00201089
In       4.25525990      -3.00892312       8.84994374        1      -0.00172104       0.00120931      -0.00210866
In      13.16732660      -3.00892312       8.84994374        1      -0.00170721       0.00124250      -0.00215410
In       1.28457100       5.39345395       8.84994373        1      -0.00166124       0.00066445      -0.00199150
In      10.19663770       5.39345395       8.84994373        1      -0.00177135       0.00125409      -0.00208434
In       1.28457100      -0.90832886       5.21160774        2      -0.00164709       0.00083456      -0.00152951
In      10.19663771      -0.90832886       5.21160774        2      -0.00180180       0.00118166      -0.00213175
In      -1.68611790       7.49404821       5.21160774        2      -0.00183048       0.00049054      -0.00222448
In       7.22594880       7.49404821       5.21160774        2      -0.00165339       0.00128438      -0.00219460
In      -1.68611790      -5.10951739      12.48827974        2      -0.00171400       0.00128635      -0.00207984
In       7.22594880      -5.10951739      12.48827974        2      -0.00180617       0.00118204      -0.00222029
In      -4.65680680       3.29285968      12.48827973        2      -0.00170207       0.00126183      -0.00214214
In       4.25525990       3.29285968      12.48827973        2      -0.00172962       0.00120940      -0.00207007
In      -4.45603335       6.30178280       3.63833600        3       0.00163987      -0.00074287       0.00002158
In       4.45603335       6.30178280       3.63833600        3       0.00125156       0.00052793      -0.00059109
In      -7.42672226      14.70415987       3.63833600        3       0.00010161       0.00018527      -0.00007467
In       1.48534445      14.70415987       3.63833600        3      -0.00001907       0.00006350      -0.00000719
In      -7.42672225       2.10059427      10.91500799        3       0.00000432       0.00001418      -0.00002871
In       1.48534445       2.10059427      10.91500799        3      -0.00007819      -0.00003215      -0.00002325
In     -10.39741116      10.50297133      10.91500799        3      -0.00003160      -0.00003499       0.00005226
In      -1.48534445      10.50297134      10.91500799        3       0.00000023      -0.00001797      -0.00002040
In      -1.28457100       4.05922027       3.39243974        4      -0.02462843      -0.00299799      -0.00809836
In       7.62749571       4.05922027       3.39243974        4       0.00172957      -0.00124953      -0.00228512
In      -4.25525990      12.46159734       3.39243974        4       0.00176148      -0.00118196      -0.00209725
In       4.65680680      12.46159734       3.39243974        4       0.00171715      -0.00116822      -0.00211870
In      -4.25525990      -0.14196826      10.66911174        4       0.00177204      -0.00119906      -0.00212399
In       4.65680680      -0.14196826      10.66911174        4       0.00172716      -0.00126451      -0.00208382
In      -7.22594880       8.26040881      10.66911173        4       0.00174673      -0.00122533      -0.00211943
In       1.68611790       8.26040881      10.66911173        4       0.00174317      -0.00121666      -0.00210984
In       4.65680681      -2.86695486       5.45750399        5       0.00176502       0.00237658       0.00001600
In      13.56887352      -2.86695486       5.45750399        5       0.00174961       0.00244539      -0.00000661
In       1.68611791       5.53542221       5.45750399        5      -0.00972469      -0.01001613      -0.01225537
In      10.59818461       5.53542221       5.45750399        5       0.00186671       0.00239582      -0.00007235
In       1.68611791      -7.06814339      12.73417599        5       0.00170262       0.00241818       0.00001270
In      10.59818461      -7.06814339      12.73417599        5       0.00175329       0.00235776      -0.00003567
In      -1.28457099       1.33423368      12.73417598        5       0.00171289       0.00246358       0.00005725
In       7.62749571       1.33423368      12.73417598        5       0.00171035       0.00245738      -0.00000087
In      -1.28457100       1.33423368       5.45750399        6       0.00177292       0.00476593      -0.00190956
In       7.62749571       1.33423368       5.45750399        6       0.00197211       0.00237303       0.00011638
In      -4.25525990       9.73661075       5.45750399        6       0.00176431       0.00234520      -0.00008572
In       4.65680680       9.73661075       5.45750399        6       0.00179727       0.00254729      -0.00005571
In      -4.25525990      -2.86695485      12.73417599        6       0.00168779       0.00234555      -0.00014741
In       4.65680680      -2.86695485      12.73417599        6       0.00174694       0.00244423       0.00000620
In      -7.22594880       5.53542222      12.73417598        6       0.00170436       0.00242077      -0.00001245
In       1.68611790       5.53542222      12.73417598        6       0.00177359       0.00245366       0.00005024
In      -1.68611791       7.06814340       1.81916800        7      -0.00082294      -0.00357941       0.00029252
In       7.22594880       7.06814340       1.81916800        7      -0.00152742      -0.00243556      -0.00000927
In      -4.65680681      15.47052047       1.81916800        7      -0.00189950      -0.00260828      -0.00012459
In       4.25525989      15.47052047       1.81916800        7      -0.00170274      -0.00245031      -0.00000020
In      -4.65680681       2.86695487       9.09584000        7      -0.00160422      -0.00230597      -0.00022941
In       4.25525989       2.86695487       9.09584000        7      -0.00162700      -0.00229868       0.00005424
In      -7.62749571      11.26933194       9.09583999        7      -0.00172739      -0.00243548      -0.00002153
In       1.28457099      11.26933194       9.09583999        7      -0.00170772      -0.00244507      -0.00002083
In       4.25525990       0.14196827       3.88423225        8      -0.00077158      -0.00070433       0.00235665
In      13.16732661       0.14196827       3.88423225        8      -0.00175302       0.00118440       0.00213827
In       1.28457100       8.54434534       3.88423225        8      -0.00332413       0.00285398       0.00262789
In      10.19663770       8.54434534       3.88423225        8      -0.00160466       0.00116707       0.00209759
In       1.28457100      -4.05922026      11.16090425        8      -0.00171079       0.00123184       0.00209921
In      10.19663770      -4.05922026      11.16090425        8      -0.00168097       0.00118726       0.00212480
In      -1.68611790       4.34315681      11.16090424        8      -0.00165182       0.00128207       0.00215572
In       7.22594880       4.34315681      11.16090424        8      -0.00171609       0.00119217       0.00209934
In      -1.48534445       4.20118854       0.00000000        9       0.00083926       0.00030062       0.00195471
In       7.42672226       4.20118854      -0.00000000        9       0.00009365      -0.00003881      -0.00006257
In      -4.45603335      12.60356561      -0.00000000        9       0.00002568      -0.00001397      -0.00002190
In       4.45603335      12.60356561      -0.00000000        9      -0.00001534       0.00001129      -0.00000711
In      -4.45603335       0.00000001       7.27667200        9       0.00004336       0.00009312      -0.00015905
In       4.45603335       0.00000001       7.27667200        9       0.00002137       0.00000146      -0.00007922
In      -7.42672225       8.40237708       7.27667199        9      -0.00000538       0.00001756       0.00002691
In       1.48534445       8.40237708       7.27667199        9      -0.00029082       0.00078429       0.00017912
In       4.25525990       6.44375107       0.24589625       10      -0.00089794       0.00220749       0.00124230
In      13.16732661       6.44375107       0.24589625       10      -0.00181844       0.00122694       0.00199584
In       1.28457100      14.84612814       0.24589625       10      -0.00170283       0.00119871       0.00212295
In      10.19663770      14.84612814       0.24589625       10      -0.00163975       0.00119111       0.00212907
In       1.28457100       2.24256254       7.52256825       10      -0.00200992       0.00153350       0.00194919
In      10.19663770       2.24256254       7.52256825       10      -0.00163105       0.00120944       0.00204948
In      -1.68611790      10.64493961       7.52256824       10      -0.00168954       0.00127694       0.00215504
In       7.22594880      10.64493961       7.52256824       10      -0.00167155       0.00124930       0.00212154
In      -1.28457100      -2.24256254       7.03077573       11       0.00181210      -0.00123716      -0.00216099
In       7.62749571      -2.24256254       7.03077573       11       0.00170175      -0.00116826      -0.00212187
In      -4.25525990       6.15981453       7.03077573       11       0.00170432      -0.00128918      -0.00223070
In       4.65680680       6.15981453       7.03077573       11       0.00269504      -0.00035699      -0.00066101
In      -4.25525990      -6.44375107      14.30744773       11       0.00126389      -0.00222862      -0.00409395
In       4.65680680      -6.44375107      14.30744773       11       0.00177706      -0.00120517      -0.00208592
In      -7.22594880       1.95862600      14.30744772       11       0.00176680      -0.00126785      -0.00213384
In       1.68611790       1.95862600      14.30744772       11       0.00168790      -0.00126846      -0.00207658
In       4.25525990       2.86695486       1.81916800       12      -0.00075035      -0.00303086      -0.00077107
In      13.16732661       2.86695486       1.81916800       12      -0.00109923      -0.00225705       0.00022929
In       1.28457100      11.26933193       1.81916800       12      -0.00175750      -0.00234914       0.00004966
In      10.19663770      11.26933193       1.81916800       12      -0.00172857      -0.00245926       0.00000234
In       1.28457100      -1.33423367       9.09584000       12      -0.00178626      -0.00242987      -0.00002152
In      10.19663770      -1.33423367       9.09584000       12      -0.00173204      -0.00243468       0.00000014
In      -1.68611790       7.06814340       9.09583999       12      -0.00181389      -0.00239041       0.00007898
In       7.22594880       7.06814340       9.09583999       12      -0.00190573      -0.00254215      -0.00016984
In       1.68611790       5.10951740       2.06506425       13      -0.00723261      -0.00341946       0.00796832
In      10.59818461       5.10951740       2.06506425       13       0.00177147      -0.00118681       0.00210754
In      -1.28457100      13.51189447       2.06506425       13       0.00169116      -0.00113918       0.00208751
In       7.62749570      13.51189447       2.06506425       13       0.00171905      -0.00121624       0.00212916
In      -1.28457100       0.90832887       9.34173625       13       0.00182951      -0.00122167       0.00208229
In       7.62749570       0.90832887       9.34173625       13       0.00172243      -0.00119811       0.00208510
In      -4.25525990       9.31070594       9.34173624       13       0.00168907      -0.00119558       0.00213680
In       4.65680680       9.31070594       9.34173624       13       0.00170841      -0.00121859       0.00209701
In       1.48534445       8.40237707      -0.00000000       14      -0.00011674       0.00016320       0.00001985
In      10.39741115       8.40237707      -0.00000000       14       0.00001563       0.00000762      -0.00003484
In      -1.48534446      16.80475414      -0.00000000       14       0.00009213       0.00011545       0.00003127
In       7.42672225      16.80475414      -0.00000000       14       0.00011965       0.00008986       0.00007878
In      -1.48534445       4.20118854       7.27667199       14       0.00006317      -0.00004219      -0.00199301
In       7.42672225       4.20118854       7.27667199       14       0.00029393      -0.00009467       0.00019164
In      -4.45603336      12.60356560       7.27667199       14       0.00001284      -0.00002341       0.00002397
In       4.45603335      12.60356561       7.27667199       14      -0.00001933       0.00002573       0.00000210
In       1.48534445       2.10059427       3.63833599       15      -0.00684676       0.00802444       0.00096561
In      10.39741116       2.10059427       3.63833599       15       0.00001423      -0.00000117       0.00002888
In      -1.48534445      10.50297134       3.63833599       15      -0.00002724       0.00037481      -0.00004742
In       7.42672225      10.50297134       3.63833599       15      -0.00005250      -0.00004386      -0.00001874
In      -1.48534445      -2.10059426      10.91500799       15      -0.00001339       0.00000939      -0.00007087
In       7.42672225      -2.10059426      10.91500799       15      -0.00000177      -0.00002224       0.00001016
In      -4.45603335       6.30178281      10.91500798       15      -0.00003543       0.00002508       0.00004103
In       4.45603335       6.30178281      10.91500798       15       0.00002949       0.00004542       0.00007575
O        0.86536957       4.20174602       3.95958871       16       0.07832328       0.01220229       0.01771468
O        9.78743628       4.20174602       3.95958871       16      -0.00036832      -0.00604939       0.00001216
O       -2.09531933      12.60412309       3.95958871       16      -0.00030150      -0.00607635       0.00002835
O        6.81674737      12.60412309       3.95958871       16      -0.00023270      -0.00592702       0.00005035
O       -2.09531933       0.00055749      11.23626071       16      -0.00032848      -0.00604794      -0.00003214
O        6.81674737       0.00055749      11.23626071       16      -0.00030565      -0.00607228       0.00005783
O       -5.06600823       8.40293456      11.23626070       16      -0.00031949      -0.00606612       0.00000198
O        3.84605847       8.40293456      11.23626070       16      -0.00024041      -0.00608451       0.00001239
O       -2.09531933       3.42882568       5.29639484       17      -0.00661793       0.00078423       0.00994552
O        6.81674738       3.42882568       5.29639484       17      -0.00130323       0.00301842       0.00528733
O       -5.06600823      11.83120275       5.29639484       17      -0.00026328       0.00303213       0.00520611
O        3.84605847      11.83120275       5.29639484       17      -0.00032301       0.00298833       0.00522082
O       -5.06600823      -0.77236285      12.57306684       17      -0.00035153       0.00300407       0.00522403
O        3.84605847      -0.77236285      12.57306684       17      -0.00030902       0.00304888       0.00524308
O       -8.03669713       7.63001422      12.57306683       17      -0.00029834       0.00316622       0.00533582
O        0.87536957       7.63001422      12.57306683       17      -0.00028164       0.00308873       0.00526382
O       -0.43587523       2.25542151       0.05211850       18      -0.00326338       0.00443472       0.00091986
O        8.47619148       2.25542151       0.05211850       18      -0.00309825       0.00493913       0.00208833
O       -3.40656413      10.65779858       0.05211850       18      -0.00297881       0.00499683       0.00201268
O        5.50550257      10.65779858       0.05211850       18      -0.00297436       0.00481213       0.00205825
O       -3.40656413      -1.94576702       7.32879050       18      -0.00297883       0.00478148       0.00212249
O        5.50550257      -1.94576702       7.32879050       18      -0.00294696       0.00501405       0.00189402
O       -6.37725303       6.45661005       7.32879049       18      -0.00297932       0.00496491       0.00204497
O        2.53481367       6.45661005       7.32879049       18      -0.00280626       0.00500057       0.00208096
O       -0.87536958      -0.77180538       1.97931157       19       0.00021037      -0.00360953       0.00479736
O        8.03669713      -0.77180538       1.97931157       19       0.00017526      -0.00294926       0.00532839
O       -3.84605848       7.63057169       1.97931157       19      -0.00000227      -0.00255541       0.00500250
O        5.06600822       7.63057169       1.97931157       19      -0.00005347      -0.00311404       0.00533655
O       -3.84605848      -4.97299391       9.25598357       19       0.00029850      -0.00300253       0.00525963
O        5.06600822      -4.97299391       9.25598357       19       0.00031331      -0.00299679       0.00528049
O       -6.81674738       3.42938316       9.25598356       19       0.00031594      -0.00301127       0.00528463
O        2.09531932       3.42938316       9.25598356       19       0.00045425      -0.00312922       0.00574774
O        3.93116762       5.00308454       1.92719307       20       0.00192934       0.00343832       0.00453089
O       12.84323433       5.00308454       1.92719307       20       0.00288775       0.00393749       0.00297409
O        0.96047872      13.40546161       1.92719307       20       0.00298067       0.00432220       0.00322678
O        9.87254542      13.40546161       1.92719307       20       0.00300113       0.00421710       0.00324067
O        0.96047872       0.80189601       9.20386507       20       0.00281612       0.00429887       0.00315147
O        9.87254542       0.80189601       9.20386507       20       0.00301738       0.00414862       0.00328157
O       -2.01021018       9.20427308       9.20386506       20       0.00295646       0.00404413       0.00313260
O        6.90185652       9.20427308       9.20386506       20       0.00301212       0.00419296       0.00316528
O        2.01021018       2.93313838       1.65805885       21      -0.00392196       0.00404952       0.01412338
O       10.92227689       2.93313838       1.65805885       21      -0.00304785      -0.00073803       0.00522071
O       -0.96047872      11.33551545       1.65805885       21      -0.00300250      -0.00079504       0.00526861
O        7.95158798      11.33551545       1.65805885       21      -0.00298701      -0.00073589       0.00521851
O       -0.96047872      -1.26805015       8.93473085       21      -0.00305798      -0.00064165       0.00525363
O        7.95158798      -1.26805015       8.93473085       21      -0.00297700      -0.00073143       0.00523406
O       -3.93116762       7.13432692       8.93473084       21      -0.00290582      -0.00063479       0.00522889
O        4.98089908       7.13432692       8.93473084       21      -0.00274749      -0.00041250       0.00570458
O        2.01021018       6.27113470       0.26913422       22      -0.00308179       0.00466993      -0.00177223
O       10.92227689       6.27113470       0.26913422       22      -0.00318529       0.00494477      -0.00204880
O       -0.96047872      14.67351177       0.26913422       22      -0.00299373       0.00504925      -0.00189482
O        7.95158798      14.67351177       0.26913422       22      -0.00305048       0.00479710      -0.00202645
O       -0.96047872       2.06994617       7.54580622       22      -0.00294907       0.00414783      -0.00087508
O        7.95158798       2.06994617       7.54580622       22      -0.00323828       0.00498109      -0.00213132
O       -3.93116762      10.47232324       7.54580621       22      -0.00301981       0.00491878      -0.00195155
O        4.98089908      10.47232324       7.54580621       22      -0.00294236       0.00484714      -0.00199456
O       -2.27172353       5.96092274       3.69045449       23      -0.00785742       0.00510857       0.00227686
O        6.64034318       5.96092274       3.69045449       23      -0.00640227       0.00103922       0.00219479
O       -5.24241243      14.36329981       3.69045449       23      -0.00569710       0.00117337       0.00197961
O        3.66965427      14.36329981       3.69045449       23      -0.00557598       0.00113993       0.00202276
O       -5.24241243       1.75973421      10.96712649       23      -0.00558669       0.00108567       0.00201514
O        3.66965427       1.75973421      10.96712649       23      -0.00562808       0.00115718       0.00209327
O       -8.21310133      10.16211128      10.96712648       23      -0.00559165       0.00111724       0.00209369
O        0.69896537      10.16211128      10.96712648       23      -0.00558954       0.00107176       0.00198948
O        3.40656413       1.94576703       7.22455349       24       0.00323146      -0.00461877      -0.00244152
O       12.31863084       1.94576703       7.22455349       24       0.00307717      -0.00491733      -0.00200111
O        0.43587523      10.34814410       7.22455349       24       0.00304373      -0.00487924      -0.00200422
O        9.34794193      10.34814410       7.22455349       24       0.00289151      -0.00493465      -0.00204392
O        0.43587523      -2.25542150      14.50122549       24       0.00295467      -0.00495353      -0.00195123
O        9.34794193      -2.25542150      14.50122549       24       0.00197058      -0.00476646      -0.00260120
O       -2.53481367       6.14695557      14.50122548       24       0.00292575      -0.00490895      -0.00200769
O        6.37725303       6.14695557      14.50122548       24       0.00298957      -0.00479426      -0.00193844
O        5.24241243      -1.75973421       3.58621750       25       0.00571194      -0.00138398      -0.00209947
O       14.15447914      -1.75973421       3.58621750       25       0.00561771      -0.00121174      -0.00214667
O        2.27172353       6.64264286       3.58621750       25       0.00158892      -0.01408909      -0.00135934
O       11.18379023       6.64264286       3.58621750       25       0.00543302      -0.00111275      -0.00201176
O        2.27172353      -5.96092274      10.86288950       25       0.00561726      -0.00113384      -0.00203260
O       11.18379023      -5.96092274      10.86288950       25       0.00560785      -0.00112833      -0.00193529
O       -0.69896537       2.44145433      10.86288949       25       0.00563646      -0.00116594      -0.00215186
O        8.21310133       2.44145433      10.86288949       25       0.00560712      -0.00109892      -0.00203699
O        6.37725303       3.27344096       1.71114292       26       0.00232719       0.00395273      -0.00310440
O       15.28931974       3.27344096       1.71114292       26       0.00237887       0.00325956      -0.00518504
O        3.40656413      11.67581803       1.71114292       26       0.00295068       0.00423030      -0.00324992
O       12.31863083      11.67581803       1.71114292       26       0.00296448       0.00421723      -0.00321122
O        3.40656413      -0.92774757       8.98781492       26       0.00288173       0.00407057      -0.00318637
O       12.31863083      -0.92774757       8.98781492       26       0.00293245       0.00420770      -0.00319231
O        0.43587523       7.47462950       8.98781491       26       0.00278720       0.00409312      -0.00337718
O        9.34794193       7.47462950       8.98781491       26       0.00284058       0.00420246      -0.00325889
O        3.66965427       2.31616024       3.90747022       27      -0.00965386       0.00398774      -0.00159999
O       12.58172098       2.31616024       3.90747022       27      -0.00568129       0.00116458      -0.00214317
O        0.69896537      10.71853731       3.90747022       27      -0.00569298       0.00109554      -0.00204375
O        9.61103207      10.71853731       3.90747022       27      -0.00557781       0.00122750      -0.00199092
O        0.69896537      -1.88502829      11.18414222       27      -0.00558059       0.00112977      -0.00197627
O        9.61103207      -1.88502829      11.18414222       27      -0.00559181       0.00115344      -0.00201438
O       -2.27172353       6.51734878      11.18414221       27      -0.00564349       0.00119925      -0.00198390
O        6.64034317       6.51734878      11.18414221       27      -0.00560844       0.00112316      -0.00211816
O        0.69896537       4.32648262       6.95541927       28      -0.00307352      -0.00165349      -0.00041198
O        9.61103208       4.32648262       6.95541927       28      -0.00572261      -0.00226523      -0.00003080
O       -2.27172353      12.72885969       6.95541927       28      -0.00565893      -0.00224331      -0.00006545
O        6.64034317      12.72885969       6.95541927       28      -0.00556733      -0.00228161      -0.00003657
O       -2.27172353       0.12529409      14.23209127       28      -0.00554540      -0.00208477      -0.00026329
O        6.64034317       0.12529409      14.23209127       28      -0.00571803      -0.00224778      -0.00009057
O       -5.24241243       8.52767116      14.23209126       28      -0.00571517      -0.00227070       0.00005018
O        3.66965427       8.52767116      14.23209126       28      -0.00552670      -0.00207607       0.00015879
O        2.27172353      -0.12529408       0.32125272       29       0.00559158       0.00255494      -0.00010002
O       11.18379024      -0.12529408       0.32125272       29       0.00554491       0.00227019       0.00000271
O       -0.69896537       8.27708299       0.32125272       29       0.00559970       0.00257812       0.00019249
O        8.21310133       8.27708299       0.32125272       29       0.00547417       0.00224935       0.00008446
O       -0.69896537      -4.32648261       7.59792472       29       0.00561852       0.00229635       0.00004273
O        8.21310133      -4.32648261       7.59792472       29       0.00561068       0.00229752       0.00003134
O       -3.66965427       4.07589446       7.59792471       29       0.00499405       0.00233292       0.00068724
O        5.24241243       4.07589446       7.59792471       29       0.00505406       0.00239307      -0.00059676
O       -3.40656413       0.92774757       5.56552906       30      -0.00336374      -0.00486780       0.00371851
O        5.50550258       0.92774757       5.56552906       30      -0.00356175      -0.00377580       0.00280103
O       -6.37725303       9.33012464       5.56552906       30      -0.00298993      -0.00414507       0.00324461
O        2.53481367       9.33012464       5.56552906       30      -0.00297697      -0.00399655       0.00304982
O       -6.37725303      -3.27344096      12.84220106       30      -0.00279388      -0.00428116       0.00277778
O        2.53481367      -3.27344096      12.84220106       30      -0.00293700      -0.00418483       0.00323811
O       -9.34794193       5.12893611      12.84220105       30      -0.00295546      -0.00420533       0.00325767
O       -0.43587523       5.12893611      12.84220105       30      -0.00292975      -0.00422140       0.00326373
O        5.06600823       0.77236286       1.98027715       31      -0.00004847      -0.00232693      -0.00495458
O       13.97807494       0.77236286       1.98027715       31      -0.00000223      -0.00280187      -0.00531179