1
Lattice="3.9147743772514962 0.5661246496620194 -3.7504928010999864e-10 0.8357078552491786 3.8662058823107968 -8.198938857060164e-10 -2.375241116098601 -2.2161652655406314 2.256722557149125" Properties=species:S:1:pos:R:3:spacegroup_kinds:I:1:forces:R:3 spacegroup="P 1" unit_cell=conventional occupancy="_JSON {\"0\": {\"In\": 1}}" n_minim_iter=1 energy=-1969.9888286607782 stress="-0.04097890679863208 0.018316071308906303 -4.550152665416392e-12 0.018316071308906303 -0.04352030352475458 -4.42541873871678e-12 -4.550152665416392e-12 -4.42541873871678e-12 -0.060609701635032535" free_energy=-1969.9888286607782 pbc="T T T"
In       0.00000000       0.00000000       0.00000000        0      -0.00000000       0.00000000      -0.00000000
1
Lattice="3.8963807075641688 0.5310534139636007 -3.6688477707198197e-10 0.7994476939334818 3.850283591039119 -8.143106532827892e-10 -2.3479142005962084 -2.1906685020529975 2.269817342323431" Properties=species:S:1:pos:R:3:spacegroup_kinds:I:1:forces:R:3 spacegroup="P 1" unit_cell=conventional occupancy="_JSON {\"0\": {\"In\": 1}}" n_minim_iter=2 energy=-1969.9987681887753 stress="-0.0332806260145219 0.007790713004561151 -2.793894481623352e-12 0.007790713004561151 -0.034361605236902674 -1.7016766991659289e-12 -2.793894481623352e-12 -1.7016766991659289e-12 -0.041630554666401615" free_energy=-1969.9987681887753 pbc="T T T"
In       0.00000000       0.00000000       0.00000000        0       0.00000000       0.00000000       0.00000000
