1
Lattice="3.998003639911532 0.6024027787973079 -3.8781066938926475e-10 0.8776592735942518 3.9467247702522372 -8.38617607722214e-10 -2.4378314565991213 -2.2745637740730205 2.2869760907230923" Properties=species:S:1:pos:R:3:spacegroup_kinds:I:1:forces:R:3 spacegroup="P 1" unit_cell=conventional occupancy="_JSON {\"0\": {\"In\": 1}}" n_minim_iter=2 energy=-1970.0334086591945 stress="-0.007811773970136743 0.0037515790172071707 -9.682804838658376e-13 0.0037515790172071707 -0.008332314124969282 -9.899105690872345e-13 -9.682804838658376e-13 -9.899105690872345e-13 -0.01183264050045947" free_energy=-1970.0334086591945 pbc="T T T"
In       0.00000000       0.00000000       0.00000000        0      -0.00000000       0.00000000       0.00000000
