1
Lattice="4.358119594804172 0.6822529989735581 -4.2778881769914604e-10 0.9822415716206495 4.300450796393873 -9.155160639538208e-10 -2.6701805830460517 -2.49135189719497 2.4742629075123292" Properties=species:S:1:pos:R:3:spacegroup_kinds:I:1:forces:R:3 spacegroup="P 1" unit_cell=conventional occupancy="_JSON {\"0\": {\"In\": 1}}" n_minim_iter=1 energy=-1969.865183872986 stress="0.009226431366539889 0.0018065512438974792 -3.54682696703988e-13 0.0018065512438974792 0.008975768256957005 -5.962691087795092e-13 -3.54682696703988e-13 -5.962691087795092e-13 0.007290206276144978" free_energy=-1969.865183872986 pbc="T T T"
In       0.00000000       0.00000000       0.00000000        0       0.00000000      -0.00000000       0.00000000
