1
Lattice="4.238658421231986 0.6635516434559873 -4.160658031507418e-10 0.9553171772058917 4.182570392276661 -8.904255052646093e-10 -2.5969877990571377 -2.4230610173909746 2.4064404569742743" Properties=species:S:1:pos:R:3:spacegroup_kinds:I:1:forces:R:3 spacegroup="P 1" unit_cell=conventional occupancy="_JSON {\"0\": {\"In\": 1}}" n_minim_iter=1 energy=-1969.9316351354212 stress="0.027629498491881132 0.004097359815812442 -7.335962910238819e-13 0.004097359815812442 0.02706098045632021 -1.4283192482602587e-12 -7.335962910238819e-13 -1.4283192482602587e-12 0.023238031096367157" free_energy=-1969.9316351354212 pbc="T T T"
In       0.00000000       0.00000000       0.00000000        0      -0.00000000      -0.00000000       0.00000000
