1
Lattice="3.8609571040471087 0.5262253884202786 -3.635492762945008e-10 0.7921795853301438 3.815279075414547 -8.06907419387906e-10 -2.326568344537397 -2.1707522314731262 2.24918149700305" Properties=species:S:1:pos:R:3:spacegroup_kinds:I:1:forces:R:3 spacegroup="P 1" unit_cell=conventional occupancy="_JSON {\"0\": {\"In\": 1}}" n_minim_iter=2 energy=-1969.9987681887753 stress="-0.0332806260145219 0.007790713004561151 -2.793894481623352e-12 0.007790713004561151 -0.034361605236902674 -1.7016766991659289e-12 -2.793894481623352e-12 -1.7016766991659289e-12 -0.041630554666401615" free_energy=-1969.9987681887753 pbc="T T T"
In       0.00000000       0.00000000       0.00000000        0       0.00000000       0.00000000       0.00000000
