1
Lattice="3.7827699750792347 0.43917554045984186 -3.410951145229769e-10 0.6999271572506564 3.7433041306100376 -7.864846507190559e-10 -2.241348566013023 -2.0912398350886163 2.259490295944872" Properties=species:S:1:pos:R:3:spacegroup_kinds:I:1:forces:R:3 spacegroup="P 1" unit_cell=conventional occupancy="_JSON {\"0\": {\"In\": 1}}" n_minim_iter=2 energy=-1969.9188495836174 stress="-0.0756019551707491 0.009985747814979433 -3.3396411498943575e-12 0.009985747814979433 -0.0769875004865166 -3.735206669287293e-12 -3.3396411498943575e-12 -3.735206669287293e-12 -0.0863044777370066" free_energy=-1969.9188495836174 pbc="T T T"
In       0.00000000       0.00000000       0.00000000        0       0.00000000       0.00000000       0.00000000
