1
Lattice="3.636265303650262 0.3553771279236063 -3.1469355432532806e-10 0.6061901255182153 3.6029504289271297 -7.524596602804681e-10 -2.121227714434916 -1.9791637779866849 2.220815612562347" Properties=species:S:1:pos:R:3:spacegroup_kinds:I:1:forces:R:3 spacegroup="P 1" unit_cell=conventional occupancy="_JSON {\"0\": {\"In\": 1}}" n_minim_iter=2 energy=-1969.712509578305 stress="-0.17171189192700897 0.00948289198459138 -2.3877611986789944e-12 0.00948289198459138 -0.17302766484899418 -1.6592510988046972e-12 -2.3877611986789944e-12 -1.6592510988046972e-12 -0.18187546379130046" free_energy=-1969.712509578305 pbc="T T T"
In       0.00000000       0.00000000       0.00000000        0       0.00000000       0.00000000       0.00000000
