1
Lattice="4.144434633907212 0.6488011392354013 -4.068186264799504e-10 0.934080834574018 4.0895934208041105 -8.706328756654532e-10 -2.53925773408241 -2.369197279554972 2.35294618796409" Properties=species:S:1:pos:R:3:spacegroup_kinds:I:1:forces:R:3 spacegroup="P 1" unit_cell=conventional occupancy="_JSON {\"0\": {\"In\": 1}}" n_minim_iter=1 energy=-1970.003962221069 stress="0.025000197396957156 0.0016915367800070548 -4.0136361797702086e-13 0.0016915367800070548 0.024765492800661076 -4.840596397080685e-13 -4.0136361797702086e-13 -4.840596397080685e-13 0.0231872424808302" free_energy=-1970.003962221069 pbc="T T T"
In       0.00000000       0.00000000       0.00000000        0       0.00000000       0.00000000       0.00000000
