1
Lattice="3.94972956947185 0.5711796015040999 -3.7839736863724256e-10 0.8431699273650196 3.900727404308322 -8.2721327435327e-10 -2.396449748265344 -2.2359535024564536 2.2768729319016376" Properties=species:S:1:pos:R:3:spacegroup_kinds:I:1:forces:R:3 spacegroup="P 1" unit_cell=conventional occupancy="_JSON {\"0\": {\"In\": 1}}" n_minim_iter=2 energy=-1970.020600680621 stress="-0.022040142991842468 0.004738089250008433 -1.5738050278525482e-12 0.004738089250008433 -0.022697563695701663 -1.1302024393119208e-13 -1.5738050278525482e-12 -1.1302024393119208e-13 -0.027118331234749486" free_energy=-1970.020600680621 pbc="T T T"
In       0.00000000       0.00000000       0.00000000        0      -0.00000000       0.00000000       0.00000000
