1
Lattice="3.43062895015736 -1.6865508989383216e-10 -2.306647266819062e-10 0.2374330981691306 3.4224027404079136 -6.919959221490024e-10 -1.8340310240058866 -1.7112013696573334 2.3403707119011243" Properties=species:S:1:pos:R:3:spacegroup_kinds:I:1:forces:R:3 spacegroup="P 1" unit_cell=conventional occupancy="_JSON {\"0\": {\"In\": 1}}" n_minim_iter=1 energy=-1969.1158511448566 stress="-0.2707881703810405 -0.02572138764121422 7.332979240857394e-12 -0.02572138764121422 -0.2672192691006011 6.84187201478336e-12 7.332979240857394e-12 6.84187201478336e-12 -0.24322050724605812" free_energy=-1969.1158511448566 pbc="T T T"
In       0.00000000       0.00000000       0.00000000        0      -0.00000000       0.00000000       0.00000000
1
Lattice="3.570021167089911 0.013499852303044136 -2.4270374232182997e-10 0.26054788533982215 3.5605263907078624 -7.208339766878286e-10 -1.9152845260517775 -1.7870131210263236 2.4255932612514792" Properties=species:S:1:pos:R:3:spacegroup_kinds:I:1:forces:R:3 spacegroup="P 1" unit_cell=conventional occupancy="_JSON {\"0\": {\"In\": 1}}" n_minim_iter=2 energy=-1969.575983488896 stress="-0.0967691514159922 -0.0434321650031313 1.2012032745022721e-11 -0.0434321650031313 -0.09074283932684292 1.1346248174279635e-11 1.2012032745022721e-11 1.1346248174279635e-11 -0.050219435263657144" free_energy=-1969.575983488896 pbc="T T T"
In       0.00000000       0.00000000       0.00000000        0       0.00000000       0.00000000      -0.00000000
1
Lattice="3.809162940534088 0.19899088250198324 -2.9542275752708363e-10 0.46214508291806644 3.7862569380843487 -7.789775544850061e-10 -2.1356540115611384 -1.9926239098086005 2.453110591844387" Properties=species:S:1:pos:R:3:spacegroup_kinds:I:1:forces:R:3 spacegroup="P 1" unit_cell=conventional occupancy="_JSON {\"0\": {\"In\": 1}}" n_minim_iter=3 energy=-1969.863056613114 stress="-0.00025145612179117355 -0.013781911771548673 3.708588244269949e-12 -0.013781911771548673 0.0016608156125973278 3.4296340696576432e-12 3.708588244269949e-12 3.4296340696576432e-12 0.014519718212670946" free_energy=-1969.863056613114 pbc="T T T"
In       0.00000000       0.00000000       0.00000000        0       0.00000000      -0.00000000      -0.00000000
1
Lattice="4.07821569910813 0.5970888237055837 -3.921493441597676e-10 0.8779095202059679 4.0271122688817425 -8.545096654784936e-10 -2.478062609499339 -2.3121005458303356 2.3455820431650882" Properties=species:S:1:pos:R:3:spacegroup_kinds:I:1:forces:R:3 spacegroup="P 1" unit_cell=conventional occupancy="_JSON {\"0\": {\"In\": 1}}" n_minim_iter=4 energy=-1970.0074795124929 stress="0.019295258683204454 -0.00656685240691492 1.2553349315425878e-12 -0.00656685240691492 0.020206424452734906 1.1713046335118635e-12 1.2553349315425878e-12 1.1713046335118635e-12 0.026333478298850407" free_energy=-1970.0074795124929 pbc="T T T"
In       0.00000000       0.00000000       0.00000000        0       0.00000000       0.00000000      -0.00000000
1
Lattice="4.097534501341036 0.6399819999240673 -4.0192259319603445e-10 0.9220368942543382 4.043416119513394 -8.606977533759689e-10 -2.5097856976411994 -2.341699059258994 2.327399238997931" Properties=species:S:1:pos:R:3:spacegroup_kinds:I:1:forces:R:3 spacegroup="P 1" unit_cell=conventional occupancy="_JSON {\"0\": {\"In\": 1}}" n_minim_iter=5 energy=-1970.0126552668967 stress="0.022456416797821815 0.0014446690014292922 -3.2107975934914666e-13 0.0014446690014292922 0.022255965674385834 -3.550882603244006e-13 -3.2107975934914666e-13 -3.550882603244006e-13 0.020908049775937423" free_energy=-1970.0126552668967 pbc="T T T"
In       0.00000000       0.00000000       0.00000000        0       0.00000000       0.00000000      -0.00000000
1
Lattice="4.045719849358419 0.6333475803468969 -3.9712942760395017e-10 0.9118323021489316 3.992184879208594 -8.498935475264105e-10 -2.47877607559924 -2.3127662293240316 2.2969022165863073" Properties=species:S:1:pos:R:3:spacegroup_kinds:I:1:forces:R:3 spacegroup="P 1" unit_cell=conventional occupancy="_JSON {\"0\": {\"In\": 1}}" n_minim_iter=6 energy=-1970.0327940160284 stress="0.006697763207285219 0.005768699124918565 -2.4620636078659038e-12 0.005768699124918565 0.005897343030035304 -1.8036722855368617e-12 -2.4620636078659038e-12 -1.8036722855368617e-12 0.0005149881413382895" free_energy=-1970.0327940160284 pbc="T T T"
In       0.00000000       0.00000000       0.00000000        0       0.00000000       0.00000000      -0.00000000
