1
Lattice="4.299218866432906 0.6730322335267047 -4.22006791178224e-10 0.968966409536073 4.242329471652262 -9.031425890477937e-10 -2.6340926378203786 -2.4576808521073437 2.4408228230299684" Properties=species:S:1:pos:R:3:spacegroup_kinds:I:1:forces:R:3 spacegroup="P 1" unit_cell=conventional occupancy="_JSON {\"0\": {\"In\": 1}}" n_minim_iter=1 energy=-1969.8755404758508 stress="0.015532165841868426 0.002704820427975028 -8.373818655775809e-13 0.002704820427975028 0.015156865828998011 1.1876595700217743e-13 -8.373818655775809e-13 1.1876595700217743e-13 0.012633194005550887" free_energy=-1969.8755404758508 pbc="T T T"
In       0.00000000       0.00000000       0.00000000        0      -0.00000000      -0.00000000      -0.00000000
