40
Lattice="8.99635844189739 7.051067716062844e-10 -1.7374013909278686e-15 -2.998786147963909 8.481848080098946 -1.2212855942134457e-09 -2.9987861469667374 -4.240924039344361 7.345495909220148" Properties=species:S:1:pos:R:3:spacegroup_kinds:I:1:forces:R:3 spacegroup="P 1" unit_cell=conventional occupancy="_JSON {\"0\": {\"In\": 1}, \"1\": {\"In\": 1}, \"2\": {\"In\": 1}, \"3\": {\"In\": 1}, \"4\": {\"In\": 1}, \"5\": {\"In\": 1}, \"6\": {\"In\": 1}, \"7\": {\"In\": 1}, \"8\": {\"In\": 1}, \"9\": {\"In\": 1}, \"10\": {\"In\": 1}, \"11\": {\"In\": 1}, \"12\": {\"In\": 1}, \"13\": {\"In\": 1}, \"14\": {\"In\": 1}, \"15\": {\"In\": 1}, \"16\": {\"O\": 1}, \"17\": {\"O\": 1}, \"18\": {\"O\": 1}, \"19\": {\"O\": 1}, \"20\": {\"O\": 1}, \"21\": {\"O\": 1}, \"22\": {\"O\": 1}, \"23\": {\"O\": 1}, \"24\": {\"O\": 1}, \"25\": {\"O\": 1}, \"26\": {\"O\": 1}, \"27\": {\"O\": 1}, \"28\": {\"O\": 1}, \"29\": {\"O\": 1}, \"30\": {\"O\": 1}, \"31\": {\"O\": 1}, \"32\": {\"O\": 1}, \"33\": {\"O\": 1}, \"34\": {\"O\": 1}, \"35\": {\"O\": 1}, \"36\": {\"O\": 1}, \"37\": {\"O\": 1}, \"38\": {\"O\": 1}, \"39\": {\"O\": 1}}" n_minim_iter=5 energy=-45151.13526796123 stress="0.009095831777193778 4.631541901729327e-13 2.6399272851863756e-14 4.631541901729327e-13 0.009095831774108944 -4.697576480324932e-13 2.6399272851863756e-14 -4.697576480324932e-13 0.009095831777146485" free_energy=-45151.13526796123 pbc="T T T"
In      -4.30176148       3.04180472       5.74968355        0      -0.00310799       0.00219768      -0.00380649
In       7.30054762       1.19911933       1.59581235        1       0.00310799      -0.00219768       0.00380649
In       1.30297533      -0.92134269       5.26856031        2       0.00310799      -0.00219768       0.00380649
In      -1.49939308      -2.12046202       3.67274795        3      -0.00000000       0.00000000      -0.00000000
In      -1.30297533       4.10203572       3.43218633        4      -0.00310799       0.00219768       0.00380649
In       4.69459696      -2.90291639       5.50912193        5      -0.00310799      -0.00439536      -0.00000000
In      -1.30297533       1.33800765       5.50912193        6      -0.00310799      -0.00439536      -0.00000000
In      -1.69581082       7.14384044       1.83637397        7       0.00310799       0.00439536      -0.00000000
In       4.30176148       0.13888832       3.91330957        8       0.00310799      -0.00219768      -0.00380649
In      -1.49939308       4.24092404      -0.00000000        9       0.00000000      -0.00000000       0.00000000
In       4.30176148       6.50027438       0.24056162       10       0.00310799      -0.00219768      -0.00380649
In      -1.30297533      -2.25935033       7.10493428       11      -0.00310799       0.00219768       0.00380649
In       4.30176148       2.90291640       1.83637397       12       0.00310799       0.00439536       0.00000000
In       1.69581081       5.16226674       2.07693560       13      -0.00310799       0.00219768      -0.00380649
In       4.49817922       0.00000000      -0.00000000       14      -0.00000000      -0.00000000       0.00000000
In       1.49939307       2.12046202       3.67274795       15      -0.00000000      -0.00000000       0.00000000
O        0.84737546       4.23785570       4.00422146       16       0.00404364      -0.00464452      -0.00104370
O       -2.15141069       3.46929169       5.34604244       17       0.00404364       0.00141839       0.00454413
O       -0.44793634       2.26475342       0.08686800       18      -0.00169375       0.00547534      -0.00248271
O       -0.84737546      -0.77470070       2.00476800       19      -0.00404364      -0.00322613       0.00350042
O        3.98801646       5.06577801       1.91789999       20      -0.00001061       0.00179274       0.00598314
O        2.00955583       2.99240091       1.67329448       21       0.00001061      -0.00428518       0.00454413
O        2.00955583       6.31430114       0.24460550       22       0.00001061       0.00607792       0.00143901
O       -2.28454212       6.02878669       3.75961595       23      -0.00572678      -0.00022823      -0.00248271
O        3.44672249       1.97617062       7.25862790       24       0.00169375      -0.00547534       0.00248271
O        5.28332826      -1.78786264       3.58587995       25       0.00572678       0.00022823       0.00248271
O        6.44550863       3.32806863       1.75484796       26       0.00169375       0.00058758      -0.00598314
O        3.71303018       2.36199161       3.91735346       27      -0.00572678      -0.00203598       0.00143901
O        0.71424403       4.33199383       7.01402240       28      -0.00572678       0.00226421       0.00104370
O        2.28454211      -0.09106979       0.33147351       29       0.00572678      -0.00226421      -0.00104370
O       -3.44672249       0.91285541       5.59064795       30      -0.00169375      -0.00058758       0.00598314
O        5.15019683       0.77163236       1.99945347       31      -0.00404364      -0.00141839      -0.00454413
O        0.98923031       1.24852314       5.67220142       32      -0.00001061       0.00428518      -0.00454413
O        3.44672249      -1.06331521       5.67751595       33       0.00169375       0.00488776       0.00350042
O        2.15141069       0.00306835       3.34127444       34      -0.00404364       0.00464452       0.00104370
O        0.98923031      -2.07337710       7.10089040       35      -0.00001061      -0.00607792      -0.00143901
O       -0.71424403       1.87893244       3.42814244       36       0.00572678       0.00203598      -0.00143901
O       -0.98923032      -0.82485396       5.42759591       37       0.00001061      -0.00179274      -0.00598314
O       -0.44793634       5.30423925       1.66797995       38      -0.00169375      -0.00488776      -0.00350042
O        3.84616161       5.01562474       5.34072791       39       0.00404364       0.00322613      -0.00350042
