40
Lattice="8.847630983433422 6.934513544157188e-10 3.311386227434862e-15 -2.9492103284649356 8.341626487531487 -1.2010967583093278e-09 -2.9492103274842516 -4.170813243072289 7.224060447884158" Properties=species:S:1:pos:R:3:spacegroup_kinds:I:1:forces:R:3 spacegroup="P 1" unit_cell=conventional occupancy="_JSON {\"0\": {\"In\": 1}, \"1\": {\"In\": 1}, \"2\": {\"In\": 1}, \"3\": {\"In\": 1}, \"4\": {\"In\": 1}, \"5\": {\"In\": 1}, \"6\": {\"In\": 1}, \"7\": {\"In\": 1}, \"8\": {\"In\": 1}, \"9\": {\"In\": 1}, \"10\": {\"In\": 1}, \"11\": {\"In\": 1}, \"12\": {\"In\": 1}, \"13\": {\"In\": 1}, \"14\": {\"In\": 1}, \"15\": {\"In\": 1}, \"16\": {\"O\": 1}, \"17\": {\"O\": 1}, \"18\": {\"O\": 1}, \"19\": {\"O\": 1}, \"20\": {\"O\": 1}, \"21\": {\"O\": 1}, \"22\": {\"O\": 1}, \"23\": {\"O\": 1}, \"24\": {\"O\": 1}, \"25\": {\"O\": 1}, \"26\": {\"O\": 1}, \"27\": {\"O\": 1}, \"28\": {\"O\": 1}, \"29\": {\"O\": 1}, \"30\": {\"O\": 1}, \"31\": {\"O\": 1}, \"32\": {\"O\": 1}, \"33\": {\"O\": 1}, \"34\": {\"O\": 1}, \"35\": {\"O\": 1}, \"36\": {\"O\": 1}, \"37\": {\"O\": 1}, \"38\": {\"O\": 1}, \"39\": {\"O\": 1}}" n_minim_iter=7 energy=-45151.14124129177 stress="-0.006807708969388535 -1.4265969203722767e-13 1.9094838002383325e-12 -1.4265969203722767e-13 -0.006807708967645842 2.1280218921904498e-13 1.9094838002383325e-12 2.1280218921904498e-13 -0.006807708970057199" free_energy=-45151.14124129177 pbc="T T T"
In      -4.22423916       2.98698816       5.66247542        0       0.00187399      -0.00132511       0.00229516
In       7.17344949       1.18382509       1.56158502        1      -0.00187399       0.00132511      -0.00229516
In       1.27502883      -0.90158153       5.17361524        2      -0.00187399       0.00132511      -0.00229516
In      -1.47460517      -2.08540662       3.61203022        3       0.00000000      -0.00000000       0.00000000
In      -1.27502883       4.02969147       3.36760013        4       0.00187399      -0.00132511      -0.00229516
In       4.62339182      -2.84586637       5.41804533        5       0.00187399       0.00265022      -0.00000000
In      -1.27502883       1.32494687       5.41804533        6       0.00187399       0.00265022       0.00000000
In      -1.67418150       7.01667962       1.80601511        7      -0.00187399      -0.00265022       0.00000000
In       4.22423916       0.14112178       3.85646031        8      -0.00187399       0.00132511       0.00229516
In      -1.47460517       4.17081325      -0.00000000        9      -0.00000000       0.00000000       0.00000000
In       4.22423916       6.39734165       0.24443009       10      -0.00187399       0.00132511       0.00229516
In      -1.27502883      -2.22652840       6.97963036       11       0.00187399      -0.00132511      -0.00229516
In       4.22423916       2.84586638       1.80601511       12      -0.00187399      -0.00265022       0.00000000
In       1.67418149       5.07239478       2.05044520       13       0.00187399      -0.00132511       0.00229516
In       4.42381549       0.00000000      -0.00000000       14      -0.00000000      -0.00000000       0.00000000
In       1.47460516       2.08540662       3.61203022       15       0.00000000      -0.00000000       0.00000000
O        0.88444435       4.17257104       3.92487539       16       0.00150734       0.00464290      -0.00304774
O       -2.06476598       3.39816290       5.26010046       17       0.00150734      -0.00496087      -0.00249700
O       -0.43198968       2.24361572       0.03577440       18       0.00020266      -0.00403832      -0.00409490
O       -0.88444435      -0.77089255       1.96091540       19      -0.00150734      -0.00031797      -0.00554474
O        3.89207403       4.96236016       1.92514100       20      -0.00517960      -0.00204622      -0.00144984
O        2.00634662       2.89936569       1.64807023       21       0.00517960       0.00023249      -0.00249700
O        2.00634662       6.23380772       0.27707077       22       0.00517960      -0.00227871       0.00104716
O       -2.25929774       5.91563174       3.64780462       23       0.00387492       0.00115504      -0.00409490
O        3.38120001       1.92719753       7.18828604       24      -0.00020266       0.00403832       0.00409490
O        5.20850807      -1.74481849       3.57625582       25      -0.00387492      -0.00115504       0.00409490
O        6.33041034       3.23819602       1.68688922       26      -0.00020266      -0.00556545       0.00144984
O        3.63912291       2.28668223       3.88910099       27       0.00387492      -0.00412380       0.00104716
O        0.68991258       4.31012577       6.91121527       28       0.00387492       0.00296877       0.00304774
O        2.25929774      -0.13931252       0.31284517       29      -0.00387492      -0.00296877      -0.00304774
O       -3.38120001       0.93261723       5.53717123       30       0.00020266       0.00556545      -0.00144984
O        5.01397630       0.77265034       1.96395999       31      -0.00150734       0.00496087       0.00249700
O        0.94286370       1.27144756       5.57599021       32      -0.00517960      -0.00023249       0.00249700
O        3.38120001      -0.99458030       5.57294563       33      -0.00020266       0.00152712      -0.00554474
O        2.06476597      -0.00175779       3.29918505       34      -0.00150734      -0.00464290       0.00304774
O        0.94286370      -2.06299447       6.94698968       35      -0.00517960       0.00227871      -0.00104716
O       -0.68991259       1.88413102       3.33495945       36      -0.00387492       0.00412380      -0.00104716
O       -0.94286371      -0.79154691       5.29891944       37       0.00517960       0.00204622       0.00144984
O       -0.43198968       5.16539355       1.65111482       38       0.00020266      -0.00152712       0.00554474
O        3.83365468       4.94170580       5.26314504       39       0.00150734       0.00031797       0.00554474
