40
Lattice="8.53417373738463 6.68883124347324e-10 2.0616776239225835e-14 -2.8447245797588407 8.04609616181546 -1.158558447023018e-09 -2.844724578812912 -4.023048080238834 6.968123678197016" Properties=species:S:1:pos:R:3:spacegroup_kinds:I:1:forces:R:3 spacegroup="P 1" unit_cell=conventional occupancy="_JSON {\"0\": {\"In\": 1}, \"1\": {\"In\": 1}, \"2\": {\"In\": 1}, \"3\": {\"In\": 1}, \"4\": {\"In\": 1}, \"5\": {\"In\": 1}, \"6\": {\"In\": 1}, \"7\": {\"In\": 1}, \"8\": {\"In\": 1}, \"9\": {\"In\": 1}, \"10\": {\"In\": 1}, \"11\": {\"In\": 1}, \"12\": {\"In\": 1}, \"13\": {\"In\": 1}, \"14\": {\"In\": 1}, \"15\": {\"In\": 1}, \"16\": {\"O\": 1}, \"17\": {\"O\": 1}, \"18\": {\"O\": 1}, \"19\": {\"O\": 1}, \"20\": {\"O\": 1}, \"21\": {\"O\": 1}, \"22\": {\"O\": 1}, \"23\": {\"O\": 1}, \"24\": {\"O\": 1}, \"25\": {\"O\": 1}, \"26\": {\"O\": 1}, \"27\": {\"O\": 1}, \"28\": {\"O\": 1}, \"29\": {\"O\": 1}, \"30\": {\"O\": 1}, \"31\": {\"O\": 1}, \"32\": {\"O\": 1}, \"33\": {\"O\": 1}, \"34\": {\"O\": 1}, \"35\": {\"O\": 1}, \"36\": {\"O\": 1}, \"37\": {\"O\": 1}, \"38\": {\"O\": 1}, \"39\": {\"O\": 1}}" n_minim_iter=6 energy=-45151.14026562778 stress="0.016716060083074687 -3.037523049471638e-14 -4.1569760577099267e-13 -3.037523049471638e-14 0.01671606008103237 1.8170241807109154e-13 -4.1569760577099267e-13 1.8170241807109154e-13 0.01671606008375616" free_energy=-45151.14026562778 pbc="T T T"
In      -4.05567457       2.86779499       5.48501889        0       0.00073343      -0.00051861       0.00089826
In       6.90039914       1.15525310       1.48310478        1      -0.00073343       0.00051861      -0.00089826
In       1.21094998      -0.85627094       4.96716662        2      -0.00073343       0.00051861      -0.00089826
In      -1.42236229      -2.01152404       3.48406184        3      -0.00000000       0.00000000      -0.00000000
In      -1.21094999       3.87355701       3.22513570        4       0.00073343      -0.00051861      -0.00089826
In       4.47849917      -2.71830391       5.22609276        5       0.00073343       0.00103723       0.00000000
In      -1.21094999       1.30474417       5.22609276        6       0.00073343       0.00103723      -0.00000000
In      -1.63377459       6.74135200       1.74203092        7      -0.00073343      -0.00103723       0.00000000
In       4.05567456       0.14949108       3.74298797        8      -0.00073343       0.00051861       0.00089826
In      -1.42236229       4.02304808      -0.00000000        9      -0.00000000      -0.00000000      -0.00000000
In       4.05567456       6.18406320       0.25892613       10      -0.00073343       0.00051861       0.00089826
In      -1.21094999      -2.16101511       6.70919754       11       0.00073343      -0.00051861      -0.00089826
In       4.05567456       2.71830392       1.74203092       12      -0.00073343      -0.00103723       0.00000000
In       1.63377459       4.87931903       2.00095705       13       0.00073343      -0.00051861       0.00089826
In       4.26708687       0.00000000      -0.00000000       14      -0.00000000       0.00000000       0.00000000
In       1.42236229       2.01152404       3.48406184       15       0.00000000      -0.00000000       0.00000000
O        0.92678012       4.03312918       3.78005327       16      -0.00071170       0.00162684       0.00004452
O       -1.91794446       3.26858162       5.06936656       17      -0.00071170      -0.00077487      -0.00143115
O       -0.39288655       2.19020283      -0.03095028       18       0.00056602      -0.00167835       0.00013373
O       -0.92678012      -0.74438537       1.88129615       19       0.00071170       0.00085198      -0.00138663
O        3.72096312       4.74956431       1.91224642       20      -0.00049332      -0.00077477      -0.00152036
O        1.96848604       2.73025221       1.58530472       21       0.00049332       0.00092929      -0.00143115
O        1.96848604       6.04236018       0.32694170       22       0.00049332      -0.00170405      -0.00008921
O       -2.19590522       5.67492151       3.45311156       23       0.00177104       0.00002580       0.00013373
O        3.23761113       1.83284526       6.99907395       24      -0.00056602       0.00167835      -0.00013373
O        5.04062979      -1.65187342       3.51501211       25      -0.00177104      -0.00002580      -0.00013373
O        6.08233571       3.07982173       1.57181541       26      -0.00056602      -0.00072336       0.00152036
O        3.49354394       2.16454563       3.81100354       27       0.00177104       0.00010291      -0.00008921
O        0.64881936       4.22967711       6.67213224       28       0.00177104      -0.00012872      -0.00004452
O        2.19590521      -0.20662903       0.29599143       29      -0.00177104       0.00012872       0.00004452
O       -3.23761113       0.94322635       5.39630826       30       0.00056602       0.00072336      -0.00152036
O        4.76266903       0.75446647       1.89875712       31       0.00071170       0.00077486       0.00143115
O        0.87623854       1.29279587       5.38281896       32      -0.00049332      -0.00092929       0.00143115
O        3.23761113      -0.88961890       5.36535799       33      -0.00056602      -0.00095499      -0.00138663
O        1.91794445      -0.01008109       3.18807040       34       0.00071170      -0.00162684      -0.00004452
O        0.87623854      -2.01931209       6.64118197       35      -0.00049332       0.00170405       0.00008921
O       -0.64881937       1.85850246       3.15712013       36      -0.00177104      -0.00010291       0.00008921
O       -0.87623854      -0.72651622       5.05587725       37       0.00049332       0.00077477       0.00152036
O       -0.39288655       4.91266699       1.60276568       38       0.00056602       0.00095499       0.00138663
O        3.77150470       4.76743346       5.08682752       39      -0.00071170      -0.00085198       0.00138663
