40
Lattice="9.27989302182879 7.273273650783802e-10 2.1508107337260332e-15 -3.0932976746286647 8.749167045652031 -1.2597862632094539e-09 -3.093297673600069 -4.374583522098673 7.577000924328166" Properties=species:S:1:pos:R:3:spacegroup_kinds:I:1:forces:R:3 spacegroup="P 1" unit_cell=conventional occupancy="_JSON {\"0\": {\"In\": 1}, \"1\": {\"In\": 1}, \"2\": {\"In\": 1}, \"3\": {\"In\": 1}, \"4\": {\"In\": 1}, \"5\": {\"In\": 1}, \"6\": {\"In\": 1}, \"7\": {\"In\": 1}, \"8\": {\"In\": 1}, \"9\": {\"In\": 1}, \"10\": {\"In\": 1}, \"11\": {\"In\": 1}, \"12\": {\"In\": 1}, \"13\": {\"In\": 1}, \"14\": {\"In\": 1}, \"15\": {\"In\": 1}, \"16\": {\"O\": 1}, \"17\": {\"O\": 1}, \"18\": {\"O\": 1}, \"19\": {\"O\": 1}, \"20\": {\"O\": 1}, \"21\": {\"O\": 1}, \"22\": {\"O\": 1}, \"23\": {\"O\": 1}, \"24\": {\"O\": 1}, \"25\": {\"O\": 1}, \"26\": {\"O\": 1}, \"27\": {\"O\": 1}, \"28\": {\"O\": 1}, \"29\": {\"O\": 1}, \"30\": {\"O\": 1}, \"31\": {\"O\": 1}, \"32\": {\"O\": 1}, \"33\": {\"O\": 1}, \"34\": {\"O\": 1}, \"35\": {\"O\": 1}, \"36\": {\"O\": 1}, \"37\": {\"O\": 1}, \"38\": {\"O\": 1}, \"39\": {\"O\": 1}}" n_minim_iter=7 energy=-45150.01620844405 stress="0.04173896849238899 -8.298007042022841e-13 -1.3421236275078674e-12 -8.298007042022841e-13 0.04173896849084425 -5.545491284716827e-13 -1.3421236275078674e-12 -5.545491284716827e-13 0.04173896849016981" free_energy=-45150.01620844405 pbc="T T T"
In      -4.42069847       3.12590587       5.95127361        0      -0.00063753       0.00045080      -0.00078081
In       7.51399614       1.24867766       1.62572731        1       0.00063753      -0.00045080       0.00078081
In       1.32740079      -0.93861410       5.41422777        2       0.00063753      -0.00045080       0.00078081
In      -1.54664884      -2.18729176       3.78850046        3       0.00000000      -0.00000000      -0.00000000
In      -1.32740079       4.21955175       3.51997754        4      -0.00063753       0.00045080       0.00078081
In       4.85919455      -2.97087408       5.68275069        5      -0.00063753      -0.00090161      -0.00000000
In      -1.32740079       1.40370944       5.68275069        6      -0.00063753      -0.00090161      -0.00000000
In      -1.76589688       7.34545761       1.89425023        7       0.00063753       0.00090161       0.00000000
In       4.42069846       0.15503178       4.05702338        8       0.00063753      -0.00045080      -0.00078081
In      -1.54664884       4.37458352      -0.00000000        9      -0.00000000       0.00000000      -0.00000000
In       4.42069846       6.71690707       0.26852291       10       0.00063753      -0.00045080      -0.00078081
In      -1.32740079      -2.34232354       7.30847800       11      -0.00063753       0.00045080       0.00078081
In       4.42069846       2.97087409       1.89425023       12       0.00063753       0.00090161      -0.00000000
In       1.76589688       5.31319763       2.16277315       13      -0.00063753       0.00045080      -0.00078081
In       4.63994651       0.00000000      -0.00000000       14       0.00000000      -0.00000000      -0.00000000
In       1.54664884       2.18729176       3.78850046       15       0.00000000      -0.00000000      -0.00000000
O        0.84384959       4.36601618       4.14019252       16       0.00164269       0.00375771      -0.00407675
O       -2.24944808       3.58979557       5.51432420       17       0.00164269      -0.00540942      -0.00121589
O       -0.46669935       2.32920185       0.12073564       18      -0.00100969      -0.00353391      -0.00446439
O       -0.84384959      -0.79335529       2.07751580       19      -0.00164269      -0.00165172      -0.00529265
O        4.13430775       5.23764558       1.95678015       20      -0.00564762      -0.00092580      -0.00082826
O        2.05228760       3.11149323       1.72582374       21       0.00564762       0.00025439      -0.00121589
O        2.05228760       6.50073587       0.23095641       22       0.00564762      -0.00118019       0.00038763
O       -2.35155902       6.22548303       3.90923610       23       0.00299523       0.00212991      -0.00446439
O        3.55999702       2.04538167       7.45626528       24       0.00100969       0.00353391       0.00446439
O        5.44485669      -1.85089951       3.66776481       25      -0.00299523      -0.00212991       0.00446439
O        6.65329469       3.45645283       1.83172031       26       0.00100969      -0.00563323       0.00082826
O        3.83503633       2.46004803       4.01945687       27       0.00299523      -0.00493123       0.00038763
O        0.74173866       4.43821952       7.22530886       28       0.00299523       0.00280132       0.00407675
O        2.35155901      -0.06363599       0.35169206       29      -0.00299523      -0.00280132      -0.00407675
O       -3.55999702       0.91813070       5.74528061       30      -0.00100969       0.00563323      -0.00082826
O        5.34274575       0.78478795       2.06267672       31      -0.00164269       0.00540942       0.00121589
O        1.04101007       1.26309030       5.85117718       32      -0.00564762      -0.00025439       0.00121589
O        3.55999702      -1.12725097       5.86601626       33       0.00100969       0.00209932      -0.00529265
O        2.24944808       0.00856735       3.43680840       34      -0.00164269      -0.00375771       0.00407675
O        1.04101007      -2.12615235       7.34604451       35      -0.00564762       0.00118019      -0.00038763
O       -0.74173866       1.91453550       3.55754404       36      -0.00299523       0.00493123      -0.00038763
O       -1.04101008      -0.86306205       5.62022077       37       0.00564762       0.00092580       0.00082826
O       -0.46669935       5.50183450       1.71098466       38      -0.00100969      -0.00209932       0.00529265
O        3.93714726       5.16793882       5.49948512       39       0.00164269       0.00165172       0.00529265
