40
Lattice="9.279893021828807 7.273270273594713e-10 7.260323026314663e-15 -3.0932976746286656 8.749167045652051 -1.2597901287586164e-09 -3.0932976736000777 -4.37458352209868 7.577000924328176" Properties=species:S:1:pos:R:3:spacegroup_kinds:I:1:forces:R:3 spacegroup="P 1" unit_cell=conventional occupancy="_JSON {\"0\": {\"In\": 1}, \"1\": {\"In\": 1}, \"2\": {\"In\": 1}, \"3\": {\"In\": 1}, \"4\": {\"In\": 1}, \"5\": {\"In\": 1}, \"6\": {\"In\": 1}, \"7\": {\"In\": 1}, \"8\": {\"In\": 1}, \"9\": {\"In\": 1}, \"10\": {\"In\": 1}, \"11\": {\"In\": 1}, \"12\": {\"In\": 1}, \"13\": {\"In\": 1}, \"14\": {\"In\": 1}, \"15\": {\"In\": 1}, \"16\": {\"O\": 1}, \"17\": {\"O\": 1}, \"18\": {\"O\": 1}, \"19\": {\"O\": 1}, \"20\": {\"O\": 1}, \"21\": {\"O\": 1}, \"22\": {\"O\": 1}, \"23\": {\"O\": 1}, \"24\": {\"O\": 1}, \"25\": {\"O\": 1}, \"26\": {\"O\": 1}, \"27\": {\"O\": 1}, \"28\": {\"O\": 1}, \"29\": {\"O\": 1}, \"30\": {\"O\": 1}, \"31\": {\"O\": 1}, \"32\": {\"O\": 1}, \"33\": {\"O\": 1}, \"34\": {\"O\": 1}, \"35\": {\"O\": 1}, \"36\": {\"O\": 1}, \"37\": {\"O\": 1}, \"38\": {\"O\": 1}, \"39\": {\"O\": 1}}" n_minim_iter=7 energy=-45149.41350008845 stress="0.0449986660650989 -4.2749682063125027e-13 1.6143147585435684e-12 -4.2749682063125027e-13 0.044998666065658784 -2.0457813612479997e-12 1.6143147585435684e-12 -2.0457813612479997e-12 0.04499866606584214" free_energy=-45149.41350008845 pbc="T T T"
In      -4.40765433       3.11668226       5.96724935        0      -0.00143808       0.00101688      -0.00176129
In       7.50095200       1.25790126       1.60975157        1       0.00143808      -0.00101688       0.00176129
In       1.31435665      -0.92939050       5.39825203        2       0.00143808      -0.00101688       0.00176129
In      -1.54664884      -2.18729176       3.78850046        3      -0.00000000       0.00000000       0.00000000
In      -1.31435665       4.21032815       3.50400180        4      -0.00143808       0.00101688       0.00176129
In       4.87223869      -2.95242688       5.68275069        5      -0.00143808      -0.00203376       0.00000000
In      -1.31435665       1.42215664       5.68275069        6      -0.00143808      -0.00203376       0.00000000
In      -1.77894102       7.32701041       1.89425023        7       0.00143808       0.00203376      -0.00000000
In       4.40765432       0.16425538       4.07299912        8       0.00143808      -0.00101688      -0.00176129
In      -1.54664884       4.37458352      -0.00000000        9      -0.00000000       0.00000000       0.00000000
In       4.40765432       6.72613067       0.28449866       10       0.00143808      -0.00101688      -0.00176129
In      -1.31435665      -2.35154714       7.29250226       11      -0.00143808       0.00101688       0.00176129
In       4.40765432       2.95242689       1.89425023       12       0.00143808       0.00203376       0.00000000
In       1.77894102       5.30397403       2.17874889       13      -0.00143808       0.00101688      -0.00176129
In       4.63994651       0.00000000      -0.00000000       14       0.00000000       0.00000000      -0.00000000
In       1.54664884       2.18729176       3.78850046       15      -0.00000000      -0.00000000      -0.00000000
O        0.85522077       4.36489179       4.13022793       16       0.00205624       0.00038730      -0.00034368
O       -2.23807690       3.58172818       5.52028024       17       0.00205624      -0.00049129      -0.00016357
O       -0.47157505       2.33262275       0.10679340       18       0.00058738       0.00054736      -0.00196256
O       -0.85522078      -0.80254707       2.07350725       19      -0.00205624      -0.00010399      -0.00050726
O        4.12291134       5.23878780       1.96671385       20      -0.00114861      -0.00102910       0.00145530
O        2.06368400       3.10346150       1.73177978       21       0.00114861      -0.00177488      -0.00016357
O        2.06368400       6.50990982       0.23493407       22       0.00114861       0.00074578       0.00161888
O       -2.35640950       6.22893959       3.89529386       23      -0.00032026      -0.00073623      -0.00196256
O        3.56487272       2.04196078       7.47020752       24      -0.00058738      -0.00054736       0.00196256
O        5.44970717      -1.85435606       3.68170706       25       0.00032026       0.00073623       0.00196256
O        6.65817039       3.44608893       1.82178661       26      -0.00058738      -0.00142595      -0.00145530
O        3.83018585       2.44624541       4.02343453       27      -0.00032026      -0.00133151       0.00161888
O        0.73688818       4.44856557       7.23527345       28      -0.00032026       0.00206775       0.00034368
O        2.35640949      -0.07398205       0.34172747       29       0.00032026      -0.00206775      -0.00034368
O       -3.56487272       0.92849459       5.75521431       30       0.00058738       0.00142595       0.00145530
O        5.33137457       0.79285534       2.05672068       31      -0.00205624       0.00049129       0.00016357
O        1.02961367       1.27112202       5.84522114       32      -0.00114861       0.00177488       0.00016357
O        3.56487272      -1.11346619       5.86200771       33      -0.00058738       0.00197331      -0.00050726
O        2.23807690       0.00969174       3.44677299       34      -0.00205624      -0.00038730       0.00034368
O        1.02961367      -2.13532629       7.34206685       35      -0.00114861      -0.00074578      -0.00161888
O       -0.73688818       1.92833812       3.55356639       36       0.00032026       0.00133151      -0.00161888
O       -1.02961367      -0.86420427       5.61028707       37       0.00114861       0.00102910      -0.00145530
O       -0.47157505       5.48804971       1.71499320       38       0.00058738      -0.00197331       0.00050726
O        3.94851845       5.17713060       5.50349367       39       0.00205624       0.00010399       0.00050726
