40
Lattice="9.611595083066934 7.533216048891343e-10 2.2706093966112828e-14 -3.2038650283992163 9.0618987480901 -1.3048342601037376e-09 -3.2038650273338773 -4.530949373291697 7.847834523238299" Properties=species:S:1:pos:R:3:spacegroup_kinds:I:1:forces:R:3 spacegroup="P 1" unit_cell=conventional occupancy="_JSON {\"0\": {\"In\": 1}, \"1\": {\"In\": 1}, \"2\": {\"In\": 1}, \"3\": {\"In\": 1}, \"4\": {\"In\": 1}, \"5\": {\"In\": 1}, \"6\": {\"In\": 1}, \"7\": {\"In\": 1}, \"8\": {\"In\": 1}, \"9\": {\"In\": 1}, \"10\": {\"In\": 1}, \"11\": {\"In\": 1}, \"12\": {\"In\": 1}, \"13\": {\"In\": 1}, \"14\": {\"In\": 1}, \"15\": {\"In\": 1}, \"16\": {\"O\": 1}, \"17\": {\"O\": 1}, \"18\": {\"O\": 1}, \"19\": {\"O\": 1}, \"20\": {\"O\": 1}, \"21\": {\"O\": 1}, \"22\": {\"O\": 1}, \"23\": {\"O\": 1}, \"24\": {\"O\": 1}, \"25\": {\"O\": 1}, \"26\": {\"O\": 1}, \"27\": {\"O\": 1}, \"28\": {\"O\": 1}, \"29\": {\"O\": 1}, \"30\": {\"O\": 1}, \"31\": {\"O\": 1}, \"32\": {\"O\": 1}, \"33\": {\"O\": 1}, \"34\": {\"O\": 1}, \"35\": {\"O\": 1}, \"36\": {\"O\": 1}, \"37\": {\"O\": 1}, \"38\": {\"O\": 1}, \"39\": {\"O\": 1}}" n_minim_iter=1 energy=-45148.02345508207 stress="0.00022467645300633396 -8.211481495292829e-13 7.300469296753161e-13 -8.211481495292829e-13 0.00022467645531552155 2.515908808378734e-13 7.300469296753161e-13 2.515908808378734e-13 0.0002246764539203638" free_energy=-45148.02345508207 pbc="T T T"
In      -4.55176439       3.21858347       6.19700169        0      -0.05401766       0.03819626      -0.06615786
In       7.75562941       1.31236591       1.65083283        1       0.05401766      -0.03819626       0.06615786
In       1.34789936      -0.95310878       5.57475009        2       0.05401766      -0.03819626       0.06615786
In      -1.60193252      -2.26547469       3.92391726        3      -0.00000000       0.00000000      -0.00000000
In      -1.34789936       4.35132081       3.61279146        4      -0.05401766       0.03819626       0.06615786
In       5.05983069      -3.03895490       5.88587589        5      -0.05401766      -0.07639251       0.00000000
In      -1.34789936       1.49199448       5.88587589        6      -0.05401766      -0.07639251      -0.00000000
In      -1.85596567       7.56990428       1.96195863        7       0.05401766       0.07639251      -0.00000000
In       4.55176439       0.17962857       4.23504306        8       0.05401766      -0.03819626      -0.06615786
In      -1.60193252       4.53094938      -0.00000000        9      -0.00000000       0.00000000      -0.00000000
In       4.55176439       6.97605263       0.31112580       10       0.05401766      -0.03819626      -0.06615786
In      -1.34789936      -2.44510325       7.53670872       11      -0.05401766       0.03819626       0.06615786
In       4.55176439       3.03895490       1.96195863       12       0.05401766       0.07639251      -0.00000000
In       1.85596566       5.48405815       2.27308443       13      -0.05401766       0.03819626      -0.06615786
In       4.80579754       0.00000000      -0.00000000       14       0.00000000      -0.00000000       0.00000000
In       1.60193251       2.26547469       3.92391726       15       0.00000000       0.00000000       0.00000000
O        1.10299227       4.53463950       4.20893138       16       0.07245665       0.07294873      -0.12300907
O       -2.10087276       3.64319644       5.74017309       17       0.07245665      -0.14300334      -0.00167092
O       -0.46583833       2.48705250      -0.10516140       18      -0.04189591      -0.06214387      -0.14172362
O       -1.10299227      -0.88406281       2.10126995       19      -0.07245665      -0.07005461      -0.12467998
O        4.13512946       5.35429723       2.20643134       20      -0.15897706      -0.01176956       0.01704364
O        2.27260059       3.03179771       1.81625583       21       0.15897706      -0.02064500      -0.00167092
O        2.27260059       6.85344890       0.39017551       22       0.15897706       0.00887544       0.01871456
O       -2.50009503       6.40660315       3.81875586       23       0.04462450       0.06021446      -0.14172362
O        3.66970335       2.04389687       7.95299592       24       0.04189591       0.06214387       0.14172362
O        5.70396005      -1.87565377       4.02907865       25      -0.04462450      -0.06021446       0.14172362
O        6.87356838       3.41792850       1.71748591       26       0.04189591      -0.15380819      -0.01704364
O        3.90763503       2.36931271       4.31409277       27       0.04462450      -0.15284349       0.01871456
O        0.70377000       4.81693228       7.56282040       28       0.04462450       0.09262902       0.12300907
O        2.50009503      -0.28598290       0.28501412       29      -0.04462450      -0.09262902      -0.12300907
O       -3.66970335       1.11302088       6.13034860       30      -0.04189591       0.15380819       0.01704364
O        5.30473778       0.88775294       2.10766143       31      -0.07245665       0.14300334       0.00167092
O        0.93126443       1.49915167       6.03157869       32      -0.15897706       0.02064500       0.00167092
O        3.66970335      -0.93087599       6.02518721       33       0.04189591       0.09166432      -0.12467998
O        2.10087275      -0.00369012       3.63890314       34      -0.07245665      -0.07294873       0.12300907
O        0.93126443      -2.32249952       7.45765901       35      -0.15897706      -0.00887544      -0.01871456
O       -0.70377000       2.16163667       3.53374174       36      -0.04462450       0.15284349      -0.01871456
O       -0.93126443      -0.82334785       5.64140317       37       0.15897706       0.01176956      -0.01704364
O       -0.46583833       5.46182537       1.82264731       38      -0.04189591      -0.09166432       0.12467998
O        4.30685730       5.41501219       5.74656457       39       0.07245665       0.07005461       0.12467998
40
Lattice="9.611595083066934 7.533216048891343e-10 2.2706093966112828e-14 -3.2038650283992163 9.0618987480901 -1.3048342601037376e-09 -3.2038650273338773 -4.530949373291697 7.847834523238299" Properties=species:S:1:pos:R:3:spacegroup_kinds:I:1:forces:R:3 spacegroup="P 1" unit_cell=conventional occupancy="_JSON {\"0\": {\"In\": 1}, \"1\": {\"In\": 1}, \"2\": {\"In\": 1}, \"3\": {\"In\": 1}, \"4\": {\"In\": 1}, \"5\": {\"In\": 1}, \"6\": {\"In\": 1}, \"7\": {\"In\": 1}, \"8\": {\"In\": 1}, \"9\": {\"In\": 1}, \"10\": {\"In\": 1}, \"11\": {\"In\": 1}, \"12\": {\"In\": 1}, \"13\": {\"In\": 1}, \"14\": {\"In\": 1}, \"15\": {\"In\": 1}, \"16\": {\"O\": 1}, \"17\": {\"O\": 1}, \"18\": {\"O\": 1}, \"19\": {\"O\": 1}, \"20\": {\"O\": 1}, \"21\": {\"O\": 1}, \"22\": {\"O\": 1}, \"23\": {\"O\": 1}, \"24\": {\"O\": 1}, \"25\": {\"O\": 1}, \"26\": {\"O\": 1}, \"27\": {\"O\": 1}, \"28\": {\"O\": 1}, \"29\": {\"O\": 1}, \"30\": {\"O\": 1}, \"31\": {\"O\": 1}, \"32\": {\"O\": 1}, \"33\": {\"O\": 1}, \"34\": {\"O\": 1}, \"35\": {\"O\": 1}, \"36\": {\"O\": 1}, \"37\": {\"O\": 1}, \"38\": {\"O\": 1}, \"39\": {\"O\": 1}}" n_minim_iter=2 energy=-45148.06033231621 stress="-0.003757180383459637 1.4934878892102227e-13 4.76870400897247e-13 1.4934878892102227e-13 -0.003757180382605605 -7.855947148691903e-13 4.76870400897247e-13 -7.855947148691903e-13 -0.003757180381810046" free_energy=-45148.06033231621 pbc="T T T"
In      -4.55562280       3.22131177       6.19227613        0      -0.05315742       0.03758797      -0.06510428
In       7.75948782       1.30963761       1.65555839        1       0.05315742      -0.03758797       0.06510428
In       1.35175776      -0.95583708       5.57947565        2       0.05315742      -0.03758797       0.06510428
In      -1.60193252      -2.26547469       3.92391726        3      -0.00000000      -0.00000000       0.00000000
In      -1.35175777       4.35404912       3.61751702        4      -0.05315742       0.03758797       0.06510428
In       5.05597229      -3.04441151       5.88587589        5      -0.05315742      -0.07517594       0.00000000
In      -1.35175777       1.48653787       5.88587589        6      -0.05315742      -0.07517594       0.00000000
In      -1.85210726       7.57536088       1.96195863        7       0.05315742       0.07517594      -0.00000000
In       4.55562279       0.17690026       4.23031750        8       0.05315742      -0.03758797      -0.06510428
In      -1.60193252       4.53094938      -0.00000000        9      -0.00000000       0.00000000       0.00000000
In       4.55562279       6.97332432       0.30640024       10       0.05315742      -0.03758797      -0.06510428
In      -1.35175777      -2.44237495       7.54143428       11      -0.05315742       0.03758797       0.06510428
In       4.55562279       3.04441151       1.96195863       12       0.05315742       0.07517594      -0.00000000
In       1.85210726       5.48678646       2.26835887       13      -0.05315742       0.03758797      -0.06510428
In       4.80579754       0.00000000      -0.00000000       14      -0.00000000      -0.00000000       0.00000000
In       1.60193251       2.26547469       3.92391726       15      -0.00000000      -0.00000000      -0.00000000
O        1.10816774       4.53985012       4.20014502       16       0.07348492       0.01309062      -0.01859273
O       -2.09569728       3.63298192       5.74005374       17       0.07348492      -0.02264709      -0.00204045
O       -0.46883089       2.48261366      -0.11528451       18       0.01548505       0.01836501      -0.07307549
O       -1.10816775      -0.88906671       2.09236423       19      -0.07348492      -0.00955646      -0.02063318
O        4.12377395       5.35345655       2.20764875       20      -0.04584685      -0.03263369       0.05244231
O        2.28395610       3.03032306       1.81613648       21       0.04584685      -0.06173322      -0.00204045
O        2.28395610       6.85408286       0.39151227       22       0.04584685       0.02909953       0.05448276
O       -2.49690757       6.41090418       3.80863275       23      -0.01215302      -0.02072112      -0.07307549
O        3.67269591       2.04833572       7.96311903       24      -0.01548505      -0.01836501       0.07307549
O        5.70077259      -1.87995480       4.03920177       25       0.01215302       0.02072112       0.07307549
O        6.87656094       3.40694220       1.71626851       26      -0.01548505      -0.05410272      -0.05244231
O        3.91082249       2.35839532       4.31542953       27      -0.01215302      -0.05292467       0.05448276
O        0.70695746       4.82354863       7.57160676       28      -0.01215302       0.07364579       0.01859273
O        2.49690756      -0.29259926       0.27622776       29       0.01215302      -0.07364579      -0.01859273
O       -3.67269592       1.12400718       6.13156601       30       0.01548505       0.05410272       0.05244231
O        5.29956231       0.89796746       2.10778078       31      -0.07348492       0.02264709       0.00204045
O        0.91990893       1.50062632       6.03169804       32      -0.04584685       0.06173322       0.00204045
O        3.67269591      -0.92432854       6.01628150       33      -0.01548505       0.07246773      -0.02063318
O        2.09569728      -0.00890074       3.64768950       34      -0.07348492      -0.01309062       0.01859273
O        0.91990893      -2.32313348       7.45632225       35      -0.04584685      -0.02909953      -0.05448276
O       -0.70695747       2.17255406       3.53240499       36       0.01215302       0.05292467      -0.05448276
O       -0.91990893      -0.82250717       5.64018577       37       0.04584685       0.03263369      -0.05244231
O       -0.46883089       5.45527792       1.83155302       38       0.01548505      -0.07246773       0.02063318
O        4.31203277       5.42001609       5.75547028       39       0.07348492       0.00955646       0.02063318
40
Lattice="9.611595083066934 7.533216048891343e-10 2.2706093966112828e-14 -3.2038650283992163 9.0618987480901 -1.3048342601037376e-09 -3.2038650273338773 -4.530949373291697 7.847834523238299" Properties=species:S:1:pos:R:3:spacegroup_kinds:I:1:forces:R:3 spacegroup="P 1" unit_cell=conventional occupancy="_JSON {\"0\": {\"In\": 1}, \"1\": {\"In\": 1}, \"2\": {\"In\": 1}, \"3\": {\"In\": 1}, \"4\": {\"In\": 1}, \"5\": {\"In\": 1}, \"6\": {\"In\": 1}, \"7\": {\"In\": 1}, \"8\": {\"In\": 1}, \"9\": {\"In\": 1}, \"10\": {\"In\": 1}, \"11\": {\"In\": 1}, \"12\": {\"In\": 1}, \"13\": {\"In\": 1}, \"14\": {\"In\": 1}, \"15\": {\"In\": 1}, \"16\": {\"O\": 1}, \"17\": {\"O\": 1}, \"18\": {\"O\": 1}, \"19\": {\"O\": 1}, \"20\": {\"O\": 1}, \"21\": {\"O\": 1}, \"22\": {\"O\": 1}, \"23\": {\"O\": 1}, \"24\": {\"O\": 1}, \"25\": {\"O\": 1}, \"26\": {\"O\": 1}, \"27\": {\"O\": 1}, \"28\": {\"O\": 1}, \"29\": {\"O\": 1}, \"30\": {\"O\": 1}, \"31\": {\"O\": 1}, \"32\": {\"O\": 1}, \"33\": {\"O\": 1}, \"34\": {\"O\": 1}, \"35\": {\"O\": 1}, \"36\": {\"O\": 1}, \"37\": {\"O\": 1}, \"38\": {\"O\": 1}, \"39\": {\"O\": 1}}" n_minim_iter=3 energy=-45148.073066813544 stress="-0.0069223488034407905 -7.543168854718594e-14 2.852127892183443e-13 -7.543168854718594e-14 -0.006922348803454442 3.325409490615891e-13 2.852127892183443e-13 3.325409490615891e-13 -0.006922348803614611" free_energy=-45148.073066813544 pbc="T T T"
In      -4.55962416       3.22414116       6.18737548        0      -0.04927605       0.03484343      -0.06035059
In       7.76348918       1.30680821       1.66045904        1       0.04927605      -0.03484343       0.06035059
In       1.35575913      -0.95866647       5.58437630        2       0.04927605      -0.03484343       0.06035059
In      -1.60193252      -2.26547469       3.92391726        3      -0.00000000      -0.00000000      -0.00000000
In      -1.35575913       4.35687851       3.62241767        4      -0.04927605       0.03484343       0.06035059
In       5.05197092      -3.05007029       5.88587589        5      -0.04927605      -0.06968686      -0.00000000
In      -1.35575913       1.48087908       5.88587589        6      -0.04927605      -0.06968686       0.00000000
In      -1.84810590       7.58101967       1.96195863        7       0.04927605       0.06968686      -0.00000000
In       4.55962416       0.17407087       4.22541685        8       0.04927605      -0.03484343      -0.06035059
In      -1.60193252       4.53094938      -0.00000000        9      -0.00000000       0.00000000       0.00000000
In       4.55962416       6.97049493       0.30149959       10       0.04927605      -0.03484343      -0.06035059
In      -1.35575913      -2.43954555       7.54633493       11      -0.04927605       0.03484343       0.06035059
In       4.55962416       3.05007030       1.96195863       12       0.04927605       0.06968686      -0.00000000
In       1.84810590       5.48961585       2.26345822       13      -0.04927605       0.03484343      -0.06035059
In       4.80579754       0.00000000      -0.00000000       14      -0.00000000      -0.00000000      -0.00000000
In       1.60193251       2.26547469       3.92391726       15      -0.00000000       0.00000000       0.00000000
O        1.11358948       4.54378790       4.19359192       16       0.06991163      -0.02694528       0.06155483
O       -2.09027555       3.62533788       5.73992007       17       0.06991163       0.06678069      -0.00744212
O       -0.47051794       2.47999629      -0.12412463       18       0.06086106       0.07318040      -0.01852675
O       -1.11358948      -0.89277297       2.08567747       19      -0.06991163       0.03983541       0.05411271
O        4.11475984       5.35205897       2.20980210       20       0.03965756      -0.05053184       0.07263947
O        2.29297021       3.02775942       1.81600281       21      -0.03965756      -0.08817354      -0.00744212
O        2.29297021       6.85524893       0.39379928       22      -0.03965756       0.03764171       0.08008159
O       -2.49500224       6.41336720       3.79979263       23      -0.04870813      -0.08177383      -0.01852675
O        3.67438296       2.05095309       7.97195914       24      -0.06086106      -0.07318040       0.01852675
O        5.69886726      -1.88241782       4.04804188       25       0.04870813       0.08177383       0.01852675
O        6.87824799       3.39797776       1.71411516       26      -0.06086106       0.02054556      -0.07263947
O        3.91272782       2.34950804       4.31771654       27      -0.04870813       0.02484227       0.08008159
O        0.70886279       4.82997289       7.57815986       28      -0.04870813       0.05693155      -0.06155483
O        2.49500223      -0.29902351       0.26967466       29       0.04870813      -0.05693155       0.06155483
O       -3.67438297       1.13297162       6.13371936       30       0.06086106      -0.02054556       0.07263947
O        5.29414057       0.90561150       2.10791445       31      -0.06991163      -0.06678069       0.00744212
O        0.91089482       1.50318996       6.03183171       32       0.03965756       0.08817354       0.00744212
O        3.67438296      -0.91798146       6.00959473       33      -0.06086106       0.05263484       0.05411271
O        2.09027555      -0.01283852       3.65424260       34      -0.06991163       0.02694528      -0.06155483
O        0.91089482      -2.32429955       7.45403523       35       0.03965756      -0.03764171      -0.08008159
O       -0.70886279       2.18144134       3.53011797       36       0.04870813      -0.02484227      -0.08008159
O       -0.91089482      -0.82110959       5.63803242       37      -0.03965756       0.05053184      -0.07263947
O       -0.47051794       5.44893084       1.83823978       38       0.06086106      -0.05263484      -0.05411271
O        4.31745451       5.42372235       5.76215704       39       0.06991163      -0.03983541      -0.05411271
40
Lattice="9.611595083066936 7.533216048891347e-10 2.270609396611284e-14 -3.203865028399218 9.061898748090101 -1.3048342601037378e-09 -3.203865027333879 -4.530949373291698 7.847834523238302" Properties=species:S:1:pos:R:3:spacegroup_kinds:I:1:forces:R:3 spacegroup="P 1" unit_cell=conventional occupancy="_JSON {\"0\": {\"In\": 1}, \"1\": {\"In\": 1}, \"2\": {\"In\": 1}, \"3\": {\"In\": 1}, \"4\": {\"In\": 1}, \"5\": {\"In\": 1}, \"6\": {\"In\": 1}, \"7\": {\"In\": 1}, \"8\": {\"In\": 1}, \"9\": {\"In\": 1}, \"10\": {\"In\": 1}, \"11\": {\"In\": 1}, \"12\": {\"In\": 1}, \"13\": {\"In\": 1}, \"14\": {\"In\": 1}, \"15\": {\"In\": 1}, \"16\": {\"O\": 1}, \"17\": {\"O\": 1}, \"18\": {\"O\": 1}, \"19\": {\"O\": 1}, \"20\": {\"O\": 1}, \"21\": {\"O\": 1}, \"22\": {\"O\": 1}, \"23\": {\"O\": 1}, \"24\": {\"O\": 1}, \"25\": {\"O\": 1}, \"26\": {\"O\": 1}, \"27\": {\"O\": 1}, \"28\": {\"O\": 1}, \"29\": {\"O\": 1}, \"30\": {\"O\": 1}, \"31\": {\"O\": 1}, \"32\": {\"O\": 1}, \"33\": {\"O\": 1}, \"34\": {\"O\": 1}, \"35\": {\"O\": 1}, \"36\": {\"O\": 1}, \"37\": {\"O\": 1}, \"38\": {\"O\": 1}, \"39\": {\"O\": 1}}" n_minim_iter=4 energy=-45148.089592858625 stress="-0.012674884854553755 -8.820523793424395e-13 1.2547024250194192e-12 -8.820523793424395e-13 -0.012674884854539674 -6.439055191248873e-13 1.2547024250194192e-12 -6.439055191248873e-13 -0.01267488485558772" free_energy=-45148.089592858625 pbc="T T T"
In      -4.57048510       3.23182101       6.17407360        0      -0.02042776       0.01444461      -0.02501880
In       7.77435012       1.29912837       1.67376092        1       0.02042776      -0.01444461       0.02501880
In       1.36662007      -0.96634632       5.59767818        2       0.02042776      -0.01444461       0.02501880
In      -1.60193252      -2.26547469       3.92391726        3       0.00000000      -0.00000000      -0.00000000
In      -1.36662007       4.36455835       3.63571955        4      -0.02042776       0.01444461       0.02501880
In       5.04110998      -3.06542998       5.88587589        5      -0.02042776      -0.02888922      -0.00000000
In      -1.36662007       1.46551940       5.88587589        6      -0.02042776      -0.02888922      -0.00000000
In      -1.83724496       7.59637936       1.96195863        7       0.02042776       0.02888922       0.00000000
In       4.57048510       0.16639103       4.21211497        8       0.02042776      -0.01444461      -0.02501880
In      -1.60193252       4.53094938      -0.00000000        9      -0.00000000       0.00000000      -0.00000000
In       4.57048510       6.96281509       0.28819771       10       0.02042776      -0.01444461      -0.02501880
In      -1.36662007      -2.43186571       7.55963681       11      -0.02042776       0.01444461       0.02501880
In       4.57048510       3.06542998       1.96195863       12       0.02042776       0.02888922      -0.00000000
In       1.83724496       5.49729569       2.25015634       13      -0.02042776       0.01444461      -0.02501880
In       4.80579754       0.00000000      -0.00000000       14       0.00000000       0.00000000       0.00000000
In       1.60193251       2.26547469       3.92391726       15       0.00000000       0.00000000       0.00000000
O        1.12855643       4.54853362       4.18710530       16       0.05808068      -0.03964373       0.15118314
O       -2.07530859       3.61734744       5.73905347       17       0.05808068       0.15075030      -0.04125910
O       -0.46858811       2.48122449      -0.14095838       18       0.12411251       0.10405875       0.03961305
O       -1.12855644      -0.89601769       2.07832425       19      -0.05808068       0.11110658       0.10992404
O        4.10223740       5.34558471       2.21928262       20       0.12276852      -0.08823597       0.07031099
O        2.30549265       3.01631191       1.81513621       21      -0.12276852      -0.10500909      -0.04125910
O        2.30549265       6.86022218       0.40414641       22      -0.12276852       0.01677312       0.11157009
O       -2.49551692       6.41113834       3.78295888       23      -0.05673669      -0.15170065       0.03961305
O        3.67245313       2.04972489       7.98879290       24      -0.12411251      -0.10405875      -0.03961305
O        5.69938194      -1.88018896       4.06487563       25       0.05673669       0.15170065      -0.03961305
O        6.87631816       3.38401340       1.70463463       26      -0.12411251       0.08633528      -0.07031099
O        3.91221314       2.33604402       4.32806367       27      -0.05673669       0.11015623       0.11157009
O        0.70834811       4.84566577       7.58464648       28      -0.05673669       0.04154442      -0.15118314
O        2.49551691      -0.31471640       0.26318804       29       0.05673669      -0.04154442       0.15118314
O       -3.67245313       1.14693598       6.14319988       30       0.12411251      -0.08633528       0.07031099
O        5.27917362       0.91360194       2.10878105       31      -0.05808068      -0.15075030       0.04125910
O        0.89837237       1.51463746       6.03269831       32       0.12276852       0.10500909       0.04125910
O        3.67245313      -0.90278891       6.00224151       33      -0.12411251       0.01772347       0.10992404
O        2.07530859      -0.01758424       3.66072922       34      -0.05808068       0.03964373      -0.15118314
O        0.89837237      -2.32927280       7.44368811       35       0.12276852      -0.01677312      -0.11157009
O       -0.70834812       2.19490536       3.51977084       36       0.05673669      -0.11015623      -0.11157009
O       -0.89837237      -0.81463533       5.62855190       37      -0.12276852       0.08823597      -0.07031099
O       -0.46858811       5.43373829       1.84559301       38       0.12411251      -0.01772347      -0.10992404
O        4.33242146       5.42696707       5.76951027       39       0.05808068      -0.11110658      -0.10992404
40
Lattice="9.611595083066943 7.533216048891349e-10 2.2706093966112853e-14 -3.203865028399219 9.061898748090108 -1.3048342601037389e-09 -3.20386502733388 -4.530949373291701 7.847834523238307" Properties=species:S:1:pos:R:3:spacegroup_kinds:I:1:forces:R:3 spacegroup="P 1" unit_cell=conventional occupancy="_JSON {\"0\": {\"In\": 1}, \"1\": {\"In\": 1}, \"2\": {\"In\": 1}, \"3\": {\"In\": 1}, \"4\": {\"In\": 1}, \"5\": {\"In\": 1}, \"6\": {\"In\": 1}, \"7\": {\"In\": 1}, \"8\": {\"In\": 1}, \"9\": {\"In\": 1}, \"10\": {\"In\": 1}, \"11\": {\"In\": 1}, \"12\": {\"In\": 1}, \"13\": {\"In\": 1}, \"14\": {\"In\": 1}, \"15\": {\"In\": 1}, \"16\": {\"O\": 1}, \"17\": {\"O\": 1}, \"18\": {\"O\": 1}, \"19\": {\"O\": 1}, \"20\": {\"O\": 1}, \"21\": {\"O\": 1}, \"22\": {\"O\": 1}, \"23\": {\"O\": 1}, \"24\": {\"O\": 1}, \"25\": {\"O\": 1}, \"26\": {\"O\": 1}, \"27\": {\"O\": 1}, \"28\": {\"O\": 1}, \"29\": {\"O\": 1}, \"30\": {\"O\": 1}, \"31\": {\"O\": 1}, \"32\": {\"O\": 1}, \"33\": {\"O\": 1}, \"34\": {\"O\": 1}, \"35\": {\"O\": 1}, \"36\": {\"O\": 1}, \"37\": {\"O\": 1}, \"38\": {\"O\": 1}, \"39\": {\"O\": 1}}" n_minim_iter=5 energy=-45148.123899457176 stress="-0.015293142032907487 2.89759802184877e-14 -6.599618591967963e-13 2.89759802184877e-14 -0.015293142031832366 1.1784153799073087e-12 -6.599618591967963e-13 1.1784153799073087e-12 -0.015293142030273148" free_energy=-45148.123899457176 pbc="T T T"
In      -4.58490202       3.24201531       6.15641655        0       0.05057363      -0.03576096       0.06193980
In       7.78876704       1.28893407       1.69141796        1      -0.05057363       0.03576096      -0.06193980
In       1.38103698      -0.97654062       5.61533522        2      -0.05057363       0.03576096      -0.06193980
In      -1.60193252      -2.26547469       3.92391726        3       0.00000000      -0.00000000      -0.00000000
In      -1.38103699       4.37475265       3.65337659        4       0.05057363      -0.03576096      -0.06193980
In       5.02669307      -3.08581858       5.88587589        5       0.05057363       0.07152192       0.00000000
In      -1.38103699       1.44513080       5.88587589        6       0.05057363       0.07152192      -0.00000000
In      -1.82282804       7.61676796       1.96195863        7      -0.05057363      -0.07152192       0.00000000
In       4.58490201       0.15619673       4.19445792        8      -0.05057363       0.03576096       0.06193980
In      -1.60193252       4.53094938      -0.00000000        9       0.00000000      -0.00000000       0.00000000
In       4.58490201       6.95262079       0.27054066       10      -0.05057363       0.03576096       0.06193980
In      -1.38103699      -2.42167141       7.57729386       11       0.05057363      -0.03576096      -0.06193980
In       4.58490201       3.08581858       1.96195863       12      -0.05057363      -0.07152192       0.00000000
In       1.82282804       5.50748999       2.23249929       13       0.05057363      -0.03576096       0.06193980
In       4.80579754       0.00000000      -0.00000000       14       0.00000000      -0.00000000      -0.00000000
In       1.60193251       2.26547469       3.92391726       15       0.00000000      -0.00000000       0.00000000
O        1.15011423       4.54762478       4.19551568       16       0.02557710       0.06191403       0.04052532
O       -2.05375079       3.62508547       5.73563535       17       0.02557710       0.00413894      -0.07388178
O       -0.45496355       2.49457217      -0.15409270       18       0.07080104      -0.02783921      -0.01849400
O       -1.15011424      -0.88918850       2.08331652       19      -0.02557710       0.06605297      -0.03335646
O        4.10234695       5.33117242       2.23740921       20      -0.00462347      -0.07673049      -0.01486247
O        2.30538310       2.99340768       1.81171809       21       0.00462347      -0.02549397      -0.07388178
O        2.30538310       6.86871412       0.42569111       22       0.00462347      -0.05123652       0.05901932
O       -2.50355971       6.39384376       3.76982457       23       0.04984741      -0.05747212      -0.01849400
O        3.65882858       2.03637721       8.00192721       24      -0.07080104       0.02783921       0.01849400
O        5.70742474      -1.86289438       4.07800995       25      -0.04984741       0.05747212       0.01849400
O        6.86269360       3.37931259       1.68650804       26      -0.07080104      -0.02993588       0.01486247
O        3.90417034       2.33331666       4.34960838       27       0.04984741       0.01271979       0.05901932
O        0.70030532       4.86568772       7.57623609       28       0.04984741       0.04475233      -0.04052532
O        2.50355971      -0.33473834       0.27159842       29      -0.04984741      -0.04475233       0.04052532
O       -3.65882858       1.15163679       6.16132647       30       0.07080104       0.02993588      -0.01486247
O        5.25761582       0.90586391       2.11219916       31      -0.02557710      -0.00413894       0.07388178
O        0.89848192       1.53754170       6.03611642       32      -0.00462347       0.02549397       0.07388178
O        3.65882858      -0.88474042       6.00723378       33      -0.07080104       0.00209666      -0.03335646
O        2.05375079      -0.01667540       3.65231883       34      -0.02557710      -0.06191403      -0.04052532
O        0.89848192      -2.33776474       7.42214340       35      -0.00462347       0.05123652      -0.05901932
O       -0.70030532       2.19763272       3.49822614       36      -0.04984741      -0.01271979      -0.05901932
O       -0.89848193      -0.80022305       5.61042531       37       0.00462347       0.07673049       0.01486247
O       -0.45496355       5.41568979       1.84060074       38       0.07080104      -0.00209666       0.03335646
O        4.35397926       5.42013788       5.76451800       39       0.02557710      -0.06605297       0.03335646
40