40
Lattice="8.771354506959701 6.874734691164702e-10 1.0952178230909843e-14 -2.923784836301391 8.26971233585403 -1.1907455741923653e-09 -2.9237848353291644 -4.134856167239539 7.161780965632977" Properties=species:S:1:pos:R:3:spacegroup_kinds:I:1:forces:R:3 spacegroup="P 1" unit_cell=conventional occupancy="_JSON {\"0\": {\"In\": 1}, \"1\": {\"In\": 1}, \"2\": {\"In\": 1}, \"3\": {\"In\": 1}, \"4\": {\"In\": 1}, \"5\": {\"In\": 1}, \"6\": {\"In\": 1}, \"7\": {\"In\": 1}, \"8\": {\"In\": 1}, \"9\": {\"In\": 1}, \"10\": {\"In\": 1}, \"11\": {\"In\": 1}, \"12\": {\"In\": 1}, \"13\": {\"In\": 1}, \"14\": {\"In\": 1}, \"15\": {\"In\": 1}, \"16\": {\"O\": 1}, \"17\": {\"O\": 1}, \"18\": {\"O\": 1}, \"19\": {\"O\": 1}, \"20\": {\"O\": 1}, \"21\": {\"O\": 1}, \"22\": {\"O\": 1}, \"23\": {\"O\": 1}, \"24\": {\"O\": 1}, \"25\": {\"O\": 1}, \"26\": {\"O\": 1}, \"27\": {\"O\": 1}, \"28\": {\"O\": 1}, \"29\": {\"O\": 1}, \"30\": {\"O\": 1}, \"31\": {\"O\": 1}, \"32\": {\"O\": 1}, \"33\": {\"O\": 1}, \"34\": {\"O\": 1}, \"35\": {\"O\": 1}, \"36\": {\"O\": 1}, \"37\": {\"O\": 1}, \"38\": {\"O\": 1}, \"39\": {\"O\": 1}}" n_minim_iter=8 energy=-45151.04900561637 stress="-0.004295921612029661 2.290755306671598e-13 9.628061986557813e-13 2.290755306671598e-13 -0.004295921611427179 5.604040355468935e-14 9.628061986557813e-13 5.604040355468935e-14 -0.004295921613195351" free_energy=-45151.04900561637 pbc="T T T"
In      -4.17858975       2.95470915       5.62496508        0      -0.00414221       0.00292899      -0.00507315
In       7.10237458       1.18014702       1.53681588        1       0.00414221      -0.00292899       0.00507315
In       1.25480491      -0.88728106       5.11770636        2       0.00414221      -0.00292899       0.00507315
In      -1.46189242      -2.06742808       3.58089048        3       0.00000000       0.00000000       0.00000000
In      -1.25480491       3.98842319       3.32726112        4      -0.00414221       0.00292899       0.00507315
In       4.59276476      -2.80827616       5.37133572        5      -0.00414221      -0.00585797      -0.00000000
In      -1.25480491       1.32658000       5.37133572        6      -0.00414221      -0.00585797       0.00000000
In      -1.66897993       6.94313234       1.79044524        7       0.00414221       0.00585797      -0.00000000
In       4.17858975       0.14643298       3.83451984        8       0.00414221      -0.00292899      -0.00507315
In      -1.46189242       4.13485617      -0.00000000        9       0.00000000       0.00000000      -0.00000000
In       4.17858974       6.34871723       0.25362936       10       0.00414221      -0.00292899      -0.00507315
In      -1.25480491      -2.21386106       6.90815160       11      -0.00414221       0.00292899       0.00507315
In       4.17858975       2.80827617       1.79044524       12       0.00414221       0.00585797       0.00000000
In       1.66897992       5.02213723       2.04407460       13      -0.00414221       0.00292899      -0.00507315
In       4.38567725       0.00000000      -0.00000000       14      -0.00000000      -0.00000000       0.00000000
In       1.46189242       2.06742809       3.58089048       15       0.00000000      -0.00000000       0.00000000
O        0.90818750       4.14080468       3.88911836       16       0.00062968       0.00191843       0.00272805
O       -2.01559734       3.36510104       5.21207022       17       0.00062968       0.00140334      -0.00302543
O       -0.41739462       2.23500106       0.00767984       18       0.00334169      -0.00051434       0.00029609
O       -0.90818750      -0.76380661       1.93940762       19      -0.00062968       0.00332177      -0.00029739
O        3.84451347       4.90309674       1.93172777       20       0.00111319      -0.00315082      -0.00059348
O        2.00305620       2.84605113       1.63117974       21      -0.00111319      -0.00106144      -0.00302543
O        2.00305620       6.19190178       0.30054803       22      -0.00111319      -0.00208938       0.00243195
O       -2.24631075       5.85080732       3.58857032       23       0.00159882      -0.00297913       0.00029609
O        3.34117945       1.89985511       7.15410112       24      -0.00334169       0.00051434      -0.00029609
O        5.17009558      -1.71595115       3.57321064       25      -0.00159882       0.00297913      -0.00029609
O        6.26496429       3.19157956       1.64916271       26      -0.00334169      -0.00000075       0.00059348
O        3.60125892       2.24981749       3.88143851       27       0.00159882       0.00174599       0.00243195
O        0.67747409       4.30394370       6.85355308       28       0.00159882       0.00123314      -0.00272805
O        2.24631075      -0.16908753       0.30822788       29      -0.00159882      -0.00123314       0.00272805
O       -3.34117945       0.94327662       5.51261825       30       0.00334169       0.00000075      -0.00059348
O        4.93938217       0.76975513       1.94971074       31      -0.00062968      -0.00140334       0.00302543
O        0.92072863       1.28880504       5.53060122       32       0.00111319       0.00106144       0.00302543
O        3.34117945      -0.95657849       5.52029810       33      -0.00334169      -0.00051359      -0.00029739
O        2.01559733      -0.00594851       3.27266260       34      -0.00062968      -0.00191843      -0.00272805
O        0.92072863      -2.05704561       6.86123293       35       0.00111319       0.00208938      -0.00243195
O       -0.67747409       1.88503868       3.28034245       36      -0.00159882      -0.00174599      -0.00243195
O       -0.92072863      -0.76824057       5.23005319       37      -0.00111319       0.00315082       0.00059348
O       -0.41739462       5.09143466       1.64148286       38       0.00334169       0.00051359       0.00029739
O        3.83197233       4.89866279       5.22237334       39       0.00062968      -0.00332177       0.00029739
