40
Lattice="9.41538502597116 7.379459705814293e-10 9.316466440456759e-15 -3.1384616760194612 8.876910132216 -1.2781880285767466e-09 -3.138461674975857 -4.438455065370032 7.687629682462651" Properties=species:S:1:pos:R:3:spacegroup_kinds:I:1:forces:R:3 spacegroup="P 1" unit_cell=conventional occupancy="_JSON {\"0\": {\"In\": 1}, \"1\": {\"In\": 1}, \"2\": {\"In\": 1}, \"3\": {\"In\": 1}, \"4\": {\"In\": 1}, \"5\": {\"In\": 1}, \"6\": {\"In\": 1}, \"7\": {\"In\": 1}, \"8\": {\"In\": 1}, \"9\": {\"In\": 1}, \"10\": {\"In\": 1}, \"11\": {\"In\": 1}, \"12\": {\"In\": 1}, \"13\": {\"In\": 1}, \"14\": {\"In\": 1}, \"15\": {\"In\": 1}, \"16\": {\"O\": 1}, \"17\": {\"O\": 1}, \"18\": {\"O\": 1}, \"19\": {\"O\": 1}, \"20\": {\"O\": 1}, \"21\": {\"O\": 1}, \"22\": {\"O\": 1}, \"23\": {\"O\": 1}, \"24\": {\"O\": 1}, \"25\": {\"O\": 1}, \"26\": {\"O\": 1}, \"27\": {\"O\": 1}, \"28\": {\"O\": 1}, \"29\": {\"O\": 1}, \"30\": {\"O\": 1}, \"31\": {\"O\": 1}, \"32\": {\"O\": 1}, \"33\": {\"O\": 1}, \"34\": {\"O\": 1}, \"35\": {\"O\": 1}, \"36\": {\"O\": 1}, \"37\": {\"O\": 1}, \"38\": {\"O\": 1}, \"39\": {\"O\": 1}}" n_minim_iter=1 energy=-45148.25709804633 stress="0.041648557492716745 -9.491861273323705e-13 6.618093284678423e-13 -9.491861273323705e-13 0.04164855749009715 1.2518532169277e-13 6.618093284678423e-13 1.2518532169277e-13 0.041648557492685784" free_energy=-45148.25709804633 pbc="T T T"
In      -4.45770161       3.15207104       6.07189734        0       0.01749846      -0.01237328       0.02143115
In       7.59616328       1.28638403       1.61573234        1      -0.01749846       0.01237328      -0.02143115
In       1.31923993      -0.93284350       5.45954718        2      -0.01749846       0.01237328      -0.02143115
In      -1.56923084      -2.21922753       3.84381484        3      -0.00000000       0.00000000       0.00000000
In      -1.31923993       4.26168480       3.53763976        4       0.01749846      -0.01237328      -0.02143115
In       4.95768342      -2.97530077       5.76572226        5       0.01749846       0.02474656      -0.00000000
In      -1.31923993       1.46315430       5.76572226        6       0.01749846       0.02474656      -0.00000000
In      -1.81922175       7.41375584       1.92190742        7      -0.01749846      -0.02474656       0.00000000
In       4.45770160       0.17677027       4.14998992        8      -0.01749846       0.01237328       0.02143115
In      -1.56923084       4.43845507      -0.00000000        9       0.00000000       0.00000000       0.00000000
In       4.45770160       6.83445287       0.30617508       10      -0.01749846       0.01237328       0.02143115
In      -1.31923993      -2.39599780       7.38145460       11       0.01749846      -0.01237328      -0.02143115
In       4.45770160       2.97530077       1.92190742       12      -0.01749846      -0.02474656      -0.00000000
In       1.81922174       5.37129857       2.22808250       13       0.01749846      -0.01237328       0.02143115
In       4.70769251       0.00000000      -0.00000000       14       0.00000000       0.00000000      -0.00000000
In       1.56923084       2.21922754       3.84381484       15       0.00000000       0.00000000      -0.00000000
O        0.88565002       4.42582149       4.17422321       16       0.07036659      -0.04857314      -0.16276361
O       -2.25281166       3.62130013       5.61145907       17       0.07036659      -0.11667085       0.12344738
O       -0.48711544       2.37276436       0.08635678       18      -0.13233800       0.02666294      -0.12481403
O       -0.88565002      -0.82978851       2.09805260       19      -0.07036659      -0.16524399      -0.03931623
O        4.16513172       5.31810169       2.01169582       20      -0.13345387       0.09318258       0.08549779
O        2.11179162       3.13609869       1.76764423       21       0.13345387      -0.02745197       0.12344738
O        2.11179162       6.62045807       0.24405159       22       0.13345387       0.12063455      -0.03794958
O       -2.39943551       6.32601799       3.93017162       23      -0.06925072       0.11588182      -0.12481403
O        3.62557711       2.06569071       7.60127290       24       0.13233800      -0.02666294       0.12481403
O        5.53789718      -1.88756292       3.75745806       25       0.06925072      -0.11588182       0.12481403
O        6.76403879       3.48039688       1.83211901       26       0.13233800      -0.09476065      -0.08549779
O        3.87748784       2.45984701       4.08786643       27      -0.06925072      -0.16603303      -0.03794958
O        0.73902617       4.52950021       7.35722131       28      -0.06925072       0.05015121       0.16276361
O        2.39943550      -0.09104514       0.33040837       29       0.06925072      -0.05015121      -0.16276361
O       -3.62557711       0.95805819       5.85551066       30      -0.13233800       0.09476065       0.08549779
O        5.39127333       0.81715494       2.07617061       31      -0.07036659       0.11667085      -0.12344738
O        1.02667005       1.30235638       5.91998545       32      -0.13345387       0.02745197      -0.12344738
O        3.62557711      -1.10763251       5.94186744       33       0.13233800       0.12142359      -0.03931623
O        2.25281165       0.01263358       3.51340647       34      -0.07036659       0.04857314       0.16276361
O        1.02667005      -2.18200300       7.44357809       35      -0.13345387      -0.12063455       0.03794958
O       -0.73902617       1.97860806       3.59976325       36       0.06925072       0.16603303       0.03794958
O       -1.02667005      -0.87964662       5.67593386       37       0.13345387      -0.09318258      -0.08549779
O       -0.48711544       5.54608759       1.74576223       38      -0.13233800      -0.12142359       0.03931623
O        4.02411169       5.26824358       5.58957708       39       0.07036659       0.16524399       0.03931623
40
Lattice="9.41538502597116 7.379459705814291e-10 9.316466440456757e-15 -3.138461676019462 8.876910132215997 -1.2781880285767466e-09 -3.138461674975858 -4.4384550653700305 7.687629682462653" Properties=species:S:1:pos:R:3:spacegroup_kinds:I:1:forces:R:3 spacegroup="P 1" unit_cell=conventional occupancy="_JSON {\"0\": {\"In\": 1}, \"1\": {\"In\": 1}, \"2\": {\"In\": 1}, \"3\": {\"In\": 1}, \"4\": {\"In\": 1}, \"5\": {\"In\": 1}, \"6\": {\"In\": 1}, \"7\": {\"In\": 1}, \"8\": {\"In\": 1}, \"9\": {\"In\": 1}, \"10\": {\"In\": 1}, \"11\": {\"In\": 1}, \"12\": {\"In\": 1}, \"13\": {\"In\": 1}, \"14\": {\"In\": 1}, \"15\": {\"In\": 1}, \"16\": {\"O\": 1}, \"17\": {\"O\": 1}, \"18\": {\"O\": 1}, \"19\": {\"O\": 1}, \"20\": {\"O\": 1}, \"21\": {\"O\": 1}, \"22\": {\"O\": 1}, \"23\": {\"O\": 1}, \"24\": {\"O\": 1}, \"25\": {\"O\": 1}, \"26\": {\"O\": 1}, \"27\": {\"O\": 1}, \"28\": {\"O\": 1}, \"29\": {\"O\": 1}, \"30\": {\"O\": 1}, \"31\": {\"O\": 1}, \"32\": {\"O\": 1}, \"33\": {\"O\": 1}, \"34\": {\"O\": 1}, \"35\": {\"O\": 1}, \"36\": {\"O\": 1}, \"37\": {\"O\": 1}, \"38\": {\"O\": 1}, \"39\": {\"O\": 1}}" n_minim_iter=2 energy=-45148.29949123982 stress="0.037410235191819755 6.37032450869512e-15 4.337753184502236e-13 6.37032450869512e-15 0.037410235190436916 1.7341064370650481e-12 4.337753184502236e-13 1.7341064370650481e-12 0.03741023518980948" free_energy=-45148.29949123982 pbc="T T T"
In      -4.45645172       3.15118723       6.07342814        0       0.03185898      -0.02252770       0.03901912
In       7.59491339       1.28726784       1.61420154        1      -0.03185898       0.02252770      -0.03901912
In       1.31799004      -0.93195969       5.45801638        2      -0.03185898       0.02252770      -0.03901912
In      -1.56923084      -2.21922753       3.84381484        3       0.00000000      -0.00000000      -0.00000000
In      -1.31799004       4.26080100       3.53610896        4       0.03185898      -0.02252770      -0.03901912
In       4.95893331      -2.97353315       5.76572226        5       0.03185898       0.04505540      -0.00000000
In      -1.31799004       1.46492191       5.76572226        6       0.03185898       0.04505540      -0.00000000
In      -1.82047164       7.41198823       1.92190742        7      -0.03185898      -0.04505540      -0.00000000
In       4.45645171       0.17765407       4.15152072        8      -0.03185898       0.02252770       0.03901912
In      -1.56923084       4.43845507      -0.00000000        9      -0.00000000       0.00000000      -0.00000000
In       4.45645171       6.83533667       0.30770587       10      -0.03185898       0.02252770       0.03901912
In      -1.31799004      -2.39688160       7.37992380       11       0.03185898      -0.02252770      -0.03901912
In       4.45645171       2.97353316       1.92190742       12      -0.03185898      -0.04505540       0.00000000
In       1.82047163       5.37041476       2.22961329       13       0.03185898      -0.02252770       0.03901912
In       4.70769251       0.00000000      -0.00000000       14      -0.00000000       0.00000000       0.00000000
In       1.56923084       2.21922754       3.84381484       15       0.00000000       0.00000000       0.00000000
O        0.89067620       4.42235198       4.16259724       16       0.04720551      -0.00247155      -0.06655672
O       -2.24778547       3.61296650       5.62027674       17       0.04720551      -0.05640404       0.03541878
O       -0.49656815       2.37466886       0.07744149       18      -0.03977326       0.00509925      -0.07110803
O       -0.89067621      -0.84159165       2.09524430       19      -0.04720551      -0.05887558      -0.03113794
O        4.15559930       5.32475759       2.01780281       20      -0.06891341       0.01782135       0.03997009
O        2.12132404       3.13413783       1.77646190       21       0.06891341      -0.02570444       0.03541878
O        2.12132404       6.62907482       0.24134090       22       0.06891341       0.04352579       0.00455131
O       -2.40438199       6.33429526       3.92125633       23      -0.01806537       0.03579884      -0.07110803
O        3.63502983       2.06378621       7.61018819       24       0.03977326      -0.00509925       0.07110803
O        5.54284366      -1.89584019       3.76637335       25       0.01806537      -0.03579884       0.07110803
O        6.77349150       3.47362826       1.82601203       26       0.03977326      -0.05903173      -0.03997009
O        3.87254136       2.44798751       4.08515575       27      -0.01806537      -0.07948078       0.00455131
O        0.73407969       4.53308244       7.36884728       28      -0.01806537       0.04368194       0.06655672
O        2.40438198      -0.09462737       0.31878240       29       0.01806537      -0.04368194      -0.06655672
O       -3.63502983       0.96482681       5.86161765       30      -0.03977326       0.05903173       0.03997009
O        5.38624715       0.82548857       2.06735294       31      -0.04720551       0.05640404      -0.03541878
O        1.01713763       1.30431724       5.91116778       32      -0.06891341       0.02570444      -0.03541878
O        3.63502983      -1.09895940       5.93905914       33       0.03977326       0.06413098      -0.03113794
O        2.24778547       0.01610309       3.52503244       34      -0.04720551       0.00247155       0.06655672
O        1.01713763      -2.19061975       7.44628877       35      -0.06891341      -0.04352579      -0.00455131
O       -0.73407969       1.99046756       3.60247393       36       0.01806537       0.07948078      -0.00455131
O       -1.01713763      -0.88630252       5.66982687       37       0.06891341      -0.01782135      -0.03997009
O       -0.49656815       5.53741447       1.74857054       38      -0.03977326      -0.06413098       0.03113794
O        4.02913788       5.28004672       5.59238538       39       0.04720551       0.05887558       0.03113794
40
Lattice="9.415385025971158 7.37945970581429e-10 9.31646644045675e-15 -3.1384616760194617 8.876910132215995 -1.2781880285767462e-09 -3.1384616749758574 -4.43845506537003 7.687629682462651" Properties=species:S:1:pos:R:3:spacegroup_kinds:I:1:forces:R:3 spacegroup="P 1" unit_cell=conventional occupancy="_JSON {\"0\": {\"In\": 1}, \"1\": {\"In\": 1}, \"2\": {\"In\": 1}, \"3\": {\"In\": 1}, \"4\": {\"In\": 1}, \"5\": {\"In\": 1}, \"6\": {\"In\": 1}, \"7\": {\"In\": 1}, \"8\": {\"In\": 1}, \"9\": {\"In\": 1}, \"10\": {\"In\": 1}, \"11\": {\"In\": 1}, \"12\": {\"In\": 1}, \"13\": {\"In\": 1}, \"14\": {\"In\": 1}, \"15\": {\"In\": 1}, \"16\": {\"O\": 1}, \"17\": {\"O\": 1}, \"18\": {\"O\": 1}, \"19\": {\"O\": 1}, \"20\": {\"O\": 1}, \"21\": {\"O\": 1}, \"22\": {\"O\": 1}, \"23\": {\"O\": 1}, \"24\": {\"O\": 1}, \"25\": {\"O\": 1}, \"26\": {\"O\": 1}, \"27\": {\"O\": 1}, \"28\": {\"O\": 1}, \"29\": {\"O\": 1}, \"30\": {\"O\": 1}, \"31\": {\"O\": 1}, \"32\": {\"O\": 1}, \"33\": {\"O\": 1}, \"34\": {\"O\": 1}, \"35\": {\"O\": 1}, \"36\": {\"O\": 1}, \"37\": {\"O\": 1}, \"38\": {\"O\": 1}, \"39\": {\"O\": 1}}" n_minim_iter=3 energy=-45148.31150488165 stress="0.03417786698736435 -6.511009887822523e-14 -5.714026221524966e-13 -6.511009887822523e-14 0.034177866985334225 1.1770806744580362e-12 -5.714026221524966e-13 1.1770806744580362e-12 0.034177866986596785" free_energy=-45148.31150488165 pbc="T T T"
In      -4.45481296       3.15002845       6.07543520        0       0.03999813      -0.02828295       0.04898750
In       7.59327463       1.28842662       1.61219448        1      -0.03999813       0.02828295      -0.04898750
In       1.31635128      -0.93080092       5.45600932        2      -0.03999813       0.02828295      -0.04898750
In      -1.56923084      -2.21922753       3.84381484        3       0.00000000       0.00000000       0.00000000
In      -1.31635128       4.25964222       3.53410190        4       0.03999813      -0.02828295      -0.04898750
In       4.96057207      -2.97121560       5.76572226        5       0.03999813       0.05656589      -0.00000000
In      -1.31635128       1.46723947       5.76572226        6       0.03999813       0.05656589       0.00000000
In      -1.82211039       7.40967067       1.92190742        7      -0.03999813      -0.05656589       0.00000000
In       4.45481296       0.17881285       4.15352778        8      -0.03999813       0.02828295       0.04898750
In      -1.56923084       4.43845507      -0.00000000        9      -0.00000000       0.00000000      -0.00000000
In       4.45481296       6.83649545       0.30971293       10      -0.03999813       0.02828295       0.04898750
In      -1.31635128      -2.39804038       7.37791674       11       0.03999813      -0.02828295      -0.04898750
In       4.45481296       2.97121561       1.92190742       12      -0.03999813      -0.05656589       0.00000000
In       1.82211039       5.36925599       2.23162036       13       0.03999813      -0.02828295       0.04898750
In       4.70769251       0.00000000      -0.00000000       14       0.00000000      -0.00000000       0.00000000
In       1.56923084       2.21922754       3.84381484       15       0.00000000       0.00000000       0.00000000
O        0.89519830       4.42000008       4.15322688       16       0.03716168       0.03136965       0.00603627
O       -2.24326338       3.60602749       5.62699872       17       0.03716168      -0.01045726      -0.03018505
O       -0.50382035       2.37605552       0.06974297       18       0.03210362      -0.00688067      -0.03637989
O       -0.89519830      -0.85088257       2.09259593       19      -0.03716168       0.02091239      -0.02414878
O        4.14754977       5.32960376       2.02285295       20      -0.02224643      -0.04191633       0.01223111
O        2.12937357       3.13218737       1.78318388       21       0.02224643      -0.03155062      -0.03018505
O        2.12937357       6.63587146       0.23966907       22       0.02224643      -0.01036571       0.04241616
O       -2.40810675       6.34067047       3.91355781       23       0.01718836      -0.02797403      -0.03637989
O        3.64228202       2.06239955       7.61788670       24      -0.03210362       0.00688067       0.03637989
O        5.54656842      -1.90221540       3.77407186       25      -0.01718836       0.02797403       0.03637989
O        6.78074370       3.46765449       1.82096188       26      -0.03210362      -0.03494624      -0.01223111
O        3.86881660       2.43813279       4.08348391       27       0.01718836      -0.01751889       0.04241616
O        0.73035493       4.53656194       7.37821763       28       0.01718836       0.04549292      -0.00603627
O        2.40810674      -0.09810687       0.30941204       29      -0.01718836      -0.04549292       0.00603627
O       -3.64228202       0.97080059       5.86666779       30       0.03210362       0.03494624       0.01223111
O        5.38172505       0.83242758       2.06063095       31      -0.03716168       0.01045726       0.03018505
O        1.00908810       1.30626770       5.90444579       32      -0.02224643       0.03155062       0.03018505
O        3.64228202      -1.09159896       5.93641077       33      -0.03210362       0.02806557      -0.02414878
O        2.24326338       0.01845499       3.53440279       34      -0.03716168      -0.03136965      -0.00603627
O        1.00908810      -2.19741639       7.44796061       35      -0.02224643       0.01036571      -0.04241616
O       -0.73035493       2.00032228       3.60414577       36      -0.01718836       0.01751889      -0.04241616
O       -1.00908810      -0.89114869       5.66477672       37       0.02224643       0.04191633      -0.01223111
O       -0.50382035       5.53005403       1.75121891       38       0.03210362      -0.02806557       0.02414878
O        4.03365997       5.28933764       5.59503375       39       0.03716168      -0.02091239       0.02414878
40
Lattice="9.415385025971155 7.379459705814286e-10 9.316466440456745e-15 -3.1384616760194604 8.876910132215992 -1.278188028576746e-09 -3.138461674975856 -4.438455065370028 7.687629682462649" Properties=species:S:1:pos:R:3:spacegroup_kinds:I:1:forces:R:3 spacegroup="P 1" unit_cell=conventional occupancy="_JSON {\"0\": {\"In\": 1}, \"1\": {\"In\": 1}, \"2\": {\"In\": 1}, \"3\": {\"In\": 1}, \"4\": {\"In\": 1}, \"5\": {\"In\": 1}, \"6\": {\"In\": 1}, \"7\": {\"In\": 1}, \"8\": {\"In\": 1}, \"9\": {\"In\": 1}, \"10\": {\"In\": 1}, \"11\": {\"In\": 1}, \"12\": {\"In\": 1}, \"13\": {\"In\": 1}, \"14\": {\"In\": 1}, \"15\": {\"In\": 1}, \"16\": {\"O\": 1}, \"17\": {\"O\": 1}, \"18\": {\"O\": 1}, \"19\": {\"O\": 1}, \"20\": {\"O\": 1}, \"21\": {\"O\": 1}, \"22\": {\"O\": 1}, \"23\": {\"O\": 1}, \"24\": {\"O\": 1}, \"25\": {\"O\": 1}, \"26\": {\"O\": 1}, \"27\": {\"O\": 1}, \"28\": {\"O\": 1}, \"29\": {\"O\": 1}, \"30\": {\"O\": 1}, \"31\": {\"O\": 1}, \"32\": {\"O\": 1}, \"33\": {\"O\": 1}, \"34\": {\"O\": 1}, \"35\": {\"O\": 1}, \"36\": {\"O\": 1}, \"37\": {\"O\": 1}, \"38\": {\"O\": 1}, \"39\": {\"O\": 1}}" n_minim_iter=4 energy=-45148.31733860447 stress="0.031191509376029186 1.8414761896622422e-12 5.835439824705575e-13 1.8414761896622422e-12 0.031191509377480532 -1.2591969954460498e-12 5.835439824705575e-13 -1.2591969954460498e-12 0.03119150937587219" free_energy=-45148.31733860447 pbc="T T T"
In      -4.45003299       3.14664851       6.08128944        0       0.03112919      -0.02201166       0.03812531
In       7.58849467       1.29180656       1.60634024        1      -0.03112919       0.02201166      -0.03812531
In       1.31157132      -0.92742097       5.45015508        2      -0.03112919       0.02201166      -0.03812531
In      -1.56923084      -2.21922753       3.84381484        3       0.00000000      -0.00000000      -0.00000000
In      -1.31157132       4.25626227       3.52824766        4       0.03112919      -0.02201166      -0.03812531
In       4.96535203      -2.96445571       5.76572226        5       0.03112919       0.04402332      -0.00000000
In      -1.31157132       1.47399936       5.76572226        6       0.03112919       0.04402332       0.00000000
In      -1.82689036       7.40291078       1.92190742        7      -0.03112919      -0.04402332       0.00000000
In       4.45003299       0.18219280       4.15938202        8      -0.03112919       0.02201166       0.03812531
In      -1.56923084       4.43845507      -0.00000000        9      -0.00000000      -0.00000000       0.00000000
In       4.45003299       6.83987540       0.31556717       10      -0.03112919       0.02201166       0.03812531
In      -1.31157132      -2.40142033       7.37206250       11       0.03112919      -0.02201166      -0.03812531
In       4.45003299       2.96445571       1.92190742       12      -0.03112919      -0.04402332       0.00000000
In       1.82689036       5.36587604       2.23747459       13       0.03112919      -0.02201166       0.03812531
In       4.70769251       0.00000000      -0.00000000       14      -0.00000000      -0.00000000      -0.00000000
In       1.56923084       2.21922754       3.84381484       15       0.00000000      -0.00000000       0.00000000
O        0.90276908       4.42003010       4.14409914       16       0.03908702       0.03432660       0.06222478
O       -2.23569259       3.59810762       5.63153660       17       0.03908702       0.03672494      -0.06084010
O       -0.50873538       2.37696446       0.05898892       18       0.08001704       0.00778304      -0.01071126
O       -0.90276908      -0.85877242       2.08800606       19      -0.03908702       0.07105154       0.00138468
O        4.13755926       5.33128476       2.02901714       20       0.02159560      -0.07723569       0.01209594
O        2.13936409       3.12768952       1.78772176       21      -0.02159560      -0.04909324      -0.06084010
O        2.13936409       6.64205031       0.24129538       22      -0.02159560      -0.02814245       0.07293604
O       -2.41060204       6.34500143       3.90280376       23       0.01933442      -0.07803513      -0.01071126
O        3.64719705       2.06149061       7.62864076       24      -0.08001704      -0.00778304       0.01071126
O        5.54906372      -1.90654635       3.78482592       25      -0.01933442       0.07803513       0.01071126
O        6.78565872       3.45879567       1.81479769       26      -0.08001704      -0.00538470      -0.01209594
O        3.86632131       2.42665403       4.08511022       27       0.01933442       0.02974134       0.07293604
O        0.72785963       4.54370975       7.38734538       28       0.01933442       0.04829379      -0.06222478
O        2.41060204      -0.10525468       0.30028430       29      -0.01933442      -0.04829379       0.06222478
O       -3.64719705       0.97965940       5.87283198       30       0.08001704       0.00538470       0.01209594
O        5.37415427       0.84034745       2.05609307       31      -0.03908702      -0.03672494       0.06084010
O        0.99909758       1.31076555       5.89990792       32       0.02159560       0.04909324       0.06084010
O        3.64719705      -1.08183120       5.93182090       33      -0.08001704       0.01316775       0.00138468
O        2.23569259       0.01842497       3.54353054       34      -0.03908702      -0.03432660      -0.06222478
O        0.99909758      -2.20359523       7.44633430       35       0.02159560       0.02814245      -0.07293604
O       -0.72785964       2.01180104       3.60251946       36      -0.01933442      -0.02974134      -0.07293604
O       -0.99909759      -0.89282969       5.65861253       37      -0.02159560       0.07723569      -0.01209594
O       -0.50873538       5.52028627       1.75580877       38       0.08001704      -0.01316775      -0.00138468
O        4.04123076       5.29722749       5.59962361       39       0.03908702      -0.07105154      -0.00138468
40
Lattice="9.415385025971153 7.379459705814282e-10 9.31646644045673e-15 -3.1384616760194586 8.876910132215988 -1.2781880285767452e-09 -3.1384616749758543 -4.438455065370026 7.687629682462645" Properties=species:S:1:pos:R:3:spacegroup_kinds:I:1:forces:R:3 spacegroup="P 1" unit_cell=conventional occupancy="_JSON {\"0\": {\"In\": 1}, \"1\": {\"In\": 1}, \"2\": {\"In\": 1}, \"3\": {\"In\": 1}, \"4\": {\"In\": 1}, \"5\": {\"In\": 1}, \"6\": {\"In\": 1}, \"7\": {\"In\": 1}, \"8\": {\"In\": 1}, \"9\": {\"In\": 1}, \"10\": {\"In\": 1}, \"11\": {\"In\": 1}, \"12\": {\"In\": 1}, \"13\": {\"In\": 1}, \"14\": {\"In\": 1}, \"15\": {\"In\": 1}, \"16\": {\"O\": 1}, \"17\": {\"O\": 1}, \"18\": {\"O\": 1}, \"19\": {\"O\": 1}, \"20\": {\"O\": 1}, \"21\": {\"O\": 1}, \"22\": {\"O\": 1}, \"23\": {\"O\": 1}, \"24\": {\"O\": 1}, \"25\": {\"O\": 1}, \"26\": {\"O\": 1}, \"27\": {\"O\": 1}, \"28\": {\"O\": 1}, \"29\": {\"O\": 1}, \"30\": {\"O\": 1}, \"31\": {\"O\": 1}, \"32\": {\"O\": 1}, \"33\": {\"O\": 1}, \"34\": {\"O\": 1}, \"35\": {\"O\": 1}, \"36\": {\"O\": 1}, \"37\": {\"O\": 1}, \"38\": {\"O\": 1}, \"39\": {\"O\": 1}}" n_minim_iter=5 energy=-45148.3293321181 stress="0.03222912164980219 -9.173296666771113e-13 -6.417219635070932e-14 -9.173296666771113e-13 0.032229121651404194 -6.786902564416191e-13 -6.417219635070932e-14 -6.786902564416191e-13 0.032229121651061406" free_energy=-45148.3293321181 pbc="T T T"
In      -4.44392228       3.14232758       6.08877350        0      -0.00501346       0.00354505      -0.00614020
In       7.58238395       1.29612749       1.59885618        1       0.00501346      -0.00354505       0.00614020
In       1.30546060      -0.92310004       5.44267102        2       0.00501346      -0.00354505       0.00614020
In      -1.56923084      -2.21922753       3.84381484        3      -0.00000000      -0.00000000      -0.00000000
In      -1.30546061       4.25194135       3.52076360        4      -0.00501346       0.00354505       0.00614020
In       4.97146275      -2.95581385       5.76572226        5      -0.00501346      -0.00709010      -0.00000000
In      -1.30546060       1.48264121       5.76572226        6      -0.00501346      -0.00709010       0.00000000
In      -1.83300107       7.39426892       1.92190742        7       0.00501346       0.00709010       0.00000000
In       4.44392228       0.18651372       4.16686608        8       0.00501346      -0.00354505      -0.00614020
In      -1.56923084       4.43845507      -0.00000000        9      -0.00000000      -0.00000000       0.00000000
In       4.44392228       6.84419632       0.32305124       10       0.00501346      -0.00354505      -0.00614020
In      -1.30546060      -2.40574125       7.36457844       11      -0.00501346       0.00354505       0.00614020
In       4.44392228       2.95581386       1.92190742       12       0.00501346       0.00709010       0.00000000
In       1.83300107       5.36155511       2.24495866       13      -0.00501346       0.00354505      -0.00614020
In       4.70769251       0.00000000      -0.00000000       14       0.00000000       0.00000000       0.00000000
In       1.56923084       2.21922754       3.84381484       15       0.00000000       0.00000000      -0.00000000
O        0.90883853       4.42555699       4.14876068       16       0.03692725      -0.04386830       0.01399264
O       -2.22962315       3.59938119       5.62441940       17       0.03692725       0.03405213       0.03099475
O       -0.50030069       2.37656555       0.05476853       18       0.00305431       0.05800391      -0.01049096
O       -0.90883853      -0.85197196       2.08555041       19      -0.03692725      -0.00981617       0.04498738
O        4.13673684       5.32204765       2.03078187       20       0.01979557       0.00375921       0.05547835
O        2.14018650       3.12154267       1.78060456       21      -0.01979557      -0.04616605       0.03099475
O        2.14018650       6.63896005       0.25017731       22      -0.01979557       0.04992526       0.02448360
O       -2.40741439       6.33718210       3.89858337       23      -0.05366851      -0.02221427      -0.01049096
O        3.63876236       2.06188952       7.63286114       24      -0.00305431      -0.05800391       0.01049096
O        5.54587606      -1.89872703       3.78904630       25       0.05366851       0.02221427       0.01049096
O        6.77722404       3.45494125       1.81303296       26      -0.00305431       0.01991652      -0.05547835
O        3.86950896       2.42690873       4.09399215       27      -0.05366851       0.00202169       0.02448360
O        0.73104729       4.55127438       7.38268383       28      -0.05366851       0.02019257      -0.01399264
O        2.40741439      -0.11281931       0.30494584       29       0.05366851      -0.02019257       0.01399264
O       -3.63876237       0.98351382       5.87459671       30       0.00305431      -0.01991652       0.05547835
O        5.36808482       0.83907388       2.06321028       31      -0.03692725      -0.03405213      -0.03099475
O        0.99827517       1.31691240       5.90702512       32       0.01979557       0.04616605      -0.03099475
O        3.63876236      -1.07837570       5.92936525       33      -0.00305431       0.03808740       0.04498738
O        2.22962315       0.01289808       3.53886899       34      -0.03692725       0.04386830      -0.01399264
O        0.99827517      -2.20050498       7.43745237       35       0.01979557      -0.04992526      -0.02448360
O       -0.73104729       2.01154634       3.59363753       36       0.05366851      -0.00202169      -0.02448360
O       -0.99827517      -0.88359258       5.65684781       37      -0.01979557      -0.00375921      -0.05547835
O       -0.50030069       5.51683077       1.75826443       38       0.00305431      -0.03808740      -0.04498738
O        4.04730020       5.29042703       5.60207927       39       0.03692725       0.00981617      -0.04498738
40