40
Lattice="8.195825373292775 6.423627339005562e-10 3.017745430850145e-14 -2.731941791703222 7.72709826495401 -1.1126295996350371e-09 -2.7319417907948065 -3.863549131834628 6.691863395730561" Properties=species:S:1:pos:R:3:spacegroup_kinds:I:1:forces:R:3 spacegroup="P 1" unit_cell=conventional occupancy="_JSON {\"0\": {\"In\": 1}, \"1\": {\"In\": 1}, \"2\": {\"In\": 1}, \"3\": {\"In\": 1}, \"4\": {\"In\": 1}, \"5\": {\"In\": 1}, \"6\": {\"In\": 1}, \"7\": {\"In\": 1}, \"8\": {\"In\": 1}, \"9\": {\"In\": 1}, \"10\": {\"In\": 1}, \"11\": {\"In\": 1}, \"12\": {\"In\": 1}, \"13\": {\"In\": 1}, \"14\": {\"In\": 1}, \"15\": {\"In\": 1}, \"16\": {\"O\": 1}, \"17\": {\"O\": 1}, \"18\": {\"O\": 1}, \"19\": {\"O\": 1}, \"20\": {\"O\": 1}, \"21\": {\"O\": 1}, \"22\": {\"O\": 1}, \"23\": {\"O\": 1}, \"24\": {\"O\": 1}, \"25\": {\"O\": 1}, \"26\": {\"O\": 1}, \"27\": {\"O\": 1}, \"28\": {\"O\": 1}, \"29\": {\"O\": 1}, \"30\": {\"O\": 1}, \"31\": {\"O\": 1}, \"32\": {\"O\": 1}, \"33\": {\"O\": 1}, \"34\": {\"O\": 1}, \"35\": {\"O\": 1}, \"36\": {\"O\": 1}, \"37\": {\"O\": 1}, \"38\": {\"O\": 1}, \"39\": {\"O\": 1}}" n_minim_iter=9 energy=-45151.06873862605 stress="-0.09024743853296044 1.357686636324348e-12 -6.363368719708716e-13 1.357686636324348e-12 -0.09024743853145713 7.198507634838222e-13 -6.363368719708716e-13 7.198507634838222e-13 -0.09024743853118627" free_energy=-45151.06873862605 pbc="T T T"
In      -3.90022077       2.75787255       5.26101971        0       0.00040703      -0.00028781       0.00049850
In       6.63216256       1.10567658       1.43084368        1      -0.00040703       0.00028781      -0.00049850
In       1.16827897      -0.82609798       4.77677538        2      -0.00040703       0.00028781      -0.00049850
In      -1.36597090      -1.93177456       3.34593170        3       0.00000000       0.00000000       0.00000000
In      -1.16827898       3.72375984       3.10380953        4       0.00040703      -0.00028781      -0.00049850
In       4.29560461      -2.61808325       5.01889754        5       0.00040703       0.00057562       0.00000000
In      -1.16827898       1.24546588       5.01889754        6       0.00040703       0.00057562       0.00000000
In      -1.56366282       6.48163239       1.67296585        7      -0.00040703      -0.00057562      -0.00000000
In       3.90022076       0.13978930       3.58805386        8      -0.00040703       0.00028781       0.00049850
In      -1.36597090       3.86354913      -0.00000000        9      -0.00000000      -0.00000000       0.00000000
In       3.90022076       5.93511300       0.24212216       10      -0.00040703       0.00028781       0.00049850
In      -1.16827898      -2.07156386       6.44974123       11       0.00040703      -0.00028781      -0.00049850
In       3.90022076       2.61808326       1.67296585       12      -0.00040703      -0.00057562      -0.00000000
In       1.56366281       4.68964712       1.91508801       13       0.00040703      -0.00028781       0.00049850
In       4.09791269       0.00000000      -0.00000000       14      -0.00000000       0.00000000      -0.00000000
In       1.36597089       1.93177457       3.34593170       15       0.00000000       0.00000000       0.00000000
O        0.84565545       3.87068535       3.65274730       16       0.00058376      -0.00300665      -0.00075214
O       -1.88628634       3.15980385       4.85930960       17       0.00058376       0.00085195       0.00297991
O       -0.37488418       2.09108113       0.01852825       18      -0.00183688       0.00256360       0.00001524
O       -0.84565545      -0.69660906       1.82019351       19      -0.00058376      -0.00215470       0.00222776
O        3.60785375       4.57085549       1.80166525       20       0.00060864       0.00216350       0.00221253
O        1.85602983       2.65691443       1.51337790       21      -0.00060864      -0.00083436       0.00297991
O        1.85602983       5.77749019       0.28828735       22      -0.00060864       0.00299785      -0.00076738
O       -2.09645159       5.45174085       3.36445995       23      -0.00302928       0.00087729       0.00001524
O        3.10682597       1.77246800       6.67333514       24       0.00183688      -0.00256360      -0.00001524
O        4.82839338      -1.58819171       3.32740344       25       0.00302928      -0.00087729      -0.00001524
O        5.83876776       2.99336107       1.54426644       26       0.00183688       0.00129500      -0.00221253
O        3.36743199       2.11961193       3.63421905       27      -0.00302928      -0.00042545      -0.00076738
O        0.63549020       4.01929462       6.38504779       28      -0.00302928      -0.00045184       0.00075214
O        2.09645159      -0.15574549       0.30681560       29       0.00302928       0.00045184      -0.00075214
O       -3.10682597       0.87018806       5.14759695       30      -0.00183688      -0.00129500       0.00221253
O        4.61822813       0.70374528       1.83255379       31      -0.00058376      -0.00085195      -0.00297991
O        0.87591196       1.20663470       5.17848549       32       0.00060864       0.00083436      -0.00297991
O        3.10682597      -0.90227994       5.16612520       33       0.00183688       0.00126861       0.00222776
O        1.88628634      -0.00713621       3.03911609       34      -0.00058376       0.00300665       0.00075214
O        0.87591196      -1.91394106       6.40357604       35       0.00060864      -0.00299785       0.00076738
O       -0.63549020       1.74393720       3.05764434       36       0.00302928       0.00042545       0.00076738
O       -0.87591196      -0.70730636       4.89019814       37      -0.00060864      -0.00216350      -0.00221253
O       -0.37488418       4.76582907       1.52573819       38      -0.00183688      -0.00126861      -0.00222776
O        3.57759724       4.56015820       4.87166988       39       0.00058376       0.00215470      -0.00222776
