40
Lattice="8.452109291599667 6.624529110828747e-10 2.284967766300547e-14 -2.8173697644911235 7.968725060339118 -1.1474196443732896e-09 -2.8173697635542925 -3.984362529507097 6.901118338792294" Properties=species:S:1:pos:R:3:spacegroup_kinds:I:1:forces:R:3 spacegroup="P 1" unit_cell=conventional occupancy="_JSON {\"0\": {\"In\": 1}, \"1\": {\"In\": 1}, \"2\": {\"In\": 1}, \"3\": {\"In\": 1}, \"4\": {\"In\": 1}, \"5\": {\"In\": 1}, \"6\": {\"In\": 1}, \"7\": {\"In\": 1}, \"8\": {\"In\": 1}, \"9\": {\"In\": 1}, \"10\": {\"In\": 1}, \"11\": {\"In\": 1}, \"12\": {\"In\": 1}, \"13\": {\"In\": 1}, \"14\": {\"In\": 1}, \"15\": {\"In\": 1}, \"16\": {\"O\": 1}, \"17\": {\"O\": 1}, \"18\": {\"O\": 1}, \"19\": {\"O\": 1}, \"20\": {\"O\": 1}, \"21\": {\"O\": 1}, \"22\": {\"O\": 1}, \"23\": {\"O\": 1}, \"24\": {\"O\": 1}, \"25\": {\"O\": 1}, \"26\": {\"O\": 1}, \"27\": {\"O\": 1}, \"28\": {\"O\": 1}, \"29\": {\"O\": 1}, \"30\": {\"O\": 1}, \"31\": {\"O\": 1}, \"32\": {\"O\": 1}, \"33\": {\"O\": 1}, \"34\": {\"O\": 1}, \"35\": {\"O\": 1}, \"36\": {\"O\": 1}, \"37\": {\"O\": 1}, \"38\": {\"O\": 1}, \"39\": {\"O\": 1}}" n_minim_iter=5 energy=-45151.473748594704 stress="0.03306859755215231 1.57905127351354e-12 1.2650984341042314e-12 1.57905127351354e-12 0.03306859755454834 -3.940617920254578e-13 1.2650984341042314e-12 -3.940617920254578e-13 0.03306859755183115" free_energy=-45151.473748594704 pbc="T T T"
In      -4.00926726       2.83498006       5.44134800        0       0.00239354      -0.00169249       0.00293147
In       6.82663702       1.14938247       1.45977034        1      -0.00239354       0.00169249      -0.00293147
In       1.19189749      -0.84279880       4.91032950        2      -0.00239354       0.00169249      -0.00293147
In      -1.40868488      -1.99218126       3.45055917        3       0.00000000      -0.00000000      -0.00000000
In      -1.19189749       3.83107070       3.18504992        4       0.00239354      -0.00169249      -0.00293147
In       4.44284204      -2.68168823       5.17583875        5       0.00239354       0.00338497      -0.00000000
In      -1.19189749       1.30267430       5.17583875        6       0.00239354       0.00338497       0.00000000
In      -1.62547228       6.66605076       1.72527958        7      -0.00239354      -0.00338497       0.00000000
In       4.00926725       0.15329184       3.71606841        8      -0.00239354       0.00169249       0.00293147
In      -1.40868488       3.98436253      -0.00000000        9       0.00000000      -0.00000000       0.00000000
In       4.00926725       6.12983563       0.26550924       10      -0.00239354       0.00169249       0.00293147
In      -1.19189749      -2.14547310       6.63560909       11       0.00239354      -0.00169249      -0.00293147
In       4.00926725       2.68168823       1.72527958       12      -0.00239354      -0.00338497       0.00000000
In       1.62547227       4.82716133       1.99078883       13       0.00239354      -0.00169249       0.00293147
In       4.22605464       0.00000000      -0.00000000       14      -0.00000000      -0.00000000      -0.00000000
In       1.40868488       1.99218127       3.45055917       15      -0.00000000      -0.00000000      -0.00000000
O        0.92890488       3.99535135       3.74923658       16      -0.00708299       0.00399668       0.00160953
O       -1.88846489       3.24143971       5.01698345       17      -0.00708299      -0.00060445      -0.00426599
O       -0.38043903       2.17510441      -0.03718796       18       0.00083723      -0.00620489       0.00543426
O       -0.92890488      -0.73193399       1.86510169       19       0.00708299       0.00339223      -0.00265646
O        3.68554696       4.69482605       1.90228964       20       0.00179112      -0.00025476      -0.00809072
O        1.94919256       2.69216313       1.56642428       21      -0.00179112       0.00687939      -0.00426599
O        1.94919256       5.98702545       0.33586536       22      -0.00179112      -0.00713415      -0.00382473
O       -2.17752111       5.61019035       3.41337121       23       0.00612910       0.00127895       0.00543426
O        3.19780879       1.80925813       6.93830629       24      -0.00083723       0.00620489      -0.00543426
O        4.99489087      -1.62582782       3.48774712       25      -0.00612910      -0.00127895      -0.00543426
O        6.01517856       3.04752775       1.54826952       26      -0.00083723       0.00160376       0.00809072
O        3.45721842       2.14315227       3.78642453       27       0.00612910       0.00406673      -0.00382473
O        0.63984865       4.19974497       6.60244092       28       0.00612910      -0.00534568      -0.00160953
O        2.17752111      -0.21538244       0.29867741       29      -0.00612910       0.00534568       0.00160953
O       -3.19780879       0.93683478       5.35284881       30       0.00083723      -0.00160376      -0.00809072
O        4.70583465       0.74292282       1.88413489       31       0.00708299       0.00060445       0.00426599
O        0.86817720       1.29219940       5.33469406       32       0.00179112      -0.00687939       0.00426599
O        3.19780879      -0.87242335       5.31566086       33      -0.00083723      -0.00780865      -0.00265646
O        1.88846488      -0.01098882       3.15188176       34       0.00708299      -0.00399668      -0.00160953
O        0.86817720      -2.00266292       6.56525297       35       0.00179112       0.00713415       0.00382473
O       -0.63984866       1.84121026       3.11469380       36      -0.00612910      -0.00406673       0.00382473
O       -0.86817720      -0.71046352       4.99882869       37      -0.00179112       0.00025476       0.00809072
O       -0.38043903       4.85678588       1.58545747       38       0.00083723       0.00780865       0.00265646
O        3.74627464       4.71629653       5.03601664       39      -0.00708299      -0.00339223       0.00265646
