40
Lattice="9.547085789813655 7.482660108705772e-10 7.130992472496123e-15 -3.18236193064336 9.001078803146518 -1.296068757274672e-09 -3.182361929585157 -4.500539400824964 7.795162905854563" Properties=species:S:1:pos:R:3:spacegroup_kinds:I:1:forces:R:3 spacegroup="P 1" unit_cell=conventional occupancy="_JSON {\"0\": {\"In\": 1}, \"1\": {\"In\": 1}, \"2\": {\"In\": 1}, \"3\": {\"In\": 1}, \"4\": {\"In\": 1}, \"5\": {\"In\": 1}, \"6\": {\"In\": 1}, \"7\": {\"In\": 1}, \"8\": {\"In\": 1}, \"9\": {\"In\": 1}, \"10\": {\"In\": 1}, \"11\": {\"In\": 1}, \"12\": {\"In\": 1}, \"13\": {\"In\": 1}, \"14\": {\"In\": 1}, \"15\": {\"In\": 1}, \"16\": {\"O\": 1}, \"17\": {\"O\": 1}, \"18\": {\"O\": 1}, \"19\": {\"O\": 1}, \"20\": {\"O\": 1}, \"21\": {\"O\": 1}, \"22\": {\"O\": 1}, \"23\": {\"O\": 1}, \"24\": {\"O\": 1}, \"25\": {\"O\": 1}, \"26\": {\"O\": 1}, \"27\": {\"O\": 1}, \"28\": {\"O\": 1}, \"29\": {\"O\": 1}, \"30\": {\"O\": 1}, \"31\": {\"O\": 1}, \"32\": {\"O\": 1}, \"33\": {\"O\": 1}, \"34\": {\"O\": 1}, \"35\": {\"O\": 1}, \"36\": {\"O\": 1}, \"37\": {\"O\": 1}, \"38\": {\"O\": 1}, \"39\": {\"O\": 1}}" n_minim_iter=10 energy=-45148.025285543226 stress="0.01291874400881325 -2.0976262005607744e-12 -1.8169711678689553e-13 -2.0976262005607744e-12 0.012918744006705203 -6.993145406671425e-13 -1.8169711678689553e-13 -6.993145406671425e-13 0.01291874400796397" free_energy=-45148.025285543226 pbc="T T T"
In      -4.49835427       3.18081681       6.18340804        0      -0.00045109       0.00031897      -0.00055247
In       7.68071620       1.31972260       1.61175486        1       0.00045109      -0.00031897       0.00055247
In       1.31599234      -0.93054710       5.50933632        2       0.00045109      -0.00031897       0.00055247
In      -1.59118097      -2.25026970       3.89758145        3      -0.00000000       0.00000000       0.00000000
In      -1.31599234       4.30595166       3.56054559        4      -0.00045109       0.00031897       0.00055247
In       5.04873152      -2.98622906       5.84637218        5      -0.00045109      -0.00063793       0.00000000
In      -1.31599234       1.51431034       5.84637218        6      -0.00045109      -0.00063793      -0.00000000
In      -1.86636960       7.48676846       1.94879072        7       0.00045109       0.00063793      -0.00000000
In       4.49835427       0.19458775       4.23461731        8       0.00045109      -0.00031897      -0.00055247
In      -1.59118097       4.50053940      -0.00000000        9      -0.00000000       0.00000000       0.00000000
In       4.49835426       6.94539685       0.33703586       10       0.00045109      -0.00031897      -0.00055247
In      -1.31599234      -2.44485744       7.45812704       11      -0.00045109       0.00031897       0.00055247
In       4.49835427       2.98622906       1.94879072       12       0.00045109       0.00063793      -0.00000000
In       1.86636959       5.43108651       2.28582658       13      -0.00045109       0.00031897      -0.00055247
In       4.77354289       0.00000000      -0.00000000       14      -0.00000000       0.00000000       0.00000000
In       1.59118096       2.25026970       3.89758145       15      -0.00000000      -0.00000000       0.00000000
O        1.01539906       4.48498355       4.18842006       16       0.00075079       0.00006289      -0.00058661
O       -2.16696287       3.63505611       5.71442463       17       0.00075079      -0.00053947       0.00023884
O       -0.49218532       2.45080954      -0.02956306       18      -0.00019906       0.00013217      -0.00092448
O       -1.01539906      -0.88103915       2.10768179       19      -0.00075079      -0.00047658      -0.00034778
O        4.14948472       5.36451031       2.13724485       20      -0.00075888      -0.00005717       0.00057671
O        2.21523914       3.08161652       1.81684318       21       0.00075888      -0.00052803       0.00023884
O        2.21523914       6.78343319       0.32040167       22       0.00075888       0.00047086       0.00033787
O       -2.47470717       6.39790936       3.86801839       23      -0.00019097       0.00014361      -0.00092448
O        3.67454725       2.04972986       7.82472596       24       0.00019906      -0.00013217       0.00092448
O        5.65706910      -1.89736996       3.92714451       25       0.00019097      -0.00014361       0.00092448
O        6.85690918       3.45007212       1.76033660       26       0.00019906      -0.00073454      -0.00057671
O        3.89001669       2.40111722       4.21798312       27      -0.00019097      -0.00087243       0.00033787
O        0.70765476       4.70259163       7.50432429       28      -0.00019097       0.00072882       0.00058662
O        2.47470717      -0.20205223       0.29083861       29       0.00019097      -0.00072882      -0.00058661
O       -3.67454725       1.05046729       6.03482630       30      -0.00019906       0.00073454       0.00057671
O        5.34932480       0.86548330       2.08073827       31      -0.00075079       0.00053947      -0.00023884
O        0.96712279       1.41892288       5.97831972       32      -0.00075888       0.00052803      -0.00023884
O        3.67454725      -0.99926257       6.00526325       33       0.00019906       0.00086671      -0.00034778
O        2.16696287       0.01555585       3.60674284       34      -0.00075079      -0.00006289       0.00058661
O        0.96712279      -2.28289379       7.47476123       35      -0.00075888      -0.00047086      -0.00033787
O       -0.70765476       2.09942219       3.57717978       36       0.00019097       0.00087243      -0.00033787
O       -0.96712279      -0.86397091       5.65791805       37       0.00075888       0.00005717      -0.00057671
O       -0.49218533       5.49980198       1.78989965       38      -0.00019906      -0.00086671       0.00034778
O        4.19776099       5.38157855       5.68748111       39       0.00075079       0.00047658       0.00034778
