40
Lattice="9.547085789813652 7.482665516940904e-10 1.0366642836963065e-14 -3.182361930643356 9.001078803146523 -1.2960771760736772e-09 -3.182361929585156 -4.500539400824964 7.795162905854559" Properties=species:S:1:pos:R:3:spacegroup_kinds:I:1:forces:R:3 spacegroup="P 1" unit_cell=conventional occupancy="_JSON {\"0\": {\"In\": 1}, \"1\": {\"In\": 1}, \"2\": {\"In\": 1}, \"3\": {\"In\": 1}, \"4\": {\"In\": 1}, \"5\": {\"In\": 1}, \"6\": {\"In\": 1}, \"7\": {\"In\": 1}, \"8\": {\"In\": 1}, \"9\": {\"In\": 1}, \"10\": {\"In\": 1}, \"11\": {\"In\": 1}, \"12\": {\"In\": 1}, \"13\": {\"In\": 1}, \"14\": {\"In\": 1}, \"15\": {\"In\": 1}, \"16\": {\"O\": 1}, \"17\": {\"O\": 1}, \"18\": {\"O\": 1}, \"19\": {\"O\": 1}, \"20\": {\"O\": 1}, \"21\": {\"O\": 1}, \"22\": {\"O\": 1}, \"23\": {\"O\": 1}, \"24\": {\"O\": 1}, \"25\": {\"O\": 1}, \"26\": {\"O\": 1}, \"27\": {\"O\": 1}, \"28\": {\"O\": 1}, \"29\": {\"O\": 1}, \"30\": {\"O\": 1}, \"31\": {\"O\": 1}, \"32\": {\"O\": 1}, \"33\": {\"O\": 1}, \"34\": {\"O\": 1}, \"35\": {\"O\": 1}, \"36\": {\"O\": 1}, \"37\": {\"O\": 1}, \"38\": {\"O\": 1}, \"39\": {\"O\": 1}}" n_minim_iter=1 energy=-45147.858664992105 stress="0.011437857443353152 9.867785997201765e-14 -1.9454158743986174e-13 9.867785997201765e-14 0.01143785744358142 -1.4090708936871916e-13 -1.9454158743986174e-13 -1.4090708936871916e-13 0.01143785744238114" free_energy=-45147.858664992105 pbc="T T T"
In      -4.49835427       3.18081681       6.18340804        0      -0.00260622       0.00184288      -0.00319195
In       7.68071620       1.31972260       1.61175486        1       0.00260622      -0.00184288       0.00319195
In       1.31599234      -0.93054710       5.50933632        2       0.00260622      -0.00184288       0.00319195
In      -1.59118097      -2.25026970       3.89758145        3       0.00000000      -0.00000000       0.00000000
In      -1.31599234       4.30595166       3.56054559        4      -0.00260622       0.00184288       0.00319195
In       5.04873152      -2.98622906       5.84637218        5      -0.00260622      -0.00368575      -0.00000000
In      -1.31599234       1.51431034       5.84637218        6      -0.00260622      -0.00368575      -0.00000000
In      -1.86636960       7.48676846       1.94879072        7       0.00260622       0.00368575       0.00000000
In       4.49835427       0.19458775       4.23461731        8       0.00260622      -0.00184288      -0.00319195
In      -1.59118097       4.50053940      -0.00000000        9      -0.00000000      -0.00000000       0.00000000
In       4.49835426       6.94539685       0.33703586       10       0.00260622      -0.00184288      -0.00319195
In      -1.31599234      -2.44485744       7.45812704       11      -0.00260622       0.00184288       0.00319195
In       4.49835427       2.98622906       1.94879072       12       0.00260622       0.00368575       0.00000000
In       1.86636959       5.43108651       2.28582658       13      -0.00260622       0.00184288      -0.00319195
In       4.77354289       0.00000000      -0.00000000       14      -0.00000000      -0.00000000      -0.00000000
In       1.59118096       2.25026970       3.89758145       15       0.00000000      -0.00000000       0.00000000
O        1.01539906       4.48498355       4.18842006       16       0.11846064      -0.00302331      -0.14841847
O       -2.16696287       3.63505611       5.71442463       17       0.11846064      -0.12702250       0.07682750
O       -0.49218532       2.45080954      -0.02956306       18      -0.08312149       0.01551759      -0.17005918
O       -1.01539906      -0.88103915       2.10768179       19      -0.11846064      -0.13004582      -0.07159097
O        4.14948472       5.36451031       2.13724485       20      -0.15924485       0.03186210       0.09846822
O        2.21523914       3.08161652       1.81684318       21       0.15924485      -0.06934493       0.07682750
O        2.21523914       6.78343319       0.32040167       22       0.15924485       0.10120703       0.02164072
O       -2.47470717       6.39790936       3.86801839       23      -0.04233729       0.07319517      -0.17005918
O        3.67454725       2.04972986       7.82472596       24       0.08312149      -0.01551759       0.17005918
O        5.65706910      -1.89736996       3.92714451       25       0.04233729      -0.07319517       0.17005918
O        6.85690918       3.45007212       1.76033660       26       0.08312149      -0.13951678      -0.09846822
O        3.89001669       2.40111722       4.21798312       27      -0.04233729      -0.18387316       0.02164072
O        0.70765476       4.70259163       7.50432429       28      -0.04233729       0.11067799       0.14841847
O        2.47470717      -0.20205223       0.29083861       29       0.04233729      -0.11067799      -0.14841847
O       -3.67454725       1.05046729       6.03482630       30      -0.08312149       0.13951678       0.09846822
O        5.34932480       0.86548330       2.08073827       31      -0.11846064       0.12702250      -0.07682750
O        0.96712279       1.41892288       5.97831972       32      -0.15924485       0.06934493      -0.07682750
O        3.67454725      -0.99926257       6.00526325       33       0.08312149       0.15503437      -0.07159097
O        2.16696287       0.01555585       3.60674284       34      -0.11846064       0.00302331       0.14841847
O        0.96712279      -2.28289379       7.47476123       35      -0.15924485      -0.10120703      -0.02164072
O       -0.70765476       2.09942219       3.57717978       36       0.04233729       0.18387316      -0.02164072
O       -0.96712279      -0.86397091       5.65791805       37       0.15924485      -0.03186210      -0.09846822
O       -0.49218533       5.49980198       1.78989965       38      -0.08312149      -0.15503437       0.07159097
O        4.19776099       5.38157855       5.68748111       39       0.11846064       0.13004582       0.07159097
40
Lattice="9.547085789813652 7.482665516940904e-10 1.0366642836963065e-14 -3.182361930643356 9.001078803146523 -1.2960771760736772e-09 -3.182361929585156 -4.500539400824964 7.795162905854559" Properties=species:S:1:pos:R:3:spacegroup_kinds:I:1:forces:R:3 spacegroup="P 1" unit_cell=conventional occupancy="_JSON {\"0\": {\"In\": 1}, \"1\": {\"In\": 1}, \"2\": {\"In\": 1}, \"3\": {\"In\": 1}, \"4\": {\"In\": 1}, \"5\": {\"In\": 1}, \"6\": {\"In\": 1}, \"7\": {\"In\": 1}, \"8\": {\"In\": 1}, \"9\": {\"In\": 1}, \"10\": {\"In\": 1}, \"11\": {\"In\": 1}, \"12\": {\"In\": 1}, \"13\": {\"In\": 1}, \"14\": {\"In\": 1}, \"15\": {\"In\": 1}, \"16\": {\"O\": 1}, \"17\": {\"O\": 1}, \"18\": {\"O\": 1}, \"19\": {\"O\": 1}, \"20\": {\"O\": 1}, \"21\": {\"O\": 1}, \"22\": {\"O\": 1}, \"23\": {\"O\": 1}, \"24\": {\"O\": 1}, \"25\": {\"O\": 1}, \"26\": {\"O\": 1}, \"27\": {\"O\": 1}, \"28\": {\"O\": 1}, \"29\": {\"O\": 1}, \"30\": {\"O\": 1}, \"31\": {\"O\": 1}, \"32\": {\"O\": 1}, \"33\": {\"O\": 1}, \"34\": {\"O\": 1}, \"35\": {\"O\": 1}, \"36\": {\"O\": 1}, \"37\": {\"O\": 1}, \"38\": {\"O\": 1}, \"39\": {\"O\": 1}}" n_minim_iter=2 energy=-45147.92241555602 stress="0.003842352613898001 4.638014217104035e-13 -1.2408990988713105e-13 4.638014217104035e-13 0.003842352612980084 -5.863779139422102e-13 -1.2408990988713105e-13 -5.863779139422102e-13 0.0038423526128008533" free_energy=-45147.92241555602 pbc="T T T"
In      -4.49875166       3.18109780       6.18292134        0      -0.01451559       0.01026408      -0.01777790
In       7.68111358       1.31944160       1.61224156        1       0.01451559      -0.01026408       0.01777790
In       1.31638972      -0.93082810       5.50982301        2       0.01451559      -0.01026408       0.01777790
In      -1.59118097      -2.25026970       3.89758145        3       0.00000000      -0.00000000       0.00000000
In      -1.31638973       4.30623265       3.56103229        4      -0.01451559       0.01026408       0.01777790
In       5.04833413      -2.98679105       5.84637218        5      -0.01451559      -0.02052815      -0.00000000
In      -1.31638973       1.51374835       5.84637218        6      -0.01451559      -0.02052815      -0.00000000
In      -1.86597221       7.48733045       1.94879072        7       0.01451559       0.02052815      -0.00000000
In       4.49875165       0.19430675       4.23413061        8       0.01451559      -0.01026408      -0.01777790
In      -1.59118097       4.50053940      -0.00000000        9      -0.00000000      -0.00000000      -0.00000000
In       4.49875165       6.94511585       0.33654916       10       0.01451559      -0.01026408      -0.01777790
In      -1.31638973      -2.44457645       7.45861374       11      -0.01451559       0.01026408       0.01777790
In       4.49875165       2.98679105       1.94879072       12       0.01451559       0.02052815       0.00000000
In       1.86597220       5.43136750       2.28533989       13      -0.01451559       0.01026408      -0.01777790
In       4.77354289       0.00000000      -0.00000000       14      -0.00000000      -0.00000000       0.00000000
In       1.59118096       2.25026970       3.89758145       15      -0.00000000      -0.00000000      -0.00000000
O        1.03346150       4.48452257       4.16578976       16       0.06183284       0.03259975       0.08065029
O       -2.14890043       3.61568818       5.72613901       17       0.06183284       0.05354532      -0.06855736
O       -0.50485939       2.45317561      -0.05549306       18       0.10182930       0.02526355      -0.01957190
O       -1.03346151      -0.90086806       2.09676586       19      -0.06183284       0.08614507       0.01209293
O        4.12520364       5.36936853       2.15225892       20       0.02987207      -0.09744491       0.03166483
O        2.23952021       3.07104306       1.82855756       21      -0.02987207      -0.07614500      -0.06855736
O        2.23952021       6.79886487       0.32370136       22      -0.02987207      -0.02129991       0.10022218
O       -2.48116261       6.40906990       3.84208839       23       0.01012439      -0.10442677      -0.01957190
O        3.68722131       2.04736380       7.85065596       24      -0.10182930      -0.02526355       0.01957190
O        5.66352453      -1.90853049       3.95307451       25      -0.01012439       0.10442677       0.01957190
O        6.86958324       3.42879911       1.74532252       26      -0.10182930      -0.00431798      -0.03166483
O        3.88356125       2.37308091       4.22128282       27       0.01012439       0.03526362       0.10022218
O        0.70119932       4.71946741       7.52695460       28       0.01012439       0.06916315      -0.08065029
O        2.48116260      -0.21892800       0.26820830       29      -0.01012439      -0.06916315       0.08065029
O       -3.68722132       1.07174030       6.04984038       30       0.10182930       0.00431798       0.03166483
O        5.33126235       0.88485123       2.06902389       31      -0.06183284      -0.05354532       0.06855736
O        0.94284171       1.42949634       5.96660534       32       0.02987207       0.07614500       0.06855736
O        3.68722131      -0.97562349       5.99434732       33      -0.10182930       0.02958154       0.01209293
O        2.14890042       0.01601684       3.62937314       34      -0.06183284      -0.03259975      -0.08065029
O        0.94284172      -2.29832547       7.47146154       35       0.02987207       0.02129991      -0.10022218
O       -0.70119933       2.12745850       3.57388008       36      -0.01012439      -0.03526362      -0.10022218
O       -0.94284172      -0.86882913       5.64290398       37      -0.02987207       0.09744491      -0.03166483
O       -0.50485939       5.47616290       1.80081558       38       0.10182930      -0.02958154      -0.01209293
O        4.21582343       5.40140747       5.69839704       39       0.06183284      -0.08614507      -0.01209293
40
Lattice="9.547085789813652 7.482665516940906e-10 1.0366642836963066e-14 -3.182361930643357 9.001078803146523 -1.296077176073677e-09 -3.182361929585157 -4.500539400824964 7.79516290585456" Properties=species:S:1:pos:R:3:spacegroup_kinds:I:1:forces:R:3 spacegroup="P 1" unit_cell=conventional occupancy="_JSON {\"0\": {\"In\": 1}, \"1\": {\"In\": 1}, \"2\": {\"In\": 1}, \"3\": {\"In\": 1}, \"4\": {\"In\": 1}, \"5\": {\"In\": 1}, \"6\": {\"In\": 1}, \"7\": {\"In\": 1}, \"8\": {\"In\": 1}, \"9\": {\"In\": 1}, \"10\": {\"In\": 1}, \"11\": {\"In\": 1}, \"12\": {\"In\": 1}, \"13\": {\"In\": 1}, \"14\": {\"In\": 1}, \"15\": {\"In\": 1}, \"16\": {\"O\": 1}, \"17\": {\"O\": 1}, \"18\": {\"O\": 1}, \"19\": {\"O\": 1}, \"20\": {\"O\": 1}, \"21\": {\"O\": 1}, \"22\": {\"O\": 1}, \"23\": {\"O\": 1}, \"24\": {\"O\": 1}, \"25\": {\"O\": 1}, \"26\": {\"O\": 1}, \"27\": {\"O\": 1}, \"28\": {\"O\": 1}, \"29\": {\"O\": 1}, \"30\": {\"O\": 1}, \"31\": {\"O\": 1}, \"32\": {\"O\": 1}, \"33\": {\"O\": 1}, \"34\": {\"O\": 1}, \"35\": {\"O\": 1}, \"36\": {\"O\": 1}, \"37\": {\"O\": 1}, \"38\": {\"O\": 1}, \"39\": {\"O\": 1}}" n_minim_iter=3 energy=-45147.927875953406 stress="0.005351193574634498 -1.4122450381733968e-12 6.190750919512116e-13 -1.4122450381733968e-12 0.005351193575656725 6.19180521442022e-13 6.190750919512116e-13 6.19180521442022e-13 0.0053511935766925554" free_energy=-45147.927875953406 pbc="T T T"
In      -4.49908698       3.18133491       6.18251065        0      -0.01058384       0.00748391      -0.01296251
In       7.68144891       1.31920449       1.61265225        1       0.01058384      -0.00748391       0.01296251
In       1.31672505      -0.93106521       5.51023370        2       0.01058384      -0.00748391       0.01296251
In      -1.59118097      -2.25026970       3.89758145        3       0.00000000      -0.00000000      -0.00000000
In      -1.31672505       4.30646976       3.56144297        4      -0.01058384       0.00748391       0.01296251
In       5.04799881      -2.98726527       5.84637218        5      -0.01058384      -0.01496781       0.00000000
In      -1.31672505       1.51327413       5.84637218        6      -0.01058384      -0.01496781       0.00000000
In      -1.86563689       7.48780467       1.94879072        7       0.01058384       0.01496781      -0.00000000
In       4.49908698       0.19406964       4.23371993        8       0.01058384      -0.00748391      -0.01296251
In      -1.59118097       4.50053940      -0.00000000        9       0.00000000      -0.00000000      -0.00000000
In       4.49908697       6.94487875       0.33613847       10       0.01058384      -0.00748391      -0.01296251
In      -1.31672505      -2.44433934       7.45902443       11      -0.01058384       0.00748391       0.01296251
In       4.49908698       2.98726527       1.94879072       12       0.01058384       0.01496781       0.00000000
In       1.86563688       5.43160461       2.28492920       13      -0.01058384       0.00748391      -0.01296251
In       4.77354289       0.00000000      -0.00000000       14      -0.00000000      -0.00000000       0.00000000
In       1.59118096       2.25026970       3.89758145       15      -0.00000000      -0.00000000      -0.00000000
O        1.03192434       4.48552085       4.17215259       16       0.07900425       0.01933406       0.01522578
O       -2.15043759       3.62069942       5.72209306       17       0.07900425       0.00351888      -0.02435668
O       -0.49970595       2.45345588      -0.05134473       18       0.04788071       0.02552655      -0.06247508
O       -1.03192434      -0.89485854       2.09908275       19      -0.07900425       0.02285295      -0.00913090
O        4.13044067       5.36575406       2.15042748       20      -0.02301712      -0.05892295       0.05334417
O        2.23428318       3.07082190       1.82451161       21       0.02301712      -0.07565888      -0.02435668
O        2.23428318       6.79547156       0.32591587       22       0.02301712       0.01673594       0.07770086
O       -2.47970903       6.40411777       3.84623672       23      -0.00810642      -0.05365122      -0.06247508
O        3.68206788       2.04708353       7.84650763       24      -0.04788071      -0.02552655       0.06247508
O        5.66207096      -1.90357836       3.94892618       25       0.00810642       0.05365122       0.06247508
O        6.86442981       3.43253180       1.74715397       26      -0.04788071      -0.04134173      -0.05334417
O        3.88501483       2.37914953       4.22349732       27      -0.00810642      -0.02727939       0.07770086
O        0.70265290       4.71835091       7.52059176       28      -0.00810642       0.08093061      -0.01522578
O        2.47970903      -0.21781151       0.27457114       29       0.00810642      -0.08093061       0.01522578
O       -3.68206788       1.06800761       6.04800893       30       0.04788071       0.04134173       0.05334417
O        5.33279952       0.87983999       2.07306984       31      -0.07900425      -0.00351888       0.02435668
O        0.94807874       1.42971750       5.97065129       32      -0.02301712       0.07565888       0.02435668
O        3.68206788      -0.97907592       5.99666420       33      -0.04788071       0.06686828      -0.00913090
O        2.15043759       0.01501856       3.62301031       34      -0.07900425      -0.01933406      -0.01522578
O        0.94807874      -2.29493215       7.46924703       35      -0.02301712      -0.01673594      -0.07770086
O       -0.70265290       2.12138987       3.57166558       36       0.00810642       0.02727939      -0.07770086
O       -0.94807875      -0.86521465       5.64473542       37       0.02301712       0.05892295      -0.05334418
O       -0.49970595       5.47961533       1.79849870       38       0.04788071      -0.06686828       0.00913090
O        4.21428627       5.39539795       5.69608015       39       0.07900425      -0.02285295       0.00913090
40
Lattice="9.547085789813673 7.482665516940925e-10 1.0366642836963107e-14 -3.1823619306433653 9.001078803146543 -1.29607717607368e-09 -3.1823619295851655 -4.500539400824974 7.795162905854579" Properties=species:S:1:pos:R:3:spacegroup_kinds:I:1:forces:R:3 spacegroup="P 1" unit_cell=conventional occupancy="_JSON {\"0\": {\"In\": 1}, \"1\": {\"In\": 1}, \"2\": {\"In\": 1}, \"3\": {\"In\": 1}, \"4\": {\"In\": 1}, \"5\": {\"In\": 1}, \"6\": {\"In\": 1}, \"7\": {\"In\": 1}, \"8\": {\"In\": 1}, \"9\": {\"In\": 1}, \"10\": {\"In\": 1}, \"11\": {\"In\": 1}, \"12\": {\"In\": 1}, \"13\": {\"In\": 1}, \"14\": {\"In\": 1}, \"15\": {\"In\": 1}, \"16\": {\"O\": 1}, \"17\": {\"O\": 1}, \"18\": {\"O\": 1}, \"19\": {\"O\": 1}, \"20\": {\"O\": 1}, \"21\": {\"O\": 1}, \"22\": {\"O\": 1}, \"23\": {\"O\": 1}, \"24\": {\"O\": 1}, \"25\": {\"O\": 1}, \"26\": {\"O\": 1}, \"27\": {\"O\": 1}, \"28\": {\"O\": 1}, \"29\": {\"O\": 1}, \"30\": {\"O\": 1}, \"31\": {\"O\": 1}, \"32\": {\"O\": 1}, \"33\": {\"O\": 1}, \"34\": {\"O\": 1}, \"35\": {\"O\": 1}, \"36\": {\"O\": 1}, \"37\": {\"O\": 1}, \"38\": {\"O\": 1}, \"39\": {\"O\": 1}}" n_minim_iter=4 energy=-45147.98322614816 stress="0.0005777428402228259 -6.465928312838847e-13 -6.899882643629074e-14 -6.465928312838847e-13 0.0005777428403106903 2.0703012393317488e-13 -6.899882643629074e-14 2.0703012393317488e-13 0.0005777428414249856" free_energy=-45147.98322614816 pbc="T T T"
In      -4.50613542       3.18631891       6.17387811        0      -0.05193811       0.03672579      -0.06361093
In       7.68849734       1.31422049       1.62128479        1       0.05193811      -0.03672579       0.06361093
In       1.32377348      -0.93604921       5.51886624        2       0.05193811      -0.03672579       0.06361093
In      -1.59118097      -2.25026970       3.89758145        3       0.00000000      -0.00000000       0.00000000
In      -1.32377349       4.31145376       3.57007551        4      -0.05193811       0.03672579       0.06361093
In       5.04095037      -2.99723326       5.84637218        5      -0.05193811      -0.07345157       0.00000000
In      -1.32377349       1.50330614       5.84637218        6      -0.05193811      -0.07345157       0.00000000
In      -1.85858845       7.49777267       1.94879072        7       0.05193811       0.07345157      -0.00000000
In       4.50613541       0.18908564       4.22508739        8       0.05193811      -0.03672579      -0.06361093
In      -1.59118097       4.50053940      -0.00000000        9      -0.00000000      -0.00000000      -0.00000000
In       4.50613541       6.93989475       0.32750594       10       0.05193811      -0.03672579      -0.06361093
In      -1.32377349      -2.43935534       7.46765696       11      -0.05193811       0.03672579       0.06361093
In       4.50613541       2.99723327       1.94879072       12       0.05193811       0.07345157       0.00000000
In       1.85858844       5.43658861       2.27629666       13      -0.05193811       0.03672579      -0.06361093
In       4.77354289       0.00000000      -0.00000000       14       0.00000000       0.00000000       0.00000000
In       1.59118096       2.25026970       3.89758145       15       0.00000000       0.00000000       0.00000000
O        1.08236309       4.49932558       4.18196978       16      -0.00314320      -0.00298004      -0.01998522
O       -2.09999884       3.62229899       5.70522922       17      -0.00314320      -0.01581768       0.01257340
O       -0.46836972       2.46856297      -0.09160429       18      -0.01877040      -0.00476759      -0.00656593
O       -1.08236310      -0.87945424       2.09203609       19       0.00314320      -0.01879773      -0.00741181
O        4.11513584       5.32710589       2.18364038       20      -0.01386532       0.01500689      -0.00084589
O        2.24958801       3.02273460       1.80764776       21       0.01386532       0.00823600       0.01257340
O        2.24958801       6.80491069       0.37599262       22       0.01386532       0.00677088      -0.01341929
O       -2.48350673       6.36953798       3.80597716       23      -0.00176188       0.01928610      -0.00656593
O        3.65073164       2.03197644       7.88676719       24       0.01877040       0.00476759       0.00656593
O        5.66586865      -1.86899858       3.98918574       25       0.00176188      -0.01928610       0.00656593
O        6.83309357       3.40521955       1.71394106       26       0.01877040      -0.00807005       0.00084589
O        3.88121713       2.36157362       4.27357407       27      -0.00176188      -0.01532931      -0.01341929
O        0.69885520       4.77050661       7.51077457       28      -0.00176188      -0.00395679       0.01998522
O        2.48350672      -0.26996720       0.28438833       29       0.00176188       0.00395679      -0.01998522
O       -3.65073165       1.09531986       6.08122184       30      -0.01877040       0.00807005      -0.00084589
O        5.28236076       0.87824042       2.08993368       31       0.00314320       0.01581768      -0.01257340
O        0.93277391       1.47780481       5.98751514       32      -0.01386532      -0.00823600      -0.01257340
O        3.65073164      -0.93665657       5.98961755       33       0.01877040       0.00330247      -0.00741181
O        2.09999883       0.00121383       3.61319312       34       0.00314320       0.00298004       0.01998522
O        0.93277391      -2.30437129       7.41917028       35      -0.01386532      -0.00677088       0.01341929
O       -0.69885521       2.13896579       3.52158883       36       0.00176188       0.01532931       0.01341929
O       -0.93277392      -0.82656648       5.61152252       37       0.01386532      -0.01500689       0.00084589
O       -0.46836972       5.43719598       1.80554535       38      -0.01877040      -0.00330247       0.00741181
O        4.26472502       5.37999365       5.70312681       39      -0.00314320       0.01879773       0.00741182
40
Lattice="9.547085789813673 7.482665516940929e-10 1.0366642836963134e-14 -3.1823619306433666 9.001078803146546 -1.2960771760736805e-09 -3.182361929585167 -4.500539400824976 7.795162905854583" Properties=species:S:1:pos:R:3:spacegroup_kinds:I:1:forces:R:3 spacegroup="P 1" unit_cell=conventional occupancy="_JSON {\"0\": {\"In\": 1}, \"1\": {\"In\": 1}, \"2\": {\"In\": 1}, \"3\": {\"In\": 1}, \"4\": {\"In\": 1}, \"5\": {\"In\": 1}, \"6\": {\"In\": 1}, \"7\": {\"In\": 1}, \"8\": {\"In\": 1}, \"9\": {\"In\": 1}, \"10\": {\"In\": 1}, \"11\": {\"In\": 1}, \"12\": {\"In\": 1}, \"13\": {\"In\": 1}, \"14\": {\"In\": 1}, \"15\": {\"In\": 1}, \"16\": {\"O\": 1}, \"17\": {\"O\": 1}, \"18\": {\"O\": 1}, \"19\": {\"O\": 1}, \"20\": {\"O\": 1}, \"21\": {\"O\": 1}, \"22\": {\"O\": 1}, \"23\": {\"O\": 1}, \"24\": {\"O\": 1}, \"25\": {\"O\": 1}, \"26\": {\"O\": 1}, \"27\": {\"O\": 1}, \"28\": {\"O\": 1}, \"29\": {\"O\": 1}, \"30\": {\"O\": 1}, \"31\": {\"O\": 1}, \"32\": {\"O\": 1}, \"33\": {\"O\": 1}, \"34\": {\"O\": 1}, \"35\": {\"O\": 1}, \"36\": {\"O\": 1}, \"37\": {\"O\": 1}, \"38\": {\"O\": 1}, \"39\": {\"O\": 1}}" n_minim_iter=5 energy=-45147.98670876521 stress="-0.0017908954536898878 8.65243443829657e-13 -1.715445751751233e-13 8.65243443829657e-13 -0.0017908954533250097 3.7453373941080186e-13 -1.715445751751233e-13 3.7453373941080186e-13 -0.0017908954556001791" free_energy=-45147.98670876521 pbc="T T T"
In      -4.50949586       3.18869510       6.16976243        0      -0.05076458       0.03589598      -0.06217366
In       7.69185779       1.31184430       1.62540047        1       0.05076458      -0.03589598       0.06217366
In       1.32713393      -0.93842540       5.52298192        2       0.05076458      -0.03589598       0.06217366
In      -1.59118097      -2.25026970       3.89758145        3       0.00000000       0.00000000      -0.00000000
In      -1.32713393       4.31382995       3.57419120        4      -0.05076458       0.03589598       0.06217366
In       5.03758993      -3.00198565       5.84637218        5      -0.05076458      -0.07179196       0.00000000
In      -1.32713393       1.49855375       5.84637218        6      -0.05076458      -0.07179196       0.00000000
In      -1.85522800       7.50252506       1.94879072        7       0.05076458       0.07179196      -0.00000000
In       4.50949586       0.18670945       4.22097170        8       0.05076458      -0.03589598      -0.06217366
In      -1.59118097       4.50053940      -0.00000000        9       0.00000000       0.00000000      -0.00000000
In       4.50949586       6.93751855       0.32339025       10       0.05076458      -0.03589598      -0.06217366
In      -1.32713393      -2.43697915       7.47177265       11      -0.05076458       0.03589598       0.06217366
In       4.50949586       3.00198565       1.94879072       12       0.05076458       0.07179196      -0.00000000
In       1.85522800       5.43896480       2.27218098       13      -0.05076458       0.03589598      -0.06217366
In       4.77354289       0.00000000      -0.00000000       14       0.00000000       0.00000000      -0.00000000
In       1.59118096       2.25026970       3.89758145       15       0.00000000       0.00000000       0.00000000
O        1.09155351       4.50093422       4.17889846       16      -0.02132265       0.00576710       0.02152161
O       -2.09080842       3.61883483       5.70537175       17      -0.02132265       0.01575471      -0.01575527
O       -0.46705565       2.47066823      -0.10110827       18       0.01318341      -0.00864476       0.02650586
O       -1.09155351      -0.88130976       2.08910731       19       0.02132265       0.02152182       0.00576635
O        4.10880633       5.32347428       2.19021558       20       0.02196123      -0.00621865      -0.02073951
O        2.25591753       3.01522451       1.80779030       21      -0.02196123       0.01485162      -0.01575526
O        2.25591753       6.80878918       0.38242528       22      -0.02196123      -0.02107027      -0.00498424
O       -2.48505356       6.36759731       3.79647318       23       0.01254483      -0.00954785       0.02650586
O        3.64941757       2.02987118       7.89627117       24      -0.01318341       0.00864476      -0.02650586
O        5.66741549      -1.86705791       3.99868972       25      -0.01254483       0.00954785      -0.02650586
O        6.83177950       3.39804149       1.70736587       26      -0.01318341       0.01863237       0.02073951
O        3.87967030       2.35431327       4.28000673       27       0.01254483       0.02772867      -0.00498424
O        0.69730837       4.77970763       7.51384589       28       0.01254483      -0.01818082      -0.02152161
O        2.48505356      -0.27916822       0.28131701       29      -0.01254483       0.01818082       0.02152161
O       -3.64941758       1.10249792       6.08779703       30       0.01318341      -0.01863237      -0.02073951
O        5.27317035       0.88170458       2.08979115       31       0.02132265      -0.01575471       0.01575527
O        0.92644440       1.48531490       5.98737260       32       0.02196123      -0.01485162       0.01575527
O        3.64941757      -0.92737326       5.98668876       33      -0.01318341      -0.02727713       0.00576635
O        2.09080842      -0.00039481       3.61626444       34       0.02132265      -0.00576710      -0.02152161
O        0.92644440      -2.30824977       7.41273762       35       0.02196123       0.02107027       0.00498424
O       -0.69730837       2.14622614       3.51515617       36      -0.01254483      -0.02772867       0.00498424
O       -0.92644440      -0.82293488       5.60494732       37      -0.02196123       0.00621865       0.02073951
O       -0.46705565       5.42791266       1.80847413       38       0.01318341       0.02727713      -0.00576635
O        4.27391544       5.38184917       5.70605559       39      -0.02132265      -0.02152182      -0.00576635
40