40
Lattice="9.068912852924973 7.107933621146395e-10 -1.7514132975733633e-15 -3.022970951645131 8.550253034820516 -1.2311350969380103e-09 -3.0229709506399174 -4.275126516699459 7.404736337760318" Properties=species:S:1:pos:R:3:spacegroup_kinds:I:1:forces:R:3 spacegroup="P 1" unit_cell=conventional occupancy="_JSON {\"0\": {\"In\": 1}, \"1\": {\"In\": 1}, \"2\": {\"In\": 1}, \"3\": {\"In\": 1}, \"4\": {\"In\": 1}, \"5\": {\"In\": 1}, \"6\": {\"In\": 1}, \"7\": {\"In\": 1}, \"8\": {\"In\": 1}, \"9\": {\"In\": 1}, \"10\": {\"In\": 1}, \"11\": {\"In\": 1}, \"12\": {\"In\": 1}, \"13\": {\"In\": 1}, \"14\": {\"In\": 1}, \"15\": {\"In\": 1}, \"16\": {\"O\": 1}, \"17\": {\"O\": 1}, \"18\": {\"O\": 1}, \"19\": {\"O\": 1}, \"20\": {\"O\": 1}, \"21\": {\"O\": 1}, \"22\": {\"O\": 1}, \"23\": {\"O\": 1}, \"24\": {\"O\": 1}, \"25\": {\"O\": 1}, \"26\": {\"O\": 1}, \"27\": {\"O\": 1}, \"28\": {\"O\": 1}, \"29\": {\"O\": 1}, \"30\": {\"O\": 1}, \"31\": {\"O\": 1}, \"32\": {\"O\": 1}, \"33\": {\"O\": 1}, \"34\": {\"O\": 1}, \"35\": {\"O\": 1}, \"36\": {\"O\": 1}, \"37\": {\"O\": 1}, \"38\": {\"O\": 1}, \"39\": {\"O\": 1}}" n_minim_iter=5 energy=-45151.13526796123 stress="0.009095831777193778 4.631541901729327e-13 2.6399272851863756e-14 4.631541901729327e-13 0.009095831774108944 -4.697576480324932e-13 2.6399272851863756e-14 -4.697576480324932e-13 0.009095831777146485" free_energy=-45151.13526796123 pbc="T T T"
In      -4.33645460       3.06633646       5.79605397        0      -0.00310799       0.00219768      -0.00380649
In       7.35942555       1.20879006       1.60868236        1       0.00310799      -0.00219768       0.00380649
In       1.31348365      -0.92877319       5.31105053        2       0.00310799      -0.00219768       0.00380649
In      -1.51148548      -2.13756326       3.70236817        3      -0.00000000       0.00000000      -0.00000000
In      -1.31348365       4.13511809       3.45986645        4      -0.00310799       0.00219768       0.00380649
In       4.73245825      -2.92632802       5.55355225        5      -0.00310799      -0.00439536      -0.00000000
In      -1.31348365       1.34879850       5.55355225        6      -0.00310799      -0.00439536      -0.00000000
In      -1.70948730       7.20145454       1.85118408        7       0.00310799       0.00439536      -0.00000000
In       4.33645460       0.14000843       3.94486988        8       0.00310799      -0.00219768      -0.00380649
In      -1.51148548       4.27512652      -0.00000000        9       0.00000000      -0.00000000       0.00000000
In       4.33645460       6.55269821       0.24250172       10       0.00310799      -0.00219768      -0.00380649
In      -1.31348365      -2.27757169       7.16223462       11      -0.00310799       0.00219768       0.00380649
In       4.33645460       2.92632803       1.85118408       12       0.00310799       0.00439536       0.00000000
In       1.70948730       5.20389972       2.09368580       13      -0.00310799       0.00219768      -0.00380649
In       4.53445642       0.00000000      -0.00000000       14      -0.00000000      -0.00000000       0.00000000
In       1.51148547       2.13756326       3.70236817       15      -0.00000000      -0.00000000       0.00000000
O        0.85420943       4.27203343       4.03651497       16       0.00404364      -0.00464452      -0.00104370
O       -2.16876152       3.49727105       5.38915755       17       0.00404364       0.00141839       0.00454413
O       -0.45154889       2.28301835       0.08756858       18      -0.00169375       0.00547534      -0.00248271
O       -0.85420943      -0.78094856       2.02093618       19      -0.00404364      -0.00322613       0.00350042
O        4.02017927       5.10663282       1.93336759       20      -0.00001061       0.00179274       0.00598314
O        2.02576263       3.01653422       1.68678938       21       0.00001061      -0.00428518       0.00454413
O        2.02576262       6.36522512       0.24657821       22       0.00001061       0.00607792       0.00143901
O       -2.30296664       6.07740803       3.78993675       23      -0.00572678      -0.00022823      -0.00248271
O        3.47451983       1.99210817       7.31716775       24       0.00169375      -0.00547534       0.00248271
O        5.32593759      -1.80228151       3.61479958       25       0.00572678       0.00022823       0.00248271
O        6.49749079       3.35490905       1.76900057       26       0.00169375       0.00058758      -0.00598314
O        3.74297526       2.38104075       3.94894638       27      -0.00572678      -0.00203598       0.00143901
O        0.72000431       4.36693078       7.07058953       28      -0.00572678       0.00226421       0.00104370
O        2.30296664      -0.09180425       0.33414680       29       0.00572678      -0.00226421      -0.00104370
O       -3.47451984       0.92021747       5.63573576       30      -0.00169375      -0.00058758       0.00598314
O        5.19173247       0.77785547       2.01557879       31      -0.00404364      -0.00141839      -0.00454413
O        0.99720832       1.25859231       5.71794695       32      -0.00001061       0.00428518      -0.00454413
O        3.47451983      -1.07189070       5.72330435       33       0.00169375       0.00488776       0.00350042
O        2.16876152       0.00309309       3.36822137       34      -0.00404364       0.00464452       0.00104370
O        0.99720832      -2.09009860       7.15815812       35      -0.00001061      -0.00607792      -0.00143901
O       -0.72000432       1.89408577       3.45578995       36       0.00572678       0.00203598      -0.00143901
O       -0.99720833      -0.83150630       5.47136874       37       0.00001061      -0.00179274      -0.00598314
O       -0.45154889       5.34701722       1.68143199       38      -0.00169375      -0.00488776      -0.00350042
O        3.87718038       5.05607508       5.38380015       39       0.00404364       0.00322613      -0.00350042
