40
Lattice="8.614689565448334 6.751937151897324e-10 2.0811285615527106e-14 -2.8715631891193585 8.122007212502282 -1.16948888921845e-09 -2.8715631881645054 -4.0610036055759355 7.03386457652706" Properties=species:S:1:pos:R:3:spacegroup_kinds:I:1:forces:R:3 spacegroup="P 1" unit_cell=conventional occupancy="_JSON {\"0\": {\"In\": 1}, \"1\": {\"In\": 1}, \"2\": {\"In\": 1}, \"3\": {\"In\": 1}, \"4\": {\"In\": 1}, \"5\": {\"In\": 1}, \"6\": {\"In\": 1}, \"7\": {\"In\": 1}, \"8\": {\"In\": 1}, \"9\": {\"In\": 1}, \"10\": {\"In\": 1}, \"11\": {\"In\": 1}, \"12\": {\"In\": 1}, \"13\": {\"In\": 1}, \"14\": {\"In\": 1}, \"15\": {\"In\": 1}, \"16\": {\"O\": 1}, \"17\": {\"O\": 1}, \"18\": {\"O\": 1}, \"19\": {\"O\": 1}, \"20\": {\"O\": 1}, \"21\": {\"O\": 1}, \"22\": {\"O\": 1}, \"23\": {\"O\": 1}, \"24\": {\"O\": 1}, \"25\": {\"O\": 1}, \"26\": {\"O\": 1}, \"27\": {\"O\": 1}, \"28\": {\"O\": 1}, \"29\": {\"O\": 1}, \"30\": {\"O\": 1}, \"31\": {\"O\": 1}, \"32\": {\"O\": 1}, \"33\": {\"O\": 1}, \"34\": {\"O\": 1}, \"35\": {\"O\": 1}, \"36\": {\"O\": 1}, \"37\": {\"O\": 1}, \"38\": {\"O\": 1}, \"39\": {\"O\": 1}}" n_minim_iter=6 energy=-45151.14026562778 stress="0.016716060083074687 -3.037523049471638e-14 -4.1569760577099267e-13 -3.037523049471638e-14 0.01671606008103237 1.8170241807109154e-13 -4.1569760577099267e-13 1.8170241807109154e-13 0.01671606008375616" free_energy=-45151.14026562778 pbc="T T T"
In      -4.09393791       2.89485126       5.53676741        0       0.00073343      -0.00051861       0.00089826
In       6.96550109       1.16615235       1.49709716        1      -0.00073343       0.00051861      -0.00089826
In       1.22237472      -0.86434945       5.01402945        2      -0.00073343       0.00051861      -0.00089826
In      -1.43578160      -2.03050180       3.51693229        3      -0.00000000       0.00000000      -0.00000000
In      -1.22237472       3.91010216       3.25556331        4       0.00073343      -0.00051861      -0.00089826
In       4.52075166      -2.74394980       5.27539843        5       0.00073343       0.00103723       0.00000000
In      -1.22237472       1.31705380       5.27539843        6       0.00073343       0.00103723      -0.00000000
In      -1.64918847       6.80495341       1.75846614        7      -0.00073343      -0.00103723       0.00000000
In       4.09393790       0.15090145       3.77830126        8      -0.00073343       0.00051861       0.00089826
In      -1.43578160       4.06100361      -0.00000000        9      -0.00000000      -0.00000000      -0.00000000
In       4.09393790       6.24240686       0.26136897       10      -0.00073343       0.00051861       0.00089826
In      -1.22237472      -2.18140325       6.77249560       11       0.00073343      -0.00051861      -0.00089826
In       4.09393790       2.74394981       1.75846614       12      -0.00073343      -0.00103723       0.00000000
In       1.64918847       4.92535306       2.01983512       13       0.00073343      -0.00051861       0.00089826
In       4.30734478       0.00000000      -0.00000000       14      -0.00000000       0.00000000       0.00000000
In       1.43578159       2.03050181       3.51693229       15       0.00000000      -0.00000000       0.00000000
O        0.93552385       4.07117981       3.81571626       16      -0.00071170       0.00162684       0.00004452
O       -1.93603934       3.29941911       5.11719359       17      -0.00071170      -0.00077487      -0.00143115
O       -0.39659325       2.21086634      -0.03124228       18       0.00056602      -0.00167835       0.00013373
O       -0.93552385      -0.75140829       1.89904528       19       0.00071170       0.00085198      -0.00138663
O        3.75606861       4.79437416       1.93028755       20      -0.00049332      -0.00077477      -0.00152036
O        1.98705776       2.75601083       1.60026130       21       0.00049332       0.00092929      -0.00143115
O        1.98705776       6.09936694       0.33002624       22       0.00049332      -0.00170405      -0.00008921
O       -2.21662253       5.72846166       3.48569001       23       0.00177104       0.00002580       0.00013373
O        3.26815643       1.85013727       7.06510685       24      -0.00056602       0.00167835      -0.00013373
O        5.08818571      -1.66745805       3.54817456       25      -0.00177104      -0.00002580      -0.00013373
O        6.13971962       3.10887837       1.58664473       26      -0.00056602      -0.00072336       0.00152036
O        3.52650385       2.18496708       3.84695853       27       0.00177104       0.00010291      -0.00008921
O        0.65494066       4.26958209       6.73508060       28       0.00177104      -0.00012872      -0.00004452
O        2.21662252      -0.20857847       0.29878397       29      -0.00177104       0.00012872       0.00004452
O       -3.26815644       0.95212524       5.44721984       30       0.00056602       0.00072336      -0.00152036
O        4.80760253       0.76158450       1.91667098       31       0.00071170       0.00077486       0.00143115
O        0.88450543       1.30499278       5.43360327       32      -0.00049332      -0.00092929       0.00143115
O        3.26815643      -0.89801203       5.41597756       33      -0.00056602      -0.00095499      -0.00138663
O        1.93603934      -0.01017620       3.21814832       34       0.00071170      -0.00162684      -0.00004452
O        0.88450543      -2.03836333       6.70383833       35      -0.00049332       0.00170405       0.00008921
O       -0.65494067       1.87603653       3.18690604       36      -0.00177104      -0.00010291       0.00008921
O       -0.88450543      -0.73337055       5.10357702       37       0.00049332       0.00077477       0.00152036
O       -0.39659325       4.95901564       1.61788701       38       0.00056602       0.00095499       0.00138663
O        3.80708703       4.81241190       5.13481930       39      -0.00071170      -0.00085198       0.00138663
