40
Lattice="9.481692738974017 7.431429444166946e-10 9.382077520750388e-15 -3.1605642470253126 8.939425643559984 -1.2871896492995073e-09 -3.1605642459743586 -4.469712821036826 7.741769703423121" Properties=species:S:1:pos:R:3:spacegroup_kinds:I:1:forces:R:3 spacegroup="P 1" unit_cell=conventional occupancy="_JSON {\"0\": {\"In\": 1}, \"1\": {\"In\": 1}, \"2\": {\"In\": 1}, \"3\": {\"In\": 1}, \"4\": {\"In\": 1}, \"5\": {\"In\": 1}, \"6\": {\"In\": 1}, \"7\": {\"In\": 1}, \"8\": {\"In\": 1}, \"9\": {\"In\": 1}, \"10\": {\"In\": 1}, \"11\": {\"In\": 1}, \"12\": {\"In\": 1}, \"13\": {\"In\": 1}, \"14\": {\"In\": 1}, \"15\": {\"In\": 1}, \"16\": {\"O\": 1}, \"17\": {\"O\": 1}, \"18\": {\"O\": 1}, \"19\": {\"O\": 1}, \"20\": {\"O\": 1}, \"21\": {\"O\": 1}, \"22\": {\"O\": 1}, \"23\": {\"O\": 1}, \"24\": {\"O\": 1}, \"25\": {\"O\": 1}, \"26\": {\"O\": 1}, \"27\": {\"O\": 1}, \"28\": {\"O\": 1}, \"29\": {\"O\": 1}, \"30\": {\"O\": 1}, \"31\": {\"O\": 1}, \"32\": {\"O\": 1}, \"33\": {\"O\": 1}, \"34\": {\"O\": 1}, \"35\": {\"O\": 1}, \"36\": {\"O\": 1}, \"37\": {\"O\": 1}, \"38\": {\"O\": 1}, \"39\": {\"O\": 1}}" n_minim_iter=9 energy=-45148.33954737211 stress="0.030165086352158428 -1.5429917772975641e-12 1.021131842351065e-12 -1.5429917772975641e-12 0.030165086349673624 -7.96652471627403e-13 1.021131842351065e-12 -7.96652471627403e-13 0.030165086353483906" free_energy=-45148.33954737211 pbc="T T T"
In      -4.47186149       3.16208359       6.13576513        0      -0.00452452       0.00319932      -0.00554138
In       7.63242573       1.30762924       1.60600457        1       0.00452452      -0.00319932       0.00554138
In       1.31129724      -0.92722717       5.47688942        2       0.00452452      -0.00319932       0.00554138
In      -1.58028212      -2.23485641       3.87088485        3      -0.00000000       0.00000000      -0.00000000
In      -1.31129724       4.27951179       3.54144700        4      -0.00452452       0.00319932       0.00554138
In       5.00983125      -2.97188255       5.80632728        5      -0.00452452      -0.00639863       0.00000000
In      -1.31129724       1.49783027       5.80632727        6      -0.00452452      -0.00639863       0.00000000
In      -1.84926701       7.44159537       1.93544242        7       0.00452452       0.00639863       0.00000000
In       4.47186149       0.19020104       4.20032270        8       0.00452452      -0.00319932      -0.00554138
In      -1.58028213       4.46971282      -0.00000000        9       0.00000000       0.00000000      -0.00000000
In       4.47186149       6.89477027       0.32943785       10       0.00452452      -0.00319932      -0.00554138
In      -1.31129724      -2.42505744       7.41233185       11      -0.00452452       0.00319932       0.00554138
In       4.47186149       2.97188255       1.93544242       12       0.00452452       0.00639863      -0.00000000
In       1.84926700       5.39694000       2.26488028       13      -0.00452452       0.00319932      -0.00554138
In       4.74084637       0.00000000      -0.00000000       14      -0.00000000       0.00000000       0.00000000
In       1.58028212       2.23485641       3.87088485       15       0.00000000       0.00000000      -0.00000000
O        0.93497277       4.45381976       4.17866785       16       0.00272333       0.00129423      -0.00301955
O       -2.22559148       3.62677905       5.66619957       17       0.00272333      -0.00326213       0.00038894
O       -0.49805212       2.40522425       0.04022484       18      -0.00094757      -0.00066641      -0.00410698
O       -0.93497277      -0.85882683       2.10309772       19      -0.00272333      -0.00196789      -0.00263062
O        4.16122390       5.35176348       2.06287288       20      -0.00398334      -0.00040328       0.00147637
O        2.15990459       3.12423783       1.79531472       21       0.00398334      -0.00148021       0.00038894
O        2.15990459       6.69723847       0.26755816       22       0.00398334       0.00107693       0.00108743
O       -2.43368454       6.37239586       3.91110969       23       0.00031244       0.00111551      -0.00410698
O        3.65861636       2.06448857       7.70154486       24       0.00094757       0.00066641       0.00410698
O        5.59424879      -1.90268303       3.83066001       25      -0.00031244      -0.00111551       0.00410698
O        6.81918061       3.47230427       1.80801197       26       0.00094757      -0.00388995      -0.00147637
O        3.88744395       2.43577884       4.13844301       27       0.00031244      -0.00411451       0.00108743
O        0.72687970       4.60096378       7.43398670       28       0.00031244       0.00299899       0.00301955
O        2.43368454      -0.13125095       0.30778300       29      -0.00031244      -0.00299899      -0.00301955
O       -3.65861636       0.99740855       5.93375773       30      -0.00094757       0.00388995       0.00147637
O        5.38615572       0.84293378       2.07557013       31      -0.00272333       0.00326213      -0.00038894
O        1.00065966       1.34547499       5.94645498       32      -0.00398334       0.00148021      -0.00038894
O        3.65861636      -1.06708002       5.97398257       33       0.00094757       0.00322355      -0.00263062
O        2.22559148       0.01589306       3.56310185       34      -0.00272333      -0.00129423       0.00301955
O        1.00065966      -2.22752565       7.47421154       35      -0.00398334      -0.00107693      -0.00108743
O       -0.72687971       2.03393399       3.60332668       36      -0.00031244       0.00411451      -0.00108743
O       -1.00065966      -0.88205066       5.67889682       37       0.00398334       0.00040328      -0.00147637
O       -0.49805212       5.53679284       1.76778713       38      -0.00094757      -0.00322355       0.00263062
O        4.09553701       5.32853966       5.63867198       39       0.00272333       0.00196789       0.00263062
