40
Lattice="8.452109291599665 6.624512273258922e-10 2.4241778012480955e-14 -2.8173697644911213 7.968725060339123 -1.147420641892088e-09 -2.817369763554292 -3.984362529507098 6.901118338792292" Properties=species:S:1:pos:R:3:spacegroup_kinds:I:1:forces:R:3 spacegroup="P 1" unit_cell=conventional occupancy="_JSON {\"0\": {\"In\": 1}, \"1\": {\"In\": 1}, \"2\": {\"In\": 1}, \"3\": {\"In\": 1}, \"4\": {\"In\": 1}, \"5\": {\"In\": 1}, \"6\": {\"In\": 1}, \"7\": {\"In\": 1}, \"8\": {\"In\": 1}, \"9\": {\"In\": 1}, \"10\": {\"In\": 1}, \"11\": {\"In\": 1}, \"12\": {\"In\": 1}, \"13\": {\"In\": 1}, \"14\": {\"In\": 1}, \"15\": {\"In\": 1}, \"16\": {\"O\": 1}, \"17\": {\"O\": 1}, \"18\": {\"O\": 1}, \"19\": {\"O\": 1}, \"20\": {\"O\": 1}, \"21\": {\"O\": 1}, \"22\": {\"O\": 1}, \"23\": {\"O\": 1}, \"24\": {\"O\": 1}, \"25\": {\"O\": 1}, \"26\": {\"O\": 1}, \"27\": {\"O\": 1}, \"28\": {\"O\": 1}, \"29\": {\"O\": 1}, \"30\": {\"O\": 1}, \"31\": {\"O\": 1}, \"32\": {\"O\": 1}, \"33\": {\"O\": 1}, \"34\": {\"O\": 1}, \"35\": {\"O\": 1}, \"36\": {\"O\": 1}, \"37\": {\"O\": 1}, \"38\": {\"O\": 1}, \"39\": {\"O\": 1}}" n_minim_iter=5 energy=-45151.95476932405 stress="0.03384070018496005 1.9890476680315636e-13 -7.982904367333228e-13 1.9890476680315636e-13 0.03384070018480293 1.1482741795463077e-12 -7.982904367333228e-13 1.1482741795463077e-12 0.03384070018441877" free_energy=-45151.95476932405 pbc="T T T"
In      -4.00596033       2.83264171       5.44539814        0       0.00132818      -0.00093917       0.00162668
In       6.82333009       1.15172082       1.45572019        1      -0.00132818       0.00093917      -0.00162668
In       1.18859056      -0.84046044       4.90627936        2      -0.00132818       0.00093917      -0.00162668
In      -1.40868488      -1.99218126       3.45055917        3      -0.00000000      -0.00000000      -0.00000000
In      -1.18859056       3.82873234       3.18099977        4       0.00132818      -0.00093917      -0.00162668
In       4.44614897      -2.67701152       5.17583875        5       0.00132818       0.00187833      -0.00000000
In      -1.18859056       1.30735101       5.17583875        6       0.00132818       0.00187833      -0.00000000
In      -1.62877921       6.66137405       1.72527958        7      -0.00132818      -0.00187833       0.00000000
In       4.00596032       0.15563019       3.72011856        8      -0.00132818       0.00093917       0.00162668
In      -1.40868488       3.98436253      -0.00000000        9      -0.00000000      -0.00000000       0.00000000
In       4.00596032       6.13217398       0.26955939       10      -0.00132818       0.00093917       0.00162668
In      -1.18859056      -2.14781145       6.63155894       11       0.00132818      -0.00093917      -0.00162668
In       4.00596032       2.67701152       1.72527958       12      -0.00132818      -0.00187833      -0.00000000
In       1.62877920       4.82482298       1.99483897       13       0.00132818      -0.00093917       0.00162668
In       4.22605464       0.00000000      -0.00000000       14       0.00000000      -0.00000000      -0.00000000
In       1.40868488       1.99218127       3.45055917       15       0.00000000      -0.00000000       0.00000000
O        0.92443492       3.99429904       3.75432908       16       0.00721849      -0.00051456       0.00189060
O       -1.89293484       3.24637611       5.01534852       17       0.00721849       0.00189459      -0.00049967
O       -0.37826707       2.17534425      -0.03068823       18       0.00370726       0.00437740      -0.00480004
O       -0.92443492      -0.72804991       1.86855927       19      -0.00721849       0.00138002       0.00139092
O        3.69169102       4.69469459       1.89924749       20      -0.00061993      -0.00415133       0.00619096
O        1.94304850       2.69473198       1.56478935       21       0.00061993      -0.00743719      -0.00049967
O        1.94304850       5.98432514       0.33445814       22       0.00061993       0.00328586       0.00669063
O       -2.17702325       5.60806266       3.41987094       23      -0.00289130      -0.00495437      -0.00480004
O        3.19563683       1.80901828       6.93180656       24      -0.00370726      -0.00437740       0.00480004
O        4.99439301      -1.62370012       3.48124739       25       0.00289130       0.00495437       0.00480004
O        6.01300659       3.05327661       1.55131167       26      -0.00370726      -0.00196825      -0.00619096
O        3.45771628       2.14984505       3.78501731       27      -0.00289130      -0.00167977       0.00669063
O        0.64034651       4.19517989       6.59734842       28      -0.00289130       0.00663414      -0.00189060
O        2.17702325      -0.21081735       0.30376991       29       0.00289130      -0.00663414       0.00189060
O       -3.19563683       0.93108593       5.34980666       30       0.00370726       0.00196825       0.00619096
O        4.71030460       0.73798643       1.88576981       31      -0.00721849      -0.00189459       0.00049967
O        0.87432126       1.28963055       5.33632898       32      -0.00061993       0.00743719       0.00049967
O        3.19563683      -0.87793235       5.31911844       33      -0.00370726       0.00634565       0.00139092
O        1.89293484      -0.00993651       3.14678925       34      -0.00721849       0.00051456      -0.00189060
O        0.87432126      -1.99996261       6.56666020       35      -0.00061993      -0.00328586      -0.00669063
O       -0.64034652       1.83451748       3.11610103       36       0.00289130       0.00167977      -0.00669063
O       -0.87432126      -0.71033206       5.00187084       37       0.00061993       0.00415133      -0.00619096
O       -0.37826707       4.86229489       1.58199990       38       0.00370726      -0.00634565      -0.00139092
O        3.74180469       4.71241245       5.03255907       39       0.00721849      -0.00138002      -0.00139092
