40
Lattice="9.348129979930992 7.326735372613484e-10 8.411144191772387e-15 -3.116043327334436 8.813501466719064 -1.2690565729063179e-09 -3.1160433262982834 -4.406750732626836 7.63271616731615" Properties=species:S:1:pos:R:3:spacegroup_kinds:I:1:forces:R:3 spacegroup="P 1" unit_cell=conventional occupancy="_JSON {\"0\": {\"In\": 1}, \"1\": {\"In\": 1}, \"2\": {\"In\": 1}, \"3\": {\"In\": 1}, \"4\": {\"In\": 1}, \"5\": {\"In\": 1}, \"6\": {\"In\": 1}, \"7\": {\"In\": 1}, \"8\": {\"In\": 1}, \"9\": {\"In\": 1}, \"10\": {\"In\": 1}, \"11\": {\"In\": 1}, \"12\": {\"In\": 1}, \"13\": {\"In\": 1}, \"14\": {\"In\": 1}, \"15\": {\"In\": 1}, \"16\": {\"O\": 1}, \"17\": {\"O\": 1}, \"18\": {\"O\": 1}, \"19\": {\"O\": 1}, \"20\": {\"O\": 1}, \"21\": {\"O\": 1}, \"22\": {\"O\": 1}, \"23\": {\"O\": 1}, \"24\": {\"O\": 1}, \"25\": {\"O\": 1}, \"26\": {\"O\": 1}, \"27\": {\"O\": 1}, \"28\": {\"O\": 1}, \"29\": {\"O\": 1}, \"30\": {\"O\": 1}, \"31\": {\"O\": 1}, \"32\": {\"O\": 1}, \"33\": {\"O\": 1}, \"34\": {\"O\": 1}, \"35\": {\"O\": 1}, \"36\": {\"O\": 1}, \"37\": {\"O\": 1}, \"38\": {\"O\": 1}, \"39\": {\"O\": 1}}" n_minim_iter=1 energy=-45148.772372098276 stress="0.04821804594201157 6.634551184948364e-13 9.652166416537247e-13 6.634551184948364e-13 0.04821804594244047 4.778967493294537e-13 9.652166416537247e-13 4.778967493294537e-13 0.04821804594323431" free_energy=-45148.772372098276 pbc="T T T"
In      -4.44006471       3.13959987       6.01112776        0       0.02847342      -0.02013375       0.03487267
In       7.55610804       1.26715087       1.62158840        1      -0.02847342       0.02013375      -0.03487267
In       1.32402138      -0.93622450       5.43794648        2      -0.02847342       0.02013375      -0.03487267
In      -1.55802166      -2.20337536       3.81635808        3      -0.00000000       0.00000000       0.00000000
In      -1.32402139       4.24128755       3.52976744        4       0.02847342      -0.02013375      -0.03487267
In       4.90806527      -2.97413668       5.72453712        5       0.02847342       0.04026749      -0.00000000
In      -1.32402139       1.43261405       5.72453712        6       0.02847342       0.04026749      -0.00000000
In      -1.79202194       7.38088742       1.90817904        7      -0.02847342      -0.04026749      -0.00000000
In       4.44006471       0.16546319       4.10294872        8      -0.02847342       0.02013375       0.03487267
In      -1.55802167       4.40675073      -0.00000000        9       0.00000000       0.00000000       0.00000000
In       4.44006471       6.77558929       0.28659064       10      -0.02847342       0.02013375       0.03487267
In      -1.32402139      -2.36883855       7.34612552       11       0.02847342      -0.02013375      -0.03487267
In       4.44006471       2.97413669       1.90817904       12      -0.02847342      -0.04026749       0.00000000
In       1.79202194       5.34297524       2.19476968       13       0.02847342      -0.02013375       0.03487267
In       4.67406499       0.00000000      -0.00000000       14      -0.00000000      -0.00000000       0.00000000
In       1.55802166       2.20337537       3.81635808       15       0.00000000       0.00000000      -0.00000000
O        0.86150939       4.39698774       4.16059834       16       0.05475361      -0.03867781      -0.14084654
O       -2.25453394       3.60806537       5.56087200       17       0.05475361      -0.10263778       0.10391924
O       -0.47504264       2.34977500       0.10757867       18      -0.11498241       0.01738371      -0.10396408
O       -0.86150939      -0.80844837       2.08875418       19      -0.05475361      -0.14131559      -0.03692730
O        4.15322796       5.27730968       1.98117550       20      -0.11501903       0.08129189       0.06703678
O        2.07885869       3.12628189       1.74451391       21       0.11501903      -0.01740961       0.10391924
O        2.07885869       6.55777852       0.23666158       22       0.11501903       0.09870150      -0.03688246
O       -2.37373666       6.27474226       3.92393676       23      -0.05471699       0.10261188      -0.10396408
O        3.59108596       2.05697574       7.52513749       24       0.11498241      -0.01738372       0.10396408
O        5.48977998      -1.86799152       3.70877941       25       0.05471699      -0.10261188       0.10396408
O        6.70712929       3.47142873       1.83518258       26       0.11498241      -0.08134368      -0.06703678
O        3.85834999       2.46423316       4.05301967       27      -0.05471699      -0.14134148      -0.03688246
O        0.74230667       4.48127679       7.28847590       28      -0.05471699       0.03872960       0.14084654
O        2.37373666      -0.07452605       0.34424026       29       0.05471699      -0.03872960      -0.14084654
O       -3.59108596       0.93532200       5.79753358       30      -0.11498241       0.08134368       0.06703678
O        5.37057726       0.79868537       2.07184417       31      -0.05475361       0.10263778      -0.10391924
O        1.03718463       1.28046884       5.88820225       32      -0.11501903       0.01740961      -0.10391924
O        3.59108596      -1.12165373       5.90511226       33       0.11498241       0.09872740      -0.03692730
O        2.25453393       0.00976300       3.47211782       34      -0.05475361       0.03867781       0.14084654
O        1.03718463      -2.15102779       7.39605458       35      -0.11501903      -0.09870150       0.03688246
O       -0.74230667       1.94251758       3.57969649       36       0.05471699       0.14134148       0.03688246
O       -1.03718463      -0.87055894       5.65154066       37       0.11501903      -0.08129189      -0.06703678
O       -0.47504264       5.52840447       1.72760390       38      -0.11498241      -0.09872740       0.03692730
O        3.97755272       5.21519911       5.54396198       39       0.05475361       0.14131559       0.03692730
40
Lattice="9.348129979930992 7.326735372613486e-10 8.411144191772392e-15 -3.116043327334437 8.813501466719064 -1.269056572906318e-09 -3.1160433262982843 -4.406750732626836 7.632716167316152" Properties=species:S:1:pos:R:3:spacegroup_kinds:I:1:forces:R:3 spacegroup="P 1" unit_cell=conventional occupancy="_JSON {\"0\": {\"In\": 1}, \"1\": {\"In\": 1}, \"2\": {\"In\": 1}, \"3\": {\"In\": 1}, \"4\": {\"In\": 1}, \"5\": {\"In\": 1}, \"6\": {\"In\": 1}, \"7\": {\"In\": 1}, \"8\": {\"In\": 1}, \"9\": {\"In\": 1}, \"10\": {\"In\": 1}, \"11\": {\"In\": 1}, \"12\": {\"In\": 1}, \"13\": {\"In\": 1}, \"14\": {\"In\": 1}, \"15\": {\"In\": 1}, \"16\": {\"O\": 1}, \"17\": {\"O\": 1}, \"18\": {\"O\": 1}, \"19\": {\"O\": 1}, \"20\": {\"O\": 1}, \"21\": {\"O\": 1}, \"22\": {\"O\": 1}, \"23\": {\"O\": 1}, \"24\": {\"O\": 1}, \"25\": {\"O\": 1}, \"26\": {\"O\": 1}, \"27\": {\"O\": 1}, \"28\": {\"O\": 1}, \"29\": {\"O\": 1}, \"30\": {\"O\": 1}, \"31\": {\"O\": 1}, \"32\": {\"O\": 1}, \"33\": {\"O\": 1}, \"34\": {\"O\": 1}, \"35\": {\"O\": 1}, \"36\": {\"O\": 1}, \"37\": {\"O\": 1}, \"38\": {\"O\": 1}, \"39\": {\"O\": 1}}" n_minim_iter=2 energy=-45148.80268594002 stress="0.044841698732395636 -8.438254626329312e-13 9.892448176969856e-13 -8.438254626329312e-13 0.04484169873625276 -1.531796553781702e-12 9.892448176969856e-13 -1.531796553781702e-12 0.04484169873237141" free_energy=-45148.80268594002 pbc="T T T"
In      -4.43803090       3.13816174       6.01361867        0       0.03362242      -0.02377464       0.04117889
In       7.55407422       1.26858899       1.61909749        1      -0.03362242       0.02377464      -0.04117889
In       1.32198757      -0.93478637       5.43545558        2      -0.03362242       0.02377464      -0.04117889
In      -1.55802166      -2.20337536       3.81635808        3      -0.00000000      -0.00000000       0.00000000
In      -1.32198757       4.23984943       3.52727654        4       0.03362242      -0.02377464      -0.04117889
In       4.91009908      -2.97126043       5.72453712        5       0.03362242       0.04754929       0.00000000
In      -1.32198757       1.43549030       5.72453712        6       0.03362242       0.04754929      -0.00000000
In      -1.79405576       7.37801117       1.90817904        7      -0.03362242      -0.04754929       0.00000000
In       4.43803090       0.16690131       4.10543963        8      -0.03362242       0.02377464       0.04117889
In      -1.55802167       4.40675073      -0.00000000        9       0.00000000       0.00000000      -0.00000000
In       4.43803089       6.77702741       0.28908154       10      -0.03362242       0.02377464       0.04117889
In      -1.32198757      -2.37027667       7.34363462       11       0.03362242      -0.02377464      -0.04117889
In       4.43803090       2.97126044       1.90817904       12      -0.03362242      -0.04754929       0.00000000
In       1.79405575       5.34153711       2.19726058       13       0.03362242      -0.02377464       0.04117889
In       4.67406499       0.00000000      -0.00000000       14      -0.00000000       0.00000000      -0.00000000
In       1.55802166       2.20337537       3.81635808       15      -0.00000000       0.00000000      -0.00000000
O        0.86542036       4.39422504       4.15053788       16       0.04101218       0.00761928      -0.04624965
O       -2.25062297       3.60073410       5.56829480       17       0.04101218      -0.04386301       0.01652633
O       -0.48325567       2.35101669       0.10015267       18      -0.02050019      -0.00036720      -0.05881063
O       -0.86542036      -0.81854234       2.08611651       19      -0.04101218      -0.03624373      -0.02972332
O        4.14501231       5.28311625       1.98596384       20      -0.05502517       0.00228940       0.02908731
O        2.08707434       3.12503835       1.75193671       21       0.05502517      -0.02404565       0.01652633
O        2.08707434       6.56482863       0.23402712       22       0.05502517       0.02633505       0.01256098
O       -2.37764502       6.28207168       3.91651075       23      -0.00648720       0.01945017      -0.05881063
O        3.59929899       2.05573405       7.53256349       24       0.02050019       0.00036720       0.05881063
O        5.49368834      -1.87532094       3.71620541       25       0.00648720      -0.01945017       0.05881063
O        6.71534232       3.46561847       1.83039424       26       0.02050019      -0.05111510      -0.02908731
O        3.85444164       2.45413734       4.05038521       27      -0.00648720      -0.06065658       0.01256098
O        0.73839831       4.48404319       7.29853637       28      -0.00648720       0.04120641       0.04624965
O        2.37764501      -0.07729245       0.33417979       29       0.00648720      -0.04120641      -0.04624965
O       -3.59929899       0.94113227       5.80232193       30      -0.02050019       0.05111510       0.02908731
O        5.36666629       0.80601664       2.06442136       31      -0.04101218       0.04386301      -0.01652633
O        1.02896899       1.28171239       5.88077945       32      -0.05502517       0.02404565      -0.01652633
O        3.59929899      -1.11460177       5.90247460       33       0.02050019       0.05074790      -0.02972332
O        2.25062296       0.01252570       3.48217828       34      -0.04101218      -0.00761928       0.04624965
O        1.02896899      -2.15807789       7.39868904       35      -0.05502517      -0.02633505      -0.01256098
O       -0.73839831       1.95261340       3.58233095       36       0.00648720       0.06065658      -0.01256098
O       -1.02896899      -0.87636551       5.64675232       37       0.05502517      -0.00228940      -0.02908731
O       -0.48325567       5.52135251       1.73024157       38      -0.02050019      -0.05074790       0.02972332
O        3.98146369       5.22529308       5.54659965       39       0.04101218       0.03624373       0.02972332
40
Lattice="9.348129979930997 7.326735372613491e-10 8.411144191772393e-15 -3.116043327334439 8.813501466719067 -1.2690565729063187e-09 -3.1160433262982865 -4.406750732626838 7.632716167316157" Properties=species:S:1:pos:R:3:spacegroup_kinds:I:1:forces:R:3 spacegroup="P 1" unit_cell=conventional occupancy="_JSON {\"0\": {\"In\": 1}, \"1\": {\"In\": 1}, \"2\": {\"In\": 1}, \"3\": {\"In\": 1}, \"4\": {\"In\": 1}, \"5\": {\"In\": 1}, \"6\": {\"In\": 1}, \"7\": {\"In\": 1}, \"8\": {\"In\": 1}, \"9\": {\"In\": 1}, \"10\": {\"In\": 1}, \"11\": {\"In\": 1}, \"12\": {\"In\": 1}, \"13\": {\"In\": 1}, \"14\": {\"In\": 1}, \"15\": {\"In\": 1}, \"16\": {\"O\": 1}, \"17\": {\"O\": 1}, \"18\": {\"O\": 1}, \"19\": {\"O\": 1}, \"20\": {\"O\": 1}, \"21\": {\"O\": 1}, \"22\": {\"O\": 1}, \"23\": {\"O\": 1}, \"24\": {\"O\": 1}, \"25\": {\"O\": 1}, \"26\": {\"O\": 1}, \"27\": {\"O\": 1}, \"28\": {\"O\": 1}, \"29\": {\"O\": 1}, \"30\": {\"O\": 1}, \"31\": {\"O\": 1}, \"32\": {\"O\": 1}, \"33\": {\"O\": 1}, \"34\": {\"O\": 1}, \"35\": {\"O\": 1}, \"36\": {\"O\": 1}, \"37\": {\"O\": 1}, \"38\": {\"O\": 1}, \"39\": {\"O\": 1}}" n_minim_iter=3 energy=-45148.80969209663 stress="0.04242664022782149 1.1111726082987165e-13 8.855348093085547e-13 1.1111726082987165e-13 0.04242664022864122 8.222262947937737e-13 8.855348093085547e-13 8.222262947937737e-13 0.04242664022998272" free_energy=-45148.80969209663 pbc="T T T"
In      -4.43614332       3.13682702       6.01593048        0       0.03496589      -0.02472462       0.04282429
In       7.55218664       1.26992372       1.61678569        1      -0.03496589       0.02472462      -0.04282429
In       1.32009999      -0.93345165       5.43314377        2      -0.03496589       0.02472461      -0.04282429
In      -1.55802166      -2.20337536       3.81635808        3       0.00000000      -0.00000000      -0.00000000
In      -1.32009999       4.23851470       3.52496473        4       0.03496589      -0.02472461      -0.04282429
In       4.91198667      -2.96859099       5.72453712        5       0.03496589       0.04944923       0.00000000
In      -1.32009999       1.43815975       5.72453712        6       0.03496589       0.04944923       0.00000000
In      -1.79594334       7.37534172       1.90817904        7      -0.03496589      -0.04944923      -0.00000000
In       4.43614331       0.16823603       4.10775143        8      -0.03496589       0.02472462       0.04282429
In      -1.55802167       4.40675073      -0.00000000        9      -0.00000000       0.00000000       0.00000000
In       4.43614331       6.77836213       0.29139335       10      -0.03496589       0.02472461       0.04282429
In      -1.32009999      -2.37161140       7.34132281       11       0.03496589      -0.02472462      -0.04282429
In       4.43614331       2.96859099       1.90817904       12      -0.03496589      -0.04944923       0.00000000
In       1.79594334       5.34020239       2.19957239       13       0.03496589      -0.02472462       0.04282429
In       4.67406499       0.00000000      -0.00000000       14      -0.00000000       0.00000000       0.00000000
In       1.55802166       2.20337537       3.81635808       15       0.00000000      -0.00000000       0.00000000
O        0.86849865       4.39290402       4.14400137       16       0.03015531       0.03019690       0.01233907
O       -2.24754467       3.59573383       5.57270708       17       0.03015531      -0.00441251      -0.03232082
O       -0.48818933       2.35168174       0.09475234       18       0.03436153      -0.00738676      -0.02716927
O       -0.86849866      -0.82486362       2.08399229       19      -0.03015531       0.02578440      -0.01998175
O        4.13927191       5.28631965       1.98923995       20      -0.01421192      -0.04147058       0.00718752
O        2.09281473       3.12380286       1.75634900       21       0.01421192      -0.02695986      -0.03232082
O        2.09281473       6.56926753       0.23289094       22       0.01421192      -0.01451072       0.03950833
O       -2.37991658       6.28650151       3.91111043       23       0.01841814      -0.02993411      -0.02716927
O        3.60423266       2.05506900       7.53796382       24      -0.03436153       0.00738676       0.02716927
O        5.49595990      -1.87975077       3.72160573       25      -0.01841814       0.02993411       0.02716927
O        6.72027598       3.46127417       1.82711813       26      -0.03436153      -0.02722265      -0.00718752
O        3.85217007       2.44724561       4.04924903       27       0.01841814      -0.00856222       0.03950833
O        0.73612675       4.48650509       7.30507287       28       0.01841814       0.03849633      -0.01233907
O        2.37991658      -0.07975436       0.32764329       29      -0.01841814      -0.03849633       0.01233907
O       -3.60423266       0.94547656       5.80559803       30       0.03436153       0.02722265       0.00718752
O        5.36358800       0.81101691       2.06000908       31      -0.03015531       0.00441251       0.03232082
O        1.02322859       1.28294787       5.87636716       32      -0.01421192       0.02695986       0.03232082
O        3.60423266      -1.10959244       5.90035038       33      -0.03436153       0.01983590      -0.01998175
O        2.24754467       0.01384672       3.48871479       34      -0.03015531      -0.03019690      -0.01233907
O        1.02322859      -2.16251679       7.39982522       35      -0.01421192       0.01451072      -0.03950833
O       -0.73612675       1.95950513       3.58346713       36      -0.01841814       0.00856222      -0.03950833
O       -1.02322859      -0.87956892       5.64347621       37       0.01421192       0.04147058      -0.00718752
O       -0.48818933       5.51634317       1.73236578       38       0.03436153      -0.01983590       0.01998175
O        3.98454198       5.23161436       5.54872387       39       0.03015531      -0.02578440       0.01998175
40
Lattice="9.348129979931002 7.326735372613494e-10 8.411144191772404e-15 -3.116043327334441 8.813501466719073 -1.2690565729063191e-09 -3.1160433262982883 -4.406750732626841 7.632716167316161" Properties=species:S:1:pos:R:3:spacegroup_kinds:I:1:forces:R:3 spacegroup="P 1" unit_cell=conventional occupancy="_JSON {\"0\": {\"In\": 1}, \"1\": {\"In\": 1}, \"2\": {\"In\": 1}, \"3\": {\"In\": 1}, \"4\": {\"In\": 1}, \"5\": {\"In\": 1}, \"6\": {\"In\": 1}, \"7\": {\"In\": 1}, \"8\": {\"In\": 1}, \"9\": {\"In\": 1}, \"10\": {\"In\": 1}, \"11\": {\"In\": 1}, \"12\": {\"In\": 1}, \"13\": {\"In\": 1}, \"14\": {\"In\": 1}, \"15\": {\"In\": 1}, \"16\": {\"O\": 1}, \"17\": {\"O\": 1}, \"18\": {\"O\": 1}, \"19\": {\"O\": 1}, \"20\": {\"O\": 1}, \"21\": {\"O\": 1}, \"22\": {\"O\": 1}, \"23\": {\"O\": 1}, \"24\": {\"O\": 1}, \"25\": {\"O\": 1}, \"26\": {\"O\": 1}, \"27\": {\"O\": 1}, \"28\": {\"O\": 1}, \"29\": {\"O\": 1}, \"30\": {\"O\": 1}, \"31\": {\"O\": 1}, \"32\": {\"O\": 1}, \"33\": {\"O\": 1}, \"34\": {\"O\": 1}, \"35\": {\"O\": 1}, \"36\": {\"O\": 1}, \"37\": {\"O\": 1}, \"38\": {\"O\": 1}, \"39\": {\"O\": 1}}" n_minim_iter=4 energy=-45148.81341015951 stress="0.04025435541141427 -1.552484655964183e-13 1.2856297646956844e-12 -1.552484655964183e-13 0.04025435541278004 -9.45939495139893e-13 1.2856297646956844e-12 -9.45939495139893e-13 0.04025435541313968" free_energy=-45148.81341015951 pbc="T T T"
In      -4.43220138       3.13403965       6.02075834        0       0.02520129      -0.01782000       0.03086515
In       7.54824470       1.27271109       1.61195782        1      -0.02520129       0.01782000      -0.03086515
In       1.31615805      -0.93066428       5.42831590        2      -0.02520129       0.01782000      -0.03086515
In      -1.55802166      -2.20337536       3.81635808        3      -0.00000000      -0.00000000      -0.00000000
In      -1.31615805       4.23572734       3.52013686        4       0.02520129      -0.01782000      -0.03086515
In       4.91592860      -2.96301625       5.72453712        5       0.02520129       0.03564001      -0.00000000
In      -1.31615805       1.44373449       5.72453712        6       0.02520129       0.03564001      -0.00000000
In      -1.79988528       7.36976699       1.90817904        7      -0.02520129      -0.03564001      -0.00000000
In       4.43220138       0.17102340       4.11257930        8      -0.02520129       0.01782000       0.03086515
In      -1.55802167       4.40675073      -0.00000000        9      -0.00000000       0.00000000       0.00000000
In       4.43220138       6.78114950       0.29622121       10      -0.02520129       0.01782000       0.03086515
In      -1.31615805      -2.37439876       7.33649495       11       0.02520129      -0.01782000      -0.03086515
In       4.43220138       2.96301625       1.90817904       12      -0.02520129      -0.03564001      -0.00000000
In       1.79988527       5.33741502       2.20440026       13       0.02520129      -0.01782000       0.03086515
In       4.67406499       0.00000000      -0.00000000       14       0.00000000      -0.00000000       0.00000000
In       1.55802166       2.20337537       3.81635808       15       0.00000000      -0.00000000      -0.00000000
O        0.87314211       4.39375139       4.13920220       16       0.01616254       0.01778128       0.05105816
O       -2.24290121       3.59115393       5.57437283       17       0.01616254       0.03532702      -0.04092812
O       -0.49016057       2.35177913       0.08831677       18       0.05545850       0.00754058       0.00719941
O       -0.87314212      -0.82859615       2.08085886       19      -0.01616254       0.05310831       0.01013004
O        4.13340613       5.28633660       1.99254208       20       0.02791912      -0.04895173       0.00293063
O        2.09868052       3.12095160       1.75801474       21      -0.02791912      -0.02701386      -0.04092812
O        2.09868052       6.57213573       0.23452734       22      -0.02791912      -0.02193786       0.04385875
O       -2.38066549       6.28832754       3.90467485       23       0.01137684      -0.05480031       0.00719941
O        3.60620390       2.05497160       7.54439939       24      -0.05545850      -0.00754058      -0.00719941
O        5.49670881      -1.88157680       3.72804131       25      -0.01137684       0.05480031      -0.00719941
O        6.72224722       3.45574951       1.82381599       26      -0.05545850       0.01000516      -0.00293063
O        3.85142116       2.44075922       4.05088542       27       0.01137684       0.03363502       0.04385875
O        0.73537784       4.49116545       7.30987205       28       0.01137684       0.02116528      -0.05105816
O        2.38066549      -0.08441471       0.32284411       29      -0.01137684      -0.02116528       0.05105816
O       -3.60620390       0.95100123       5.80890017       30       0.05545850      -0.01000516       0.00293063
O        5.35894454       0.81559681       2.05834334       31      -0.01616254      -0.03532702       0.04092812
O        1.01736280       1.28579914       5.87470142       32       0.02791912       0.02701386       0.04092812
O        3.60620390      -1.10397037       5.89721694       33      -0.05545850      -0.00246458       0.01013004
O        2.24290121       0.01299934       3.49351397       34      -0.01616254      -0.01778128      -0.05105816
O        1.01736280      -2.16538499       7.39818882       35       0.02791912       0.02193786      -0.04385875
O       -0.73537784       1.96599152       3.58183074       36      -0.01137684      -0.03363502      -0.04385875
O       -1.01736280      -0.87958586       5.64017408       37      -0.02791912       0.04895173      -0.00293063
O       -0.49016057       5.51072111       1.73549922       38       0.05545850       0.00246458      -0.01013004
O        3.98918544       5.23534689       5.55185730       39       0.01616254      -0.05310831      -0.01013004
40
Lattice="9.348129979931004 7.326735372613495e-10 8.4111441917724e-15 -3.1160433273344412 8.813501466719075 -1.2690565729063193e-09 -3.1160433262982887 -4.406750732626842 7.632716167316162" Properties=species:S:1:pos:R:3:spacegroup_kinds:I:1:forces:R:3 spacegroup="P 1" unit_cell=conventional occupancy="_JSON {\"0\": {\"In\": 1}, \"1\": {\"In\": 1}, \"2\": {\"In\": 1}, \"3\": {\"In\": 1}, \"4\": {\"In\": 1}, \"5\": {\"In\": 1}, \"6\": {\"In\": 1}, \"7\": {\"In\": 1}, \"8\": {\"In\": 1}, \"9\": {\"In\": 1}, \"10\": {\"In\": 1}, \"11\": {\"In\": 1}, \"12\": {\"In\": 1}, \"13\": {\"In\": 1}, \"14\": {\"In\": 1}, \"15\": {\"In\": 1}, \"16\": {\"O\": 1}, \"17\": {\"O\": 1}, \"18\": {\"O\": 1}, \"19\": {\"O\": 1}, \"20\": {\"O\": 1}, \"21\": {\"O\": 1}, \"22\": {\"O\": 1}, \"23\": {\"O\": 1}, \"24\": {\"O\": 1}, \"25\": {\"O\": 1}, \"26\": {\"O\": 1}, \"27\": {\"O\": 1}, \"28\": {\"O\": 1}, \"29\": {\"O\": 1}, \"30\": {\"O\": 1}, \"31\": {\"O\": 1}, \"32\": {\"O\": 1}, \"33\": {\"O\": 1}, \"34\": {\"O\": 1}, \"35\": {\"O\": 1}, \"36\": {\"O\": 1}, \"37\": {\"O\": 1}, \"38\": {\"O\": 1}, \"39\": {\"O\": 1}}" n_minim_iter=5 energy=-45148.81855540368 stress="0.041041194457598844 1.5633996126977553e-13 -1.3845823437620103e-13 1.5633996126977553e-13 0.04104119445733669 -5.98602135395426e-13 -1.3845823437620103e-13 -5.98602135395426e-13 0.04104119445851698" free_energy=-45148.81855540368 pbc="T T T"
In      -4.42865709       3.13153346       6.02509919        0       0.00609382      -0.00430898       0.00746337
In       7.54470041       1.27521728       1.60761697        1      -0.00609382       0.00430898      -0.00746337
In       1.31261376      -0.92815809       5.42397505        2      -0.00609382       0.00430898      -0.00746337
In      -1.55802166      -2.20337536       3.81635808        3       0.00000000      -0.00000000       0.00000000
In      -1.31261376       4.23322114       3.51579601        4       0.00609382      -0.00430898      -0.00746337
In       4.91947289      -2.95800386       5.72453712        5       0.00609382       0.00861796      -0.00000000
In      -1.31261376       1.44874687       5.72453712        6       0.00609382       0.00861796       0.00000000
In      -1.80342957       7.36475460       1.90817904        7      -0.00609382      -0.00861796       0.00000000
In       4.42865708       0.17352960       4.11692015        8      -0.00609382       0.00430898       0.00746337
In      -1.55802167       4.40675073      -0.00000000        9      -0.00000000       0.00000000      -0.00000000
In       4.42865708       6.78365570       0.30056207       10      -0.00609382       0.00430898       0.00746337
In      -1.31261376      -2.37690496       7.33215409       11       0.00609382      -0.00430898      -0.00746337
In       4.42865708       2.95800387       1.90817904       12      -0.00609382      -0.00861796      -0.00000000
In       1.80342957       5.33490883       2.20874111       13       0.00609382      -0.00430898       0.00746337
In       4.67406499       0.00000000      -0.00000000       14       0.00000000      -0.00000000       0.00000000
In       1.55802166       2.20337537       3.81635808       15       0.00000000       0.00000000      -0.00000000
O        0.87580950       4.39700908       4.14299797       16       0.01251455      -0.03445476       0.01251566
O       -2.24023383       3.59281232       5.56965370       17       0.01251455       0.02806626       0.02358087
O       -0.48463652       2.35141756       0.08709633       18      -0.00185162       0.03822467       0.00598598
O       -0.87580950      -0.82368007       2.07993551       19      -0.01251455      -0.00638850       0.03609653
O        4.13408055       5.28071590       1.99283917       20       0.02228960       0.00984451       0.03011055
O        2.09800610       3.11788397       1.75329562       21      -0.02228960      -0.02115425       0.02358087
O        2.09800610       6.56958267       0.23954355       22      -0.02228960       0.03099875       0.00652968
O       -2.37848325       6.28323994       3.90345441       23      -0.03665577      -0.01099583       0.00598598
O        3.60067984       2.05533318       7.54561983       24       0.00185162      -0.03822467      -0.00598598
O        5.49452657      -1.87648920       3.72926175       25       0.03665577       0.01099583      -0.00598598
O        6.71672317       3.45451179       1.82351890       26       0.00185162       0.02429634      -0.03011055
O        3.85360341       2.44224609       4.05590163       27      -0.03665577       0.01068192       0.00652968
O        0.73756008       4.49476618       7.30607628       28      -0.03665577       0.00031391      -0.01251566
O        2.37848324      -0.08801544       0.32663988       29       0.03665577      -0.00031391       0.01251566
O       -3.60067985       0.95223895       5.80919726       30      -0.00185162      -0.02429634       0.03011055
O        5.35627715       0.81393842       2.06306246       31      -0.01251455      -0.02806626      -0.02358087
O        1.01803722       1.28886677       5.87942054       32       0.02228960       0.02115425      -0.02358087
O        3.60067984      -1.10309422       5.89629359       33       0.00185162       0.01392833       0.03609653
O        2.24023382       0.00974166       3.48971819       34      -0.01251455       0.03445476      -0.01251566
O        1.01803722      -2.16283193       7.39317261       35       0.02228960      -0.03099875      -0.00652968
O       -0.73756008       1.96450465       3.57681453       36       0.03665577      -0.01068192      -0.00652968
O       -1.01803722      -0.87396516       5.63987699       37      -0.02228960      -0.00984451      -0.03011055
O       -0.48463652       5.50984496       1.73642257       38      -0.00185162      -0.01392833      -0.03609653
O        3.99185283       5.23043081       5.55278065       39       0.01251455       0.00638850      -0.03609653
40