40
Lattice="8.92261448215419 6.993280570977418e-10 6.055827516303059e-17 -2.974204828044062 8.41232160809292 -1.2112731042973278e-09 -2.974204827055064 -4.206160803347131 7.285284218220748" Properties=species:S:1:pos:R:3:spacegroup_kinds:I:1:forces:R:3 spacegroup="P 1" unit_cell=conventional occupancy="_JSON {\"0\": {\"In\": 1}, \"1\": {\"In\": 1}, \"2\": {\"In\": 1}, \"3\": {\"In\": 1}, \"4\": {\"In\": 1}, \"5\": {\"In\": 1}, \"6\": {\"In\": 1}, \"7\": {\"In\": 1}, \"8\": {\"In\": 1}, \"9\": {\"In\": 1}, \"10\": {\"In\": 1}, \"11\": {\"In\": 1}, \"12\": {\"In\": 1}, \"13\": {\"In\": 1}, \"14\": {\"In\": 1}, \"15\": {\"In\": 1}, \"16\": {\"O\": 1}, \"17\": {\"O\": 1}, \"18\": {\"O\": 1}, \"19\": {\"O\": 1}, \"20\": {\"O\": 1}, \"21\": {\"O\": 1}, \"22\": {\"O\": 1}, \"23\": {\"O\": 1}, \"24\": {\"O\": 1}, \"25\": {\"O\": 1}, \"26\": {\"O\": 1}, \"27\": {\"O\": 1}, \"28\": {\"O\": 1}, \"29\": {\"O\": 1}, \"30\": {\"O\": 1}, \"31\": {\"O\": 1}, \"32\": {\"O\": 1}, \"33\": {\"O\": 1}, \"34\": {\"O\": 1}, \"35\": {\"O\": 1}, \"36\": {\"O\": 1}, \"37\": {\"O\": 1}, \"38\": {\"O\": 1}, \"39\": {\"O\": 1}}" n_minim_iter=1 energy=-45151.19128704181 stress="9.675573024626298e-06 7.093583861278206e-13 -8.038303158707399e-13 7.093583861278206e-13 9.675572809218563e-06 9.767520251839164e-13 -8.038303158707399e-13 9.767520251839164e-13 9.675571145096278e-06" free_energy=-45151.19128704181 pbc="T T T"
In      -4.26240209       3.01397343       5.70757122        0       0.00230235      -0.00162801       0.00281980
In       7.23660692       1.19218738       1.57771299        1      -0.00230235       0.00162801      -0.00281980
In       1.28819726      -0.91089302       5.22035510        2      -0.00230235       0.00162801      -0.00281980
In      -1.48710242      -2.10308040       3.64264211        3      -0.00000000       0.00000000       0.00000000
In      -1.28819727       4.06551363       3.39903404        4       0.00230235      -0.00162801      -0.00281980
In       4.66021239      -2.87332624       5.46396316        5       0.00230235       0.00325602      -0.00000000
In      -1.28819727       1.33283456       5.46396316        6       0.00230235       0.00325602       0.00000000
In      -1.68600756       7.07948705       1.82132105        7      -0.00230235      -0.00325602       0.00000000
In       4.26240209       0.14064718       3.88625017        8      -0.00230235       0.00162801       0.00281980
In      -1.48710242       4.20616081      -0.00000000        9       0.00000000       0.00000000      -0.00000000
In       4.26240209       6.44988839       0.24360806       10      -0.00230235       0.00162801       0.00281980
In      -1.28819727      -2.24372758       7.04167615       11       0.00230235      -0.00162801      -0.00281980
In       4.26240209       2.87332625       1.82132105       12      -0.00230235      -0.00325602      -0.00000000
In       1.68600756       5.11705383       2.06492911       13       0.00230235      -0.00162801       0.00281980
In       4.46130724       0.00000000      -0.00000000       14       0.00000000       0.00000000       0.00000000
In       1.48710241       2.10308040       3.64264211       15       0.00000000      -0.00000000       0.00000000
O        0.86888412       4.20630003       3.96486446       16      -0.00777896      -0.00507912      -0.00080344
O       -2.10532071       3.43360373       5.30273141       17      -0.00777896       0.00184376       0.00480036
O       -0.43861449       2.25506446       0.05873709       18      -0.00564331       0.00033363       0.00741599
O       -0.86888412      -0.77241784       1.98231165       19       0.00777896      -0.00323536       0.00399693
O        3.93900621       5.01249053       1.92357456       20       0.00433130       0.00751698      -0.00341906
O        2.00940344       2.94346122       1.66008930       21      -0.00433130       0.00671948       0.00480036
O        2.00940344       6.27519011       0.26348526       22      -0.00433130       0.00079750      -0.00821942
O       -2.27230000       5.97108276       3.70137919       23      -0.00219565       0.00520935       0.00741599
O        3.41281931       1.95109635       7.22654713       24       0.00564331      -0.00033363      -0.00741599
O        5.24650482      -1.76492195       3.58390502       25       0.00219565      -0.00520935      -0.00741599
O        6.38702414       3.28148045       1.71906754       26       0.00564331       0.00658925       0.00341906
O        3.67610966       2.32302744       3.90612737       27      -0.00219565       0.00381776      -0.00821942
O        0.70190483       4.32437222       6.96306186       28      -0.00219565      -0.00902711       0.00080344
O        2.27229999      -0.11821141       0.32222235       29       0.00219565       0.00902711      -0.00080344
O       -3.41281932       0.92468036       5.56621667       30      -0.00564331      -0.00658925      -0.00341906
O        5.07952553       0.77255708       1.98255280       31       0.00777896      -0.00184376      -0.00480036
O        0.96480138       1.26269958       5.62519491       32       0.00433130      -0.00671948      -0.00480036
O        3.41281931      -1.02641598       5.62495376       33       0.00564331      -0.00625562       0.00399693
O        2.10532071      -0.00013923       3.32041976       34       0.00777896       0.00507912       0.00080344
O        0.96480138      -2.06902930       7.02179895       35       0.00433130      -0.00079750       0.00821942
O       -0.70190484       1.88313337       3.37915684       36       0.00219565      -0.00381776       0.00821942
O       -0.96480138      -0.80632972       5.36170965       37      -0.00433130      -0.00751698       0.00341906
O       -0.43861449       5.23257679       1.66033045       38      -0.00564331       0.00625562      -0.00399693
O        3.84308895       4.97857865       5.30297256       39      -0.00777896       0.00323536      -0.00399693
