40
Lattice="8.283021549399715 6.49199062925853e-10 2.907036409927529e-14 -2.7610071837453103 7.809307608176722 -1.124468278774976e-09 -2.761007182827226 -3.904653803439151 6.763058775397761" Properties=species:S:1:pos:R:3:spacegroup_kinds:I:1:forces:R:3 spacegroup="P 1" unit_cell=conventional occupancy="_JSON {\"0\": {\"In\": 1}, \"1\": {\"In\": 1}, \"2\": {\"In\": 1}, \"3\": {\"In\": 1}, \"4\": {\"In\": 1}, \"5\": {\"In\": 1}, \"6\": {\"In\": 1}, \"7\": {\"In\": 1}, \"8\": {\"In\": 1}, \"9\": {\"In\": 1}, \"10\": {\"In\": 1}, \"11\": {\"In\": 1}, \"12\": {\"In\": 1}, \"13\": {\"In\": 1}, \"14\": {\"In\": 1}, \"15\": {\"In\": 1}, \"16\": {\"O\": 1}, \"17\": {\"O\": 1}, \"18\": {\"O\": 1}, \"19\": {\"O\": 1}, \"20\": {\"O\": 1}, \"21\": {\"O\": 1}, \"22\": {\"O\": 1}, \"23\": {\"O\": 1}, \"24\": {\"O\": 1}, \"25\": {\"O\": 1}, \"26\": {\"O\": 1}, \"27\": {\"O\": 1}, \"28\": {\"O\": 1}, \"29\": {\"O\": 1}, \"30\": {\"O\": 1}, \"31\": {\"O\": 1}, \"32\": {\"O\": 1}, \"33\": {\"O\": 1}, \"34\": {\"O\": 1}, \"35\": {\"O\": 1}, \"36\": {\"O\": 1}, \"37\": {\"O\": 1}, \"38\": {\"O\": 1}, \"39\": {\"O\": 1}}" n_minim_iter=1 energy=-45151.94628191779 stress="-0.057588650168238054 9.29487382620836e-13 -4.888830747853816e-13 9.29487382620836e-13 -0.05758865016961103 -1.4633969710985248e-12 -4.888830747853816e-13 -1.4633969710985248e-12 -0.057588650167628125" free_energy=-45151.94628191779 pbc="T T T"
In      -3.92578566       2.77594966       5.33650231        0      -0.14311882       0.10120029      -0.17528405
In       6.68679284       1.12870415       1.42655646        1       0.14311882      -0.10120029       0.17528405
In       1.16477847      -0.82362276       4.80808585        2       0.14311882      -0.10120029       0.17528405
In      -1.38050359      -1.95232690       3.38152939        3      -0.00000000      -0.00000000      -0.00000000
In      -1.16477848       3.75211311       3.11732115        4      -0.14311882       0.10120029       0.17528405
In       4.35723589      -2.62340896       5.07229408        5      -0.14311882      -0.20240058       0.00000000
In      -1.16477848       1.28124484       5.07229408        6      -0.14311882      -0.20240058      -0.00000000
In      -1.59622871       6.52806277       1.69076469        7       0.14311882       0.20240058       0.00000000
In       3.92578566       0.15254070       3.64573762        8       0.14311882      -0.10120029      -0.17528405
In      -1.38050359       3.90465381      -0.00000000        9       0.00000000       0.00000000       0.00000000
In       3.92578566       6.00952140       0.26420823       10       0.14311882      -0.10120029      -0.17528405
In      -1.16477848      -2.10486759       6.49885054       11      -0.14311882       0.10120029       0.17528405
In       3.92578566       2.62340897       1.69076469       12       0.14311882       0.20240058      -0.00000000
In       1.59622871       4.72827656       1.95497292       13      -0.14311882       0.10120029      -0.17528405
In       4.14151077       0.00000000      -0.00000000       14      -0.00000000       0.00000000       0.00000000
In       1.38050359       1.95232690       3.38152938       15       0.00000000      -0.00000000       0.00000000
O        0.89608641       3.91295989       3.68423779       16      -0.22727980      -0.03416644       0.30356428
O       -1.86492077       3.18649048       4.91374660       17      -0.22727980       0.27997760      -0.12219313
O       -0.37056435       2.12982093      -0.01910682       18       0.15599305       0.00896277       0.34721832
O       -0.89608642      -0.70985724       1.83492562       19       0.22727980       0.24581116       0.18137115
O        3.62589229       4.60347972       1.85403244       20       0.33972534      -0.04534457      -0.16584717
O        1.89612207       2.64842757       1.53221721       21      -0.33972534       0.12095558      -0.12219313
O        1.89612207       5.85970595       0.32181522       22      -0.33972534      -0.16630015      -0.04365404
O       -2.13153588       5.49641182       3.36242256       23       0.04354750      -0.15005925       0.34721832
O        3.13157153       1.77483288       6.78216559       24      -0.15599305      -0.00896277      -0.34721832
O        4.89254306      -1.59175801       3.40063620       25      -0.04354750       0.15005925      -0.34721832
O        5.89257872       3.00069038       1.52749695       26      -0.15599305       0.30518127       0.16584717
O        3.39047849       2.11606436       3.70334461       27       0.04354750       0.37572951      -0.04365404
O        0.62947130       4.10148524       6.46035037       28       0.04354750      -0.22567026      -0.30356428
O        2.13153588      -0.19683143       0.30270840       29      -0.04354750       0.22567026       0.30356428
O       -3.13157154       0.90396343       5.23556182       30       0.15599305      -0.30518127      -0.16584717
O        4.62592795       0.71816332       1.84931217       31       0.22727980      -0.27997760       0.12219313
O        0.86488511       1.25622624       5.23084156       32       0.33972534      -0.12095558       0.12219313
O        3.13157154      -0.87086944       5.21645500       33      -0.15599305      -0.29621850       0.18137115
O        1.86492077      -0.00830608       3.07882098       34       0.22727980       0.03416644      -0.30356428
O        0.86488511      -1.95505215       6.44124355       35       0.33972534       0.16630015       0.04365404
O       -0.62947131       1.78858945       3.05971416       36      -0.04354750      -0.37572951       0.04365404
O       -0.86488511      -0.69882591       4.90902633       37      -0.33972534       0.04534457       0.16584717
O       -0.37056436       4.77552325       1.54660377       38       0.15599305       0.29621850      -0.18137115
O        3.65709360       4.61451105       4.92813315       39      -0.22727980      -0.24581116      -0.18137115
40
Lattice="8.283021549399717 6.491990629258531e-10 2.907036409927529e-14 -2.7610071837453107 7.809307608176724 -1.124468278774976e-09 -2.7610071828272265 -3.904653803439152 6.763058775397761" Properties=species:S:1:pos:R:3:spacegroup_kinds:I:1:forces:R:3 spacegroup="P 1" unit_cell=conventional occupancy="_JSON {\"0\": {\"In\": 1}, \"1\": {\"In\": 1}, \"2\": {\"In\": 1}, \"3\": {\"In\": 1}, \"4\": {\"In\": 1}, \"5\": {\"In\": 1}, \"6\": {\"In\": 1}, \"7\": {\"In\": 1}, \"8\": {\"In\": 1}, \"9\": {\"In\": 1}, \"10\": {\"In\": 1}, \"11\": {\"In\": 1}, \"12\": {\"In\": 1}, \"13\": {\"In\": 1}, \"14\": {\"In\": 1}, \"15\": {\"In\": 1}, \"16\": {\"O\": 1}, \"17\": {\"O\": 1}, \"18\": {\"O\": 1}, \"19\": {\"O\": 1}, \"20\": {\"O\": 1}, \"21\": {\"O\": 1}, \"22\": {\"O\": 1}, \"23\": {\"O\": 1}, \"24\": {\"O\": 1}, \"25\": {\"O\": 1}, \"26\": {\"O\": 1}, \"27\": {\"O\": 1}, \"28\": {\"O\": 1}, \"29\": {\"O\": 1}, \"30\": {\"O\": 1}, \"31\": {\"O\": 1}, \"32\": {\"O\": 1}, \"33\": {\"O\": 1}, \"34\": {\"O\": 1}, \"35\": {\"O\": 1}, \"36\": {\"O\": 1}, \"37\": {\"O\": 1}, \"38\": {\"O\": 1}, \"39\": {\"O\": 1}}" n_minim_iter=2 energy=-45151.988365261204 stress="-0.05198512219426774 6.795039447687893e-14 7.235655683412783e-13 6.795039447687893e-14 -0.051985122190278274 -1.1804575360925178e-13 7.235655683412783e-13 -1.1804575360925178e-13 -0.05198512219202458" free_energy=-45151.988365261204 pbc="T T T"
In      -3.92783021       2.77739538       5.33399825        0      -0.02325977       0.01644714      -0.02848729
In       6.68883739       1.12725843       1.42906052        1       0.02325977      -0.01644714       0.02848729
In       1.16682303      -0.82506847       4.81058991        2       0.02325977      -0.01644714       0.02848729
In      -1.38050359      -1.95232690       3.38152939        3       0.00000000       0.00000000      -0.00000000
In      -1.16682303       3.75355883       3.11982521        4      -0.02325977       0.01644714       0.02848729
In       4.35519134      -2.62630040       5.07229408        5      -0.02325977      -0.03289429      -0.00000000
In      -1.16682303       1.27835340       5.07229408        6      -0.02325977      -0.03289429       0.00000000
In      -1.59418416       6.53095421       1.69076469        7       0.02325977       0.03289429       0.00000000
In       3.92783021       0.15109498       3.64323356        8       0.02325977      -0.01644714      -0.02848729
In      -1.38050359       3.90465381      -0.00000000        9       0.00000000      -0.00000000       0.00000000
In       3.92783021       6.00807568       0.26170417       10       0.02325977      -0.01644714      -0.02848729
In      -1.16682303      -2.10342187       6.50135460       11      -0.02325977       0.01644714       0.02848729
In       3.92783021       2.62630041       1.69076469       12       0.02325977       0.03289429      -0.00000000
In       1.59418415       4.72972228       1.95246886       13      -0.02325977       0.01644714      -0.02848729
In       4.14151077       0.00000000      -0.00000000       14       0.00000000       0.00000000       0.00000000
In       1.38050359       1.95232690       3.38152938       15       0.00000000       0.00000000      -0.00000000
O        0.89283956       3.91247180       3.68857442       16      -0.18350606      -0.01815275       0.07502486
O       -1.86816762       3.19049016       4.91200098       17      -0.18350606       0.07404981      -0.02179169
O       -0.36833588       2.12994897      -0.01414656       18      -0.00846843      -0.04972048       0.19258475
O       -0.89283956      -0.70634565       1.83751663       19       0.18350606       0.05589706       0.05323317
O        3.63074551       4.60283194       1.85166319       20       0.13098352       0.05529179      -0.13935157
O        1.89126885       2.65015551       1.53047159       21      -0.13098352       0.14832790      -0.02179169
O        1.89126885       5.85733024       0.32119159       22      -0.13098352      -0.09303610      -0.11755988
O       -2.13091377       5.49426812       3.36738283       23       0.04405411       0.02455761       0.19258475
O        3.12934306       1.77470484       6.77720533       24       0.00846843       0.04972048      -0.19258475
O        4.89192095      -1.58961431       3.39567594       25      -0.04405411      -0.02455761      -0.19258475
O        5.89035025       3.00505011       1.52986619       26       0.00846843       0.14192304       0.13935157
O        3.39110059       2.12143192       3.70272098       27       0.04405411       0.15450448      -0.11755988
O        0.63009341       4.09826138       6.45601373       28       0.04405411      -0.17906209      -0.07502486
O        2.13091377      -0.19360757       0.30704504       29      -0.04405411       0.17906209       0.07502486
O       -3.12934307       0.89960370       5.23319258       30      -0.00846843      -0.14192304      -0.13935157
O        4.62917480       0.71416364       1.85105779       31       0.18350606      -0.07404981       0.02179169
O        0.86973833       1.25449830       5.23258718       32       0.13098352      -0.14832790       0.02179169
O        3.12934306      -0.87510114       5.21904602       33       0.00846843      -0.19164352       0.05323317
O        1.86816762      -0.00781799       3.07448435       34       0.18350606       0.01815275      -0.07502486
O        0.86973833      -1.95267643       6.44186718       35       0.13098352       0.09303611       0.11755988
O       -0.63009341       1.78322189       3.06033779       36      -0.04405411      -0.15450448       0.11755988
O       -0.86973833      -0.69817813       4.91139558       37      -0.13098352      -0.05529179       0.13935157
O       -0.36833588       4.77975495       1.54401275       38      -0.00846843       0.19164352      -0.05323317
O        3.65384674       4.61099946       4.92554214       39      -0.18350606      -0.05589706      -0.05323317
40
Lattice="8.283021549399718 6.491990629258533e-10 2.90703640992753e-14 -2.7610071837453116 7.809307608176725 -1.1244682787749763e-09 -2.7610071828272273 -3.9046538034391527 6.763058775397762" Properties=species:S:1:pos:R:3:spacegroup_kinds:I:1:forces:R:3 spacegroup="P 1" unit_cell=conventional occupancy="_JSON {\"0\": {\"In\": 1}, \"1\": {\"In\": 1}, \"2\": {\"In\": 1}, \"3\": {\"In\": 1}, \"4\": {\"In\": 1}, \"5\": {\"In\": 1}, \"6\": {\"In\": 1}, \"7\": {\"In\": 1}, \"8\": {\"In\": 1}, \"9\": {\"In\": 1}, \"10\": {\"In\": 1}, \"11\": {\"In\": 1}, \"12\": {\"In\": 1}, \"13\": {\"In\": 1}, \"14\": {\"In\": 1}, \"15\": {\"In\": 1}, \"16\": {\"O\": 1}, \"17\": {\"O\": 1}, \"18\": {\"O\": 1}, \"19\": {\"O\": 1}, \"20\": {\"O\": 1}, \"21\": {\"O\": 1}, \"22\": {\"O\": 1}, \"23\": {\"O\": 1}, \"24\": {\"O\": 1}, \"25\": {\"O\": 1}, \"26\": {\"O\": 1}, \"27\": {\"O\": 1}, \"28\": {\"O\": 1}, \"29\": {\"O\": 1}, \"30\": {\"O\": 1}, \"31\": {\"O\": 1}, \"32\": {\"O\": 1}, \"33\": {\"O\": 1}, \"34\": {\"O\": 1}, \"35\": {\"O\": 1}, \"36\": {\"O\": 1}, \"37\": {\"O\": 1}, \"38\": {\"O\": 1}, \"39\": {\"O\": 1}}" n_minim_iter=3 energy=-45152.00648073598 stress="-0.04739661267887434 1.5904312776440512e-12 -2.1478088616924476e-12 1.5904312776440512e-12 -0.04739661268194047 1.2936326502542273e-12 -2.1478088616924476e-12 1.2936326502542273e-12 -0.04739661268044229" free_energy=-45152.00648073598 pbc="T T T"
In      -3.92878503       2.77807054       5.33282884        0       0.03419973      -0.02418286       0.04188594
In       6.68979221       1.12658327       1.43022993        1      -0.03419973       0.02418286      -0.04188594
In       1.16777785      -0.82574363       4.81175932        2      -0.03419973       0.02418286      -0.04188594
In      -1.38050359      -1.95232690       3.38152939        3       0.00000000       0.00000000       0.00000000
In      -1.16777785       3.75423399       3.12099462        4       0.03419973      -0.02418286      -0.04188594
In       4.35423652      -2.62765072       5.07229408        5       0.03419973       0.04836572      -0.00000000
In      -1.16777785       1.27700308       5.07229408        6       0.03419973       0.04836572      -0.00000000
In      -1.59322934       6.53230453       1.69076469        7      -0.03419973      -0.04836572      -0.00000000
In       3.92878503       0.15041982       3.64206415        8      -0.03419973       0.02418286       0.04188594
In      -1.38050359       3.90465381      -0.00000000        9      -0.00000000       0.00000000       0.00000000
In       3.92878503       6.00740052       0.26053476       10      -0.03419973       0.02418286       0.04188594
In      -1.16777785      -2.10274671       6.50252401       11       0.03419973      -0.02418286      -0.04188594
In       3.92878503       2.62765072       1.69076469       12      -0.03419973      -0.04836572       0.00000000
In       1.59322933       4.73039744       1.95129945       13       0.03419973      -0.02418286       0.04188594
In       4.14151077       0.00000000      -0.00000000       14       0.00000000       0.00000000       0.00000000
In       1.38050359       1.95232690       3.38152938       15      -0.00000000      -0.00000000       0.00000000
O        0.88783962       3.91194438       3.69121024       16      -0.10811372       0.00619261      -0.05120385
O       -1.87316757       3.19303656       4.91113983       17      -0.10811372      -0.04744014       0.02023897
O       -0.36809902       2.12879238      -0.00859396       18      -0.07492645      -0.07090708       0.06088491
O       -0.88783962      -0.70432667       1.83929130       19       0.10811372      -0.04124753      -0.03096488
O        3.63481292       4.60401876       1.84788526       20      -0.00868909       0.07639945      -0.09184979
O        1.88720144       2.65402070       1.52961044       21       0.00868909       0.11774397       0.02023897
O        1.88720144       5.85465186       0.31827481       22       0.00868909      -0.04134452      -0.11208876
O       -2.12974438       5.49443033       3.37293543       23       0.04187635       0.09427703       0.06088490
O        3.12910620       1.77586142       6.77165273       24       0.07492645       0.07090708      -0.06088491
O        4.89075156      -1.58977652       3.39012334       25      -0.04187635      -0.09427703      -0.06088491
O        5.89011338       3.00928051       1.53364412       26       0.07492645       0.01727433       0.09184979
O        3.39226999       2.12615951       3.69980420       27       0.04187635       0.00558936      -0.11208876
O        0.63126280       4.09337158       6.45337791       28       0.04187635      -0.09986639       0.05120385
O        2.12974438      -0.18871777       0.30968086       29      -0.04187635       0.09986639      -0.05120385
O       -3.12910620       0.89537330       5.22941465       30      -0.07492645      -0.01727433      -0.09184979
O        4.63417475       0.71161725       1.85191894       31       0.10811372       0.04744014      -0.02023897
O        0.87380574       1.25063311       5.23344833       32      -0.00868909      -0.11774397      -0.02023897
O        3.12910620      -0.88048812       5.22082069       33       0.07492645      -0.08818142      -0.03096488
O        1.87316756      -0.00729057       3.07184853       34       0.10811372      -0.00619261       0.05120385
O        0.87380574      -1.94999805       6.44478396       35      -0.00868909       0.04134452       0.11208876
O       -0.63126281       1.77849430       3.06325457       36      -0.04187635      -0.00558936       0.11208876
O       -0.87380574      -0.69936495       4.91517351       37       0.00868909      -0.07639945       0.09184979
O       -0.36809902       4.78514193       1.54223808       38      -0.07492645       0.08818142       0.03096488
O        3.64884680       4.60898048       4.92376747       39      -0.10811372       0.04124753       0.03096488
40
Lattice="8.283021549399718 6.491990629258533e-10 2.90703640992753e-14 -2.7610071837453116 7.809307608176725 -1.1244682787749763e-09 -2.7610071828272273 -3.9046538034391527 6.763058775397762" Properties=species:S:1:pos:R:3:spacegroup_kinds:I:1:forces:R:3 spacegroup="P 1" unit_cell=conventional occupancy="_JSON {\"0\": {\"In\": 1}, \"1\": {\"In\": 1}, \"2\": {\"In\": 1}, \"3\": {\"In\": 1}, \"4\": {\"In\": 1}, \"5\": {\"In\": 1}, \"6\": {\"In\": 1}, \"7\": {\"In\": 1}, \"8\": {\"In\": 1}, \"9\": {\"In\": 1}, \"10\": {\"In\": 1}, \"11\": {\"In\": 1}, \"12\": {\"In\": 1}, \"13\": {\"In\": 1}, \"14\": {\"In\": 1}, \"15\": {\"In\": 1}, \"16\": {\"O\": 1}, \"17\": {\"O\": 1}, \"18\": {\"O\": 1}, \"19\": {\"O\": 1}, \"20\": {\"O\": 1}, \"21\": {\"O\": 1}, \"22\": {\"O\": 1}, \"23\": {\"O\": 1}, \"24\": {\"O\": 1}, \"25\": {\"O\": 1}, \"26\": {\"O\": 1}, \"27\": {\"O\": 1}, \"28\": {\"O\": 1}, \"29\": {\"O\": 1}, \"30\": {\"O\": 1}, \"31\": {\"O\": 1}, \"32\": {\"O\": 1}, \"33\": {\"O\": 1}, \"34\": {\"O\": 1}, \"35\": {\"O\": 1}, \"36\": {\"O\": 1}, \"37\": {\"O\": 1}, \"38\": {\"O\": 1}, \"39\": {\"O\": 1}}" n_minim_iter=4 energy=-45152.01339808309 stress="-0.04534299439536065 -6.671207652563187e-13 -5.613026210271203e-13 -6.671207652563187e-13 -0.0453429943955306 1.1370372269158145e-12 -5.613026210271203e-13 1.1370372269158145e-12 -0.045342994393973594" free_energy=-45152.01339808309 pbc="T T T"
In      -3.92870501       2.77801395       5.33292685        0       0.03133788      -0.02215923       0.03838090
In       6.68971219       1.12663985       1.43013192        1      -0.03133788       0.02215923      -0.03838091
In       1.16769782      -0.82568705       4.81166131        2      -0.03133788       0.02215923      -0.03838090
In      -1.38050359      -1.95232690       3.38152939        3       0.00000000      -0.00000000       0.00000000
In      -1.16769783       3.75417740       3.12089661        4       0.03133788      -0.02215923      -0.03838091
In       4.35431654      -2.62753755       5.07229408        5       0.03133788       0.04431845      -0.00000000
In      -1.16769783       1.27711626       5.07229408        6       0.03133788       0.04431845      -0.00000000
In      -1.59330936       6.53219136       1.69076469        7      -0.03133788      -0.04431845      -0.00000000
In       3.92870501       0.15047640       3.64216216        8      -0.03133788       0.02215923       0.03838091
In      -1.38050359       3.90465381      -0.00000000        9       0.00000000      -0.00000000       0.00000000
In       3.92870501       6.00745711       0.26063277       10      -0.03133788       0.02215923       0.03838090
In      -1.16769783      -2.10280330       6.50242600       11       0.03133788      -0.02215923      -0.03838091
In       3.92870501       2.62753755       1.69076469       12      -0.03133788      -0.04431845      -0.00000000
In       1.59330936       4.73034086       1.95139746       13       0.03133788      -0.02215923       0.03838091
In       4.14151077       0.00000000      -0.00000000       14       0.00000000       0.00000000       0.00000000
In       1.38050359       1.95232690       3.38152938       15      -0.00000000      -0.00000000       0.00000000
O        0.88378809       3.91185077       3.69162627       16      -0.04459770       0.01930006      -0.06230281
O       -1.87721910       3.19344365       4.91101288       17      -0.04459770      -0.06360584       0.01443706
O       -0.36915397       2.12708057      -0.00505087       18      -0.05663779      -0.05509221      -0.00030898
O       -0.88378809      -0.70401318       1.83958038       19       0.04459770      -0.04430578      -0.04786575
O        3.63654724       4.60575087       1.84463124       20      -0.04510226       0.04412739      -0.04755676
O        1.88546712       2.65770482       1.52948349       21       0.04510226       0.06324906       0.01443706
O        1.88546712       5.85269986       0.31514775       22       0.04510226      -0.01912167      -0.06199382
O       -2.12848212       5.49599555       3.37647852       23       0.03306217       0.07176269      -0.00030898
O        3.13016115       1.77757323       6.76810964       24       0.05663779       0.05509221       0.00030898
O        4.88948930      -1.59134174       3.38658025       25      -0.03306217      -0.07176269       0.00030898
O        5.89116833       3.01149301       1.53689814       26       0.05663779      -0.02781369       0.04755676
O        3.39353225       2.12844531       3.69667714       27       0.03306217      -0.03614893      -0.06199383
O        0.63252506       4.08952056       6.45296189       28       0.03306217      -0.03561376       0.06230281
O        2.12848212      -0.18486675       0.31009688       29      -0.03306217       0.03561376      -0.06230281
O       -3.13016115       0.89316079       5.22616063       30      -0.05663779       0.02781369      -0.04755676
O        4.63822628       0.71121016       1.85204589       31       0.04459770       0.06360584      -0.01443706
O        0.87554006       1.24694899       5.23357528       32      -0.04510226      -0.06324906      -0.01443706
O        3.13016115      -0.88441244       5.22110977       33       0.05663779      -0.02727852      -0.04786575
O        1.87721909      -0.00719697       3.07143250       34       0.04459770      -0.01930006       0.06230281
O        0.87554006      -1.94804605       6.44791102       35      -0.04510226       0.01912167       0.06199382
O       -0.63252507       1.77620850       3.06638163       36      -0.03306217       0.03614893       0.06199382
O       -0.87554006      -0.70109707       4.91842753       37       0.04510226      -0.04412739       0.04755676
O       -0.36915397       4.78906624       1.54194900       38      -0.05663779       0.02727852       0.04786575
O        3.64479527       4.60866699       4.92347839       39      -0.04459770       0.04430578       0.04786575
40
Lattice="8.283021549399718 6.491990629258533e-10 2.90703640992753e-14 -2.7610071837453116 7.809307608176725 -1.1244682787749763e-09 -2.7610071828272273 -3.9046538034391527 6.763058775397762" Properties=species:S:1:pos:R:3:spacegroup_kinds:I:1:forces:R:3 spacegroup="P 1" unit_cell=conventional occupancy="_JSON {\"0\": {\"In\": 1}, \"1\": {\"In\": 1}, \"2\": {\"In\": 1}, \"3\": {\"In\": 1}, \"4\": {\"In\": 1}, \"5\": {\"In\": 1}, \"6\": {\"In\": 1}, \"7\": {\"In\": 1}, \"8\": {\"In\": 1}, \"9\": {\"In\": 1}, \"10\": {\"In\": 1}, \"11\": {\"In\": 1}, \"12\": {\"In\": 1}, \"13\": {\"In\": 1}, \"14\": {\"In\": 1}, \"15\": {\"In\": 1}, \"16\": {\"O\": 1}, \"17\": {\"O\": 1}, \"18\": {\"O\": 1}, \"19\": {\"O\": 1}, \"20\": {\"O\": 1}, \"21\": {\"O\": 1}, \"22\": {\"O\": 1}, \"23\": {\"O\": 1}, \"24\": {\"O\": 1}, \"25\": {\"O\": 1}, \"26\": {\"O\": 1}, \"27\": {\"O\": 1}, \"28\": {\"O\": 1}, \"29\": {\"O\": 1}, \"30\": {\"O\": 1}, \"31\": {\"O\": 1}, \"32\": {\"O\": 1}, \"33\": {\"O\": 1}, \"34\": {\"O\": 1}, \"35\": {\"O\": 1}, \"36\": {\"O\": 1}, \"37\": {\"O\": 1}, \"38\": {\"O\": 1}, \"39\": {\"O\": 1}}" n_minim_iter=5 energy=-45152.015943766295 stress="-0.04479520047247047 4.0144453925094233e-13 -3.692747676601586e-13 4.0144453925094233e-13 -0.044795200474042736 9.72455447138538e-14 -3.692747676601586e-13 9.72455447138538e-14 -0.04479520047131283" free_energy=-45152.015943766295 pbc="T T T"
In      -3.92829989       2.77772749       5.33342301        0       0.00751292      -0.00531244       0.00920141
In       6.68930707       1.12692631       1.42963576        1      -0.00751292       0.00531244      -0.00920141
In       1.16729271      -0.82540059       4.81116514        2      -0.00751292       0.00531244      -0.00920141
In      -1.38050359      -1.95232690       3.38152939        3       0.00000000       0.00000000      -0.00000000
In      -1.16729271       3.75389094       3.12040045        4       0.00751292      -0.00531244      -0.00920141
In       4.35472166      -2.62696463       5.07229408        5       0.00751292       0.01062488      -0.00000000
In      -1.16729271       1.27768918       5.07229408        6       0.00751292       0.01062488      -0.00000000
In      -1.59371448       6.53161844       1.69076469        7      -0.00751292      -0.01062488       0.00000000
In       3.92829989       0.15076286       3.64265832        8      -0.00751292       0.00531244       0.00920141
In      -1.38050359       3.90465381      -0.00000000        9      -0.00000000       0.00000000       0.00000000
In       3.92829989       6.00774357       0.26112893       10      -0.00751292       0.00531244       0.00920141
In      -1.16729271      -2.10308976       6.50192984       11       0.00751292      -0.00531244      -0.00920141
In       3.92829989       2.62696463       1.69076469       12      -0.00751292      -0.01062488       0.00000000
In       1.59371447       4.73005440       1.95189363       13       0.00751292      -0.00531244       0.00920141
In       4.14151077       0.00000000      -0.00000000       14      -0.00000000       0.00000000       0.00000000
In       1.38050359       1.95232690       3.38152938       15      -0.00000000      -0.00000000      -0.00000000
O        0.88117632       3.91217343       3.69102490       16      -0.00273022       0.01661520      -0.02615988
O       -1.87983086       3.19276152       4.91103414       17      -0.00273022      -0.03096272      -0.00130925
O       -0.37036347       2.12540690      -0.00331220       18      -0.01443704      -0.02268475      -0.01564712
O       -0.88117632      -0.70437266       1.83900027       19       0.00273022      -0.01434752      -0.02746913
O        3.63677472       4.60711417       1.84231246       20      -0.02828186       0.00531365      -0.01182201
O        1.88523965       2.66039460       1.52950475       21       0.02828186       0.01289498      -0.00130925
O        1.88523965       5.85137338       0.31280771       22       0.02828186      -0.00758133      -0.01051276
O       -2.12730733       5.49769377       3.37821719       23       0.01657504       0.02117296      -0.01564712
O        3.13137065       1.77924691       6.76637097       24       0.01443704       0.02268475       0.01564712
O        4.88831451      -1.59303997       3.38484158       25      -0.01657504      -0.02117296       0.01564712
O        5.89237784       3.01216191       1.53921692       26       0.01443704      -0.02489318       0.01182201
O        3.39470704       2.12910193       3.69433709       27       0.01657504      -0.02413728      -0.01051276
O        0.63369985       4.08716572       6.45356326       28       0.01657504       0.00296433       0.02615988
O        2.12730733      -0.18251191       0.30949551       29      -0.01657504      -0.00296433      -0.02615988
O       -3.13137066       0.89249190       5.22384185       30      -0.01443704       0.02489318      -0.01182201
O        4.64083804       0.71189228       1.85202463       31       0.00273022       0.03096272       0.00130925
O        0.87576753       1.24425921       5.23355402       32      -0.02828186      -0.01289498       0.00130925
O        3.13137066      -0.88675501       5.22052965       33       0.01443704       0.00220843      -0.02746913
O        1.87983086      -0.00751962       3.07203387       34       0.00273022      -0.01661520       0.02615988
O        0.87576753      -1.94671957       6.45025106       35      -0.02828186       0.00758133       0.01051276
O       -0.63369986       1.77555188       3.06872168       36      -0.01657504       0.02413728       0.01051276
O       -0.87576754      -0.70246036       4.92074631       37       0.02828186      -0.00531365       0.01182201
O       -0.37036348       4.79140882       1.54252912       38      -0.01443704      -0.00220843       0.02746913
O        3.64218350       4.60902647       4.92405850       39      -0.00273022       0.01434752       0.02746913
40