40
Lattice="8.452109291599667 6.624512273258921e-10 2.4241778012480948e-14 -2.8173697644911218 7.968725060339118 -1.1474206418920883e-09 -2.8173697635542925 -3.9843625295070955 6.9011183387922905" Properties=species:S:1:pos:R:3:spacegroup_kinds:I:1:forces:R:3 spacegroup="P 1" unit_cell=conventional occupancy="_JSON {\"0\": {\"In\": 1}, \"1\": {\"In\": 1}, \"2\": {\"In\": 1}, \"3\": {\"In\": 1}, \"4\": {\"In\": 1}, \"5\": {\"In\": 1}, \"6\": {\"In\": 1}, \"7\": {\"In\": 1}, \"8\": {\"In\": 1}, \"9\": {\"In\": 1}, \"10\": {\"In\": 1}, \"11\": {\"In\": 1}, \"12\": {\"In\": 1}, \"13\": {\"In\": 1}, \"14\": {\"In\": 1}, \"15\": {\"In\": 1}, \"16\": {\"O\": 1}, \"17\": {\"O\": 1}, \"18\": {\"O\": 1}, \"19\": {\"O\": 1}, \"20\": {\"O\": 1}, \"21\": {\"O\": 1}, \"22\": {\"O\": 1}, \"23\": {\"O\": 1}, \"24\": {\"O\": 1}, \"25\": {\"O\": 1}, \"26\": {\"O\": 1}, \"27\": {\"O\": 1}, \"28\": {\"O\": 1}, \"29\": {\"O\": 1}, \"30\": {\"O\": 1}, \"31\": {\"O\": 1}, \"32\": {\"O\": 1}, \"33\": {\"O\": 1}, \"34\": {\"O\": 1}, \"35\": {\"O\": 1}, \"36\": {\"O\": 1}, \"37\": {\"O\": 1}, \"38\": {\"O\": 1}, \"39\": {\"O\": 1}}" n_minim_iter=1 energy=-45151.946189166774 stress="0.031873878218437166 7.011594982862926e-13 -3.5810229131811446e-13 7.011594982862926e-13 0.03187387821586534 -8.144047615749803e-13 -3.5810229131811446e-13 -8.144047615749803e-13 0.03187387821962778" free_energy=-45151.946189166774 pbc="T T T"
In      -4.00926726       2.83498006       5.44134800        0      -0.00056074       0.00039650      -0.00068676
In       6.82663702       1.14938247       1.45977034        1       0.00056074      -0.00039650       0.00068676
In       1.19189749      -0.84279880       4.91032950        2       0.00056074      -0.00039650       0.00068676
In      -1.40868488      -1.99218126       3.45055917        3       0.00000000      -0.00000000       0.00000000
In      -1.19189749       3.83107070       3.18504992        4      -0.00056074       0.00039650       0.00068676
In       4.44284204      -2.68168823       5.17583875        5      -0.00056074      -0.00079300       0.00000000
In      -1.19189749       1.30267430       5.17583875        6      -0.00056074      -0.00079300       0.00000000
In      -1.62547228       6.66605076       1.72527958        7       0.00056074       0.00079300      -0.00000000
In       4.00926725       0.15329184       3.71606841        8       0.00056074      -0.00039650      -0.00068676
In      -1.40868488       3.98436253      -0.00000000        9      -0.00000000       0.00000000       0.00000000
In       4.00926725       6.12983563       0.26550924       10       0.00056074      -0.00039650      -0.00068676
In      -1.19189749      -2.14547310       6.63560909       11      -0.00056074       0.00039650       0.00068676
In       4.00926725       2.68168823       1.72527958       12       0.00056074       0.00079300      -0.00000000
In       1.62547227       4.82716133       1.99078883       13      -0.00056074       0.00039650      -0.00068676
In       4.22605464       0.00000000      -0.00000000       14      -0.00000000       0.00000000       0.00000000
In       1.40868488       1.99218127       3.45055917       15       0.00000000      -0.00000000       0.00000000
O        0.92890488       3.99535135       3.74923658       16      -0.05456167      -0.05373556       0.08490839
O       -1.88846489       3.24143971       5.01698345       17      -0.05456167       0.10040060       0.00408216
O       -0.38043903       2.17510441      -0.03718796       18       0.02580900       0.04356995       0.10251573
O       -0.92890488      -0.73193399       1.86510169       19       0.05456167       0.04666504       0.08899055
O        3.68554696       4.69482605       1.90228964       20       0.11284582       0.01252244      -0.01352518
O        1.94919256       2.69216313       1.56642428       21      -0.11284582       0.01797437       0.00408216
O        1.94919256       5.98702545       0.33586536       22      -0.11284582      -0.00545193      -0.01760734
O       -2.17752111       5.61019035       3.41337121       23      -0.03247514      -0.03885628       0.10251573
O        3.19780879       1.80925813       6.93830629       24      -0.02580900      -0.04356995      -0.10251573
O        4.99489087      -1.62582782       3.48774712       25       0.03247514       0.03885628      -0.10251573
O        6.01517856       3.04752775       1.54826952       26      -0.02580900       0.11056620       0.01352518
O        3.45721842       2.14315227       3.78642453       27      -0.03247514       0.10820937      -0.01760734
O        0.63984865       4.19974497       6.60244092       28      -0.03247514      -0.06935309      -0.08490839
O        2.17752111      -0.21538244       0.29867741       29       0.03247514       0.06935309       0.08490839
O       -3.19780879       0.93683478       5.35284881       30       0.02580900      -0.11056620      -0.01352518
O        4.70583465       0.74292282       1.88413489       31       0.05456167      -0.10040060      -0.00408216
O        0.86817720       1.29219940       5.33469406       32       0.11284582      -0.01797437      -0.00408216
O        3.19780879      -0.87242335       5.31566086       33      -0.02580900      -0.06699625       0.08899055
O        1.88846488      -0.01098882       3.15188176       34       0.05456167       0.05373556      -0.08490839
O        0.86817720      -2.00266292       6.56525297       35       0.11284582       0.00545193       0.01760734
O       -0.63984866       1.84121026       3.11469380       36       0.03247514      -0.10820937       0.01760734
O       -0.86817720      -0.71046352       4.99882869       37      -0.11284582      -0.01252244       0.01352518
O       -0.38043903       4.85678588       1.58545747       38       0.02580900       0.06699625      -0.08899055
O        3.74627464       4.71629653       5.03601664       39      -0.05456167      -0.04666504      -0.08899055
40
Lattice="8.452109291599667 6.624512273258921e-10 2.4241778012480948e-14 -2.8173697644911218 7.968725060339118 -1.1474206418920883e-09 -2.8173697635542925 -3.9843625295070955 6.9011183387922905" Properties=species:S:1:pos:R:3:spacegroup_kinds:I:1:forces:R:3 spacegroup="P 1" unit_cell=conventional occupancy="_JSON {\"0\": {\"In\": 1}, \"1\": {\"In\": 1}, \"2\": {\"In\": 1}, \"3\": {\"In\": 1}, \"4\": {\"In\": 1}, \"5\": {\"In\": 1}, \"6\": {\"In\": 1}, \"7\": {\"In\": 1}, \"8\": {\"In\": 1}, \"9\": {\"In\": 1}, \"10\": {\"In\": 1}, \"11\": {\"In\": 1}, \"12\": {\"In\": 1}, \"13\": {\"In\": 1}, \"14\": {\"In\": 1}, \"15\": {\"In\": 1}, \"16\": {\"O\": 1}, \"17\": {\"O\": 1}, \"18\": {\"O\": 1}, \"19\": {\"O\": 1}, \"20\": {\"O\": 1}, \"21\": {\"O\": 1}, \"22\": {\"O\": 1}, \"23\": {\"O\": 1}, \"24\": {\"O\": 1}, \"25\": {\"O\": 1}, \"26\": {\"O\": 1}, \"27\": {\"O\": 1}, \"28\": {\"O\": 1}, \"29\": {\"O\": 1}, \"30\": {\"O\": 1}, \"31\": {\"O\": 1}, \"32\": {\"O\": 1}, \"33\": {\"O\": 1}, \"34\": {\"O\": 1}, \"35\": {\"O\": 1}, \"36\": {\"O\": 1}, \"37\": {\"O\": 1}, \"38\": {\"O\": 1}, \"39\": {\"O\": 1}}" n_minim_iter=2 energy=-45151.95210151806 stress="0.033277034091287065 -2.5779910156525544e-13 4.418575125092858e-13 -2.5779910156525544e-13 0.033277034092615565 -2.991380313568754e-13 4.418575125092858e-13 -2.991380313568754e-13 0.03327703408877759" free_energy=-45151.95210151806 pbc="T T T"
In      -4.00928849       2.83499508       5.44132200        0       0.03507956      -0.02480500       0.04296352
In       6.82665825       1.14936746       1.45979634        1      -0.03507956       0.02480500      -0.04296352
In       1.19191872      -0.84281381       4.91035551        2      -0.03507956       0.02480500      -0.04296352
In      -1.40868488      -1.99218126       3.45055917        3       0.00000000      -0.00000000      -0.00000000
In      -1.19191872       3.83108571       3.18507592        4       0.03507956      -0.02480500      -0.04296352
In       4.44282081      -2.68171825       5.17583875        5       0.03507956       0.04960999       0.00000000
In      -1.19191872       1.30264428       5.17583875        6       0.03507956       0.04960999       0.00000000
In      -1.62545105       6.66608078       1.72527958        7      -0.03507956      -0.04960999       0.00000000
In       4.00928848       0.15327682       3.71604241        8      -0.03507956       0.02480500       0.04296352
In      -1.40868488       3.98436253      -0.00000000        9      -0.00000000      -0.00000000      -0.00000000
In       4.00928848       6.12982062       0.26548324       10      -0.03507956       0.02480500       0.04296352
In      -1.19191872      -2.14545809       6.63563509       11       0.03507956      -0.02480500      -0.04296352
In       4.00928848       2.68171825       1.72527958       12      -0.03507956      -0.04960999       0.00000000
In       1.62545104       4.82717634       1.99076283       13       0.03507956      -0.02480500       0.04296352
In       4.22605464       0.00000000      -0.00000000       14       0.00000000      -0.00000000      -0.00000000
In       1.40868488       1.99218127       3.45055917       15       0.00000000      -0.00000000      -0.00000000
O        0.92683905       3.99331681       3.75245139       16      -0.02772315       0.00936513      -0.01155276
O       -1.89053071       3.24524110       5.01713801       17      -0.02772315      -0.01468755      -0.00233406
O       -0.37946185       2.17675406      -0.03330649       18      -0.01425908      -0.02420809       0.01415600
O       -0.92683906      -0.73016715       1.86847107       19       0.02772315      -0.00532242      -0.01388683
O        3.68981955       4.69530018       1.90177755       20      -0.00460651       0.01349539      -0.02804282
O        1.94491997       2.69284368       1.56657884       21       0.00460651       0.03103349      -0.00233406
O        1.94491997       5.98681903       0.33519871       22       0.00460651      -0.01753810      -0.02570876
O       -2.17875069       5.60871917       3.41725268       23       0.01807058       0.02151295       0.01415600
O        3.19683161       1.80760848       6.93442482       24       0.01425908       0.02420809      -0.01415600
O        4.99612045      -1.62435664       3.48386565       25      -0.01807058      -0.02151295      -0.01415600
O        6.01420137       3.05171403       1.54878161       26       0.01425908       0.00015541       0.02804282
O        3.45598884       2.14724932       3.78575788       27       0.01807058       0.00150298      -0.02570876
O        0.63861907       4.19711911       6.59922611       28       0.01807058      -0.02301593       0.01155276
O        2.17875069      -0.21275658       0.30189223       29      -0.01807058       0.02301593      -0.01155276
O       -3.19683161       0.93264850       5.35233672       30      -0.01425908      -0.00015541      -0.02804282
O        4.70790047       0.73912143       1.88398033       31       0.02772315       0.01468755       0.00233406
O        0.87244979       1.29151885       5.33453950       32      -0.00460651      -0.03103349       0.00233406
O        3.19683161      -0.87495997       5.31903023       33       0.01425908      -0.02436350      -0.01388683
O        1.89053071      -0.00895427       3.14866694       34       0.02772315      -0.00936513       0.01155276
O        0.87244979      -2.00245650       6.56591962       35      -0.00460651       0.01753810       0.02570876
O       -0.63861908       1.83711322       3.11536045       36      -0.01807058      -0.00150298       0.02570876
O       -0.87244979      -0.71093764       4.99934078       37       0.00460651      -0.01349539       0.02804282
O       -0.37946185       4.85932250       1.58208810       38      -0.01425908       0.02436350       0.01388683
O        3.74420882       4.71452969       5.03264727       39      -0.02772315       0.00532242       0.01388683
40
Lattice="8.452109291599667 6.624512273258922e-10 2.4241778012480948e-14 -2.8173697644911218 7.9687250603391195 -1.1474206418920883e-09 -2.8173697635542925 -3.9843625295070964 6.9011183387922905" Properties=species:S:1:pos:R:3:spacegroup_kinds:I:1:forces:R:3 spacegroup="P 1" unit_cell=conventional occupancy="_JSON {\"0\": {\"In\": 1}, \"1\": {\"In\": 1}, \"2\": {\"In\": 1}, \"3\": {\"In\": 1}, \"4\": {\"In\": 1}, \"5\": {\"In\": 1}, \"6\": {\"In\": 1}, \"7\": {\"In\": 1}, \"8\": {\"In\": 1}, \"9\": {\"In\": 1}, \"10\": {\"In\": 1}, \"11\": {\"In\": 1}, \"12\": {\"In\": 1}, \"13\": {\"In\": 1}, \"14\": {\"In\": 1}, \"15\": {\"In\": 1}, \"16\": {\"O\": 1}, \"17\": {\"O\": 1}, \"18\": {\"O\": 1}, \"19\": {\"O\": 1}, \"20\": {\"O\": 1}, \"21\": {\"O\": 1}, \"22\": {\"O\": 1}, \"23\": {\"O\": 1}, \"24\": {\"O\": 1}, \"25\": {\"O\": 1}, \"26\": {\"O\": 1}, \"27\": {\"O\": 1}, \"28\": {\"O\": 1}, \"29\": {\"O\": 1}, \"30\": {\"O\": 1}, \"31\": {\"O\": 1}, \"32\": {\"O\": 1}, \"33\": {\"O\": 1}, \"34\": {\"O\": 1}, \"35\": {\"O\": 1}, \"36\": {\"O\": 1}, \"37\": {\"O\": 1}, \"38\": {\"O\": 1}, \"39\": {\"O\": 1}}" n_minim_iter=3 energy=-45151.95407858599 stress="0.033706541754678354 -3.258497559988863e-13 7.722785015095229e-13 -3.258497559988863e-13 0.033706541751980075 2.1529079075334273e-13 7.722785015095229e-13 2.1529079075334273e-13 0.0337065417559842" free_energy=-45151.95407858599 pbc="T T T"
In      -4.00724230       2.83354821       5.44382805        0       0.00124980      -0.00088374       0.00153069
In       6.82461206       1.15081433       1.45729028        1      -0.00124980       0.00088374      -0.00153069
In       1.18987253      -0.84136694       4.90784945        2      -0.00124980       0.00088374      -0.00153069
In      -1.40868488      -1.99218126       3.45055917        3       0.00000000      -0.00000000       0.00000000
In      -1.18987254       3.82963884       3.18256987        4       0.00124980      -0.00088374      -0.00153069
In       4.44486699      -2.67882451       5.17583875        5       0.00124980       0.00176749      -0.00000000
In      -1.18987254       1.30553802       5.17583875        6       0.00124980       0.00176749       0.00000000
In      -1.62749723       6.66318704       1.72527958        7      -0.00124980      -0.00176749       0.00000000
In       4.00724230       0.15472370       3.71854847        8      -0.00124980       0.00088374       0.00153069
In      -1.40868488       3.98436253      -0.00000000        9       0.00000000       0.00000000       0.00000000
In       4.00724230       6.13126749       0.26798930       10      -0.00124980       0.00088374       0.00153069
In      -1.18987254      -2.14690496       6.63312904       11       0.00124980      -0.00088374      -0.00153069
In       4.00724230       2.67882451       1.72527958       12      -0.00124980      -0.00176749      -0.00000000
In       1.62749723       4.82572947       1.99326888       13       0.00124980      -0.00088374       0.00153069
In       4.22605464       0.00000000      -0.00000000       14      -0.00000000       0.00000000       0.00000000
In       1.40868488       1.99218127       3.45055917       15      -0.00000000      -0.00000000      -0.00000000
O        0.92452418       3.99318329       3.75285232       16       0.00389626       0.02361185       0.01706508
O       -1.89284558       3.24565507       5.01705317       17       0.00389626       0.00297287      -0.02898100
O       -0.37996906       2.17588982      -0.03117740       18       0.02636307      -0.01291356      -0.00146490
O       -0.92452418      -0.72988670       1.86878716       19      -0.00389626       0.02658472      -0.01191592
O        3.69098147       4.69624896       1.89996455       20       0.00150410      -0.02743048      -0.01045102
O        1.94375805       2.69488817       1.56649400       21      -0.00150410      -0.00466439      -0.02898100
O        1.94375805       5.98572332       0.33347055       22      -0.00150410      -0.02276609       0.01852998
O       -2.17810495       5.60948545       3.41938177       23       0.02096271      -0.02055082      -0.00146490
O        3.19733882       1.80847271       6.93229573       24      -0.02636307       0.01291356       0.00146490
O        4.99547471      -1.62512292       3.48173656       25      -0.02096271       0.02055082       0.00146490
O        6.01470858       3.05312576       1.55059461       26      -0.02636307      -0.00772542       0.01045102
O        3.45663458       2.14871003       3.78402972       27       0.02096271       0.00900677       0.01852998
O        0.63926482       4.19489212       6.59882518       28       0.02096271       0.01154405      -0.01706508
O        2.17810495      -0.21052959       0.30229315       29      -0.02096271      -0.01154405       0.01706508
O       -3.19733882       0.93123677       5.35052372       30       0.02636307       0.00772542      -0.01045102
O        4.71021534       0.73870746       1.88406516       31      -0.00389626      -0.00297287       0.02898100
O        0.87361171       1.28947436       5.33462433       32       0.00150410       0.00466439       0.02898100
O        3.19733882      -0.87723594       5.31934633       33      -0.02636307      -0.00518814      -0.01191592
O        1.89284558      -0.00882076       3.14826601       34      -0.00389626      -0.02361185      -0.01706508
O        0.87361171      -2.00136078       6.56764779       35       0.00150410       0.02276609      -0.01852998
O       -0.63926482       1.83565251       3.11708862       36      -0.02096271      -0.00900677      -0.01852998
O       -0.87361171      -0.71188642       5.00115378       37      -0.00150410       0.02743048       0.01045102
O       -0.37996906       4.86159847       1.58177200       38       0.02636307       0.00518814       0.01191592
O        3.74189394       4.71424923       5.03233117       39       0.00389626      -0.02658472       0.01191592
40
Lattice="8.452109291599665 6.624512273258921e-10 2.4241778012480948e-14 -2.8173697644911213 7.9687250603391195 -1.147420641892088e-09 -2.817369763554292 -3.9843625295070964 6.9011183387922905" Properties=species:S:1:pos:R:3:spacegroup_kinds:I:1:forces:R:3 spacegroup="P 1" unit_cell=conventional occupancy="_JSON {\"0\": {\"In\": 1}, \"1\": {\"In\": 1}, \"2\": {\"In\": 1}, \"3\": {\"In\": 1}, \"4\": {\"In\": 1}, \"5\": {\"In\": 1}, \"6\": {\"In\": 1}, \"7\": {\"In\": 1}, \"8\": {\"In\": 1}, \"9\": {\"In\": 1}, \"10\": {\"In\": 1}, \"11\": {\"In\": 1}, \"12\": {\"In\": 1}, \"13\": {\"In\": 1}, \"14\": {\"In\": 1}, \"15\": {\"In\": 1}, \"16\": {\"O\": 1}, \"17\": {\"O\": 1}, \"18\": {\"O\": 1}, \"19\": {\"O\": 1}, \"20\": {\"O\": 1}, \"21\": {\"O\": 1}, \"22\": {\"O\": 1}, \"23\": {\"O\": 1}, \"24\": {\"O\": 1}, \"25\": {\"O\": 1}, \"26\": {\"O\": 1}, \"27\": {\"O\": 1}, \"28\": {\"O\": 1}, \"29\": {\"O\": 1}, \"30\": {\"O\": 1}, \"31\": {\"O\": 1}, \"32\": {\"O\": 1}, \"33\": {\"O\": 1}, \"34\": {\"O\": 1}, \"35\": {\"O\": 1}, \"36\": {\"O\": 1}, \"37\": {\"O\": 1}, \"38\": {\"O\": 1}, \"39\": {\"O\": 1}}" n_minim_iter=4 energy=-45151.9545912765 stress="0.033773435330199005 -8.043721973499184e-13 -7.707321454404067e-14 -8.043721973499184e-13 0.03377343532976455 -6.034437200438909e-14 -7.707321454404067e-14 -6.034437200438909e-14 0.033773435329571944" free_energy=-45151.9545912765 pbc="T T T"
In      -4.00670619       2.83316911       5.44448466        0       0.00622106      -0.00439895       0.00761921
In       6.82407595       1.15119342       1.45663368        1      -0.00622106       0.00439895      -0.00761921
In       1.18933642      -0.84098785       4.90719285        2      -0.00622106       0.00439895      -0.00761921
In      -1.40868488      -1.99218126       3.45055917        3       0.00000000       0.00000000      -0.00000000
In      -1.18933642       3.82925975       3.18191326        4       0.00622106      -0.00439895      -0.00761921
In       4.44540311      -2.67806633       5.17583875        5       0.00622106       0.00879791       0.00000000
In      -1.18933642       1.30629620       5.17583875        6       0.00622106       0.00879791      -0.00000000
In      -1.62803335       6.66242886       1.72527958        7      -0.00622106      -0.00879791       0.00000000
In       4.00670618       0.15510279       3.71920507        8      -0.00622106       0.00439895       0.00761921
In      -1.40868488       3.98436253      -0.00000000        9      -0.00000000       0.00000000      -0.00000000
In       4.00670618       6.13164658       0.26864590       10      -0.00622106       0.00439895       0.00761921
In      -1.18933642      -2.14728405       6.63247243       11       0.00622106      -0.00439895      -0.00761921
In       4.00670618       2.67806633       1.72527958       12      -0.00622106      -0.00879791      -0.00000000
In       1.62803334       4.82535038       1.99392549       13       0.00622106      -0.00439895       0.00761921
In       4.22605464       0.00000000      -0.00000000       14      -0.00000000       0.00000000       0.00000000
In       1.40868488       1.99218127       3.45055917       15      -0.00000000      -0.00000000       0.00000000
O        0.92419734       3.99434234       3.75377056       16       0.00759495      -0.00440571       0.00287537
O       -1.89317242       3.24587077       5.01559029       17       0.00759495       0.00469300       0.00237777
O       -0.37878188       2.17503495      -0.03078600       18       0.00280251       0.00808177      -0.00349175
O       -0.92419735      -0.72851196       1.86824251       19      -0.00759495       0.00028729       0.00525314
O        3.69129378       4.69510018       1.89902851       20       0.00189295      -0.00230325       0.00874489
O        1.94344575       2.69512442       1.56503112       21      -0.00189295      -0.00872492       0.00237777
O        1.94344575       5.98433830       0.33399739       22      -0.00189295       0.00642167       0.00636712
O       -2.17690324       5.60865113       3.41977316       23      -0.00668539      -0.00533615      -0.00349175
O        3.19615164       1.80932759       6.93190434       24      -0.00280251      -0.00808177       0.00349175
O        4.99427300      -1.62428860       3.48134517       25       0.00668539       0.00533615       0.00349175
O        6.01352141       3.05303728       1.55153065       26      -0.00280251       0.00101694      -0.00874489
O        3.45783629       2.14946614       3.78455656       27      -0.00668539      -0.00035587       0.00636712
O        0.64046652       4.19497033       6.59790694       28      -0.00668539       0.00569202      -0.00287537
O        2.17690324      -0.21060779       0.30321139       29       0.00668539      -0.00569202       0.00287537
O       -3.19615165       0.93132525       5.34958768       30       0.00280251      -0.00101694       0.00874489
O        4.71054218       0.73849177       1.88552805       31      -0.00759495      -0.00469300      -0.00237777
O        0.87392401       1.28923811       5.33608722       32       0.00189295       0.00872492      -0.00237777
O        3.19615164      -0.87800233       5.31880168       33      -0.00280251       0.00706483       0.00525314
O        1.89317242      -0.00997980       3.14734777       34      -0.00759495       0.00440571      -0.00287537
O        0.87392401      -1.99997576       6.56712094       35       0.00189295      -0.00642167      -0.00636712
O       -0.64046653       1.83489639       3.11656177       36       0.00668539       0.00035587      -0.00636712
O       -0.87392402      -0.71073765       5.00208982       37      -0.00189295       0.00230325      -0.00874489
O       -0.37878188       4.86236487       1.58231665       38       0.00280251      -0.00706483      -0.00525314
O        3.74156711       4.71287449       5.03287582       39       0.00759495      -0.00028729      -0.00525314
40
Lattice="8.452109291599665 6.624512273258922e-10 2.4241778012480955e-14 -2.8173697644911213 7.968725060339123 -1.147420641892088e-09 -2.817369763554292 -3.984362529507098 6.901118338792292" Properties=species:S:1:pos:R:3:spacegroup_kinds:I:1:forces:R:3 spacegroup="P 1" unit_cell=conventional occupancy="_JSON {\"0\": {\"In\": 1}, \"1\": {\"In\": 1}, \"2\": {\"In\": 1}, \"3\": {\"In\": 1}, \"4\": {\"In\": 1}, \"5\": {\"In\": 1}, \"6\": {\"In\": 1}, \"7\": {\"In\": 1}, \"8\": {\"In\": 1}, \"9\": {\"In\": 1}, \"10\": {\"In\": 1}, \"11\": {\"In\": 1}, \"12\": {\"In\": 1}, \"13\": {\"In\": 1}, \"14\": {\"In\": 1}, \"15\": {\"In\": 1}, \"16\": {\"O\": 1}, \"17\": {\"O\": 1}, \"18\": {\"O\": 1}, \"19\": {\"O\": 1}, \"20\": {\"O\": 1}, \"21\": {\"O\": 1}, \"22\": {\"O\": 1}, \"23\": {\"O\": 1}, \"24\": {\"O\": 1}, \"25\": {\"O\": 1}, \"26\": {\"O\": 1}, \"27\": {\"O\": 1}, \"28\": {\"O\": 1}, \"29\": {\"O\": 1}, \"30\": {\"O\": 1}, \"31\": {\"O\": 1}, \"32\": {\"O\": 1}, \"33\": {\"O\": 1}, \"34\": {\"O\": 1}, \"35\": {\"O\": 1}, \"36\": {\"O\": 1}, \"37\": {\"O\": 1}, \"38\": {\"O\": 1}, \"39\": {\"O\": 1}}" n_minim_iter=5 energy=-45151.95476932405 stress="0.03384070018496005 1.9890476680315636e-13 -7.982904367333228e-13 1.9890476680315636e-13 0.03384070018480293 1.1482741795463077e-12 -7.982904367333228e-13 1.1482741795463077e-12 0.03384070018441877" free_energy=-45151.95476932405 pbc="T T T"
In      -4.00596033       2.83264171       5.44539814        0       0.00132818      -0.00093917       0.00162668
In       6.82333009       1.15172082       1.45572019        1      -0.00132818       0.00093917      -0.00162668
In       1.18859056      -0.84046044       4.90627936        2      -0.00132818       0.00093917      -0.00162668
In      -1.40868488      -1.99218126       3.45055917        3      -0.00000000      -0.00000000      -0.00000000
In      -1.18859056       3.82873234       3.18099977        4       0.00132818      -0.00093917      -0.00162668
In       4.44614897      -2.67701152       5.17583875        5       0.00132818       0.00187833      -0.00000000
In      -1.18859056       1.30735101       5.17583875        6       0.00132818       0.00187833      -0.00000000
In      -1.62877921       6.66137405       1.72527958        7      -0.00132818      -0.00187833       0.00000000
In       4.00596032       0.15563019       3.72011856        8      -0.00132818       0.00093917       0.00162668
In      -1.40868488       3.98436253      -0.00000000        9      -0.00000000      -0.00000000       0.00000000
In       4.00596032       6.13217398       0.26955939       10      -0.00132818       0.00093917       0.00162668
In      -1.18859056      -2.14781145       6.63155894       11       0.00132818      -0.00093917      -0.00162668
In       4.00596032       2.67701152       1.72527958       12      -0.00132818      -0.00187833      -0.00000000
In       1.62877920       4.82482298       1.99483897       13       0.00132818      -0.00093917       0.00162668
In       4.22605464       0.00000000      -0.00000000       14       0.00000000      -0.00000000      -0.00000000
In       1.40868488       1.99218127       3.45055917       15       0.00000000      -0.00000000       0.00000000
O        0.92443492       3.99429904       3.75432908       16       0.00721849      -0.00051456       0.00189060
O       -1.89293484       3.24637611       5.01534852       17       0.00721849       0.00189459      -0.00049967
O       -0.37826707       2.17534425      -0.03068823       18       0.00370726       0.00437740      -0.00480004
O       -0.92443492      -0.72804991       1.86855927       19      -0.00721849       0.00138002       0.00139092
O        3.69169102       4.69469459       1.89924749       20      -0.00061993      -0.00415133       0.00619096
O        1.94304850       2.69473198       1.56478935       21       0.00061993      -0.00743719      -0.00049967
O        1.94304850       5.98432514       0.33445814       22       0.00061993       0.00328586       0.00669063
O       -2.17702325       5.60806266       3.41987094       23      -0.00289130      -0.00495437      -0.00480004
O        3.19563683       1.80901828       6.93180656       24      -0.00370726      -0.00437740       0.00480004
O        4.99439301      -1.62370012       3.48124739       25       0.00289130       0.00495437       0.00480004
O        6.01300659       3.05327661       1.55131167       26      -0.00370726      -0.00196825      -0.00619096
O        3.45771628       2.14984505       3.78501731       27      -0.00289130      -0.00167977       0.00669063
O        0.64034651       4.19517989       6.59734842       28      -0.00289130       0.00663414      -0.00189060
O        2.17702325      -0.21081735       0.30376991       29       0.00289130      -0.00663414       0.00189060
O       -3.19563683       0.93108593       5.34980666       30       0.00370726       0.00196825       0.00619096
O        4.71030460       0.73798643       1.88576981       31      -0.00721849      -0.00189459       0.00049967
O        0.87432126       1.28963055       5.33632898       32      -0.00061993       0.00743719       0.00049967
O        3.19563683      -0.87793235       5.31911844       33      -0.00370726       0.00634565       0.00139092
O        1.89293484      -0.00993651       3.14678925       34      -0.00721849       0.00051456      -0.00189060
O        0.87432126      -1.99996261       6.56666020       35      -0.00061993      -0.00328586      -0.00669063
O       -0.64034652       1.83451748       3.11610103       36       0.00289130       0.00167977      -0.00669063
O       -0.87432126      -0.71033206       5.00187084       37       0.00061993       0.00415133      -0.00619096
O       -0.37826707       4.86229489       1.58199990       38       0.00370726      -0.00634565      -0.00139092
O        3.74180469       4.71241245       5.03255907       39       0.00721849      -0.00138002      -0.00139092
