40
Lattice="9.210637507810802 7.218993466293134e-10 2.1347593091493466e-15 -3.0702125032842176 8.683872320858267 -1.2503845228007937e-09 -3.070212502263298 -4.3419361597072195 7.520454033917385" Properties=species:S:1:pos:R:3:spacegroup_kinds:I:1:forces:R:3 spacegroup="P 1" unit_cell=conventional occupancy="_JSON {\"0\": {\"In\": 1}, \"1\": {\"In\": 1}, \"2\": {\"In\": 1}, \"3\": {\"In\": 1}, \"4\": {\"In\": 1}, \"5\": {\"In\": 1}, \"6\": {\"In\": 1}, \"7\": {\"In\": 1}, \"8\": {\"In\": 1}, \"9\": {\"In\": 1}, \"10\": {\"In\": 1}, \"11\": {\"In\": 1}, \"12\": {\"In\": 1}, \"13\": {\"In\": 1}, \"14\": {\"In\": 1}, \"15\": {\"In\": 1}, \"16\": {\"O\": 1}, \"17\": {\"O\": 1}, \"18\": {\"O\": 1}, \"19\": {\"O\": 1}, \"20\": {\"O\": 1}, \"21\": {\"O\": 1}, \"22\": {\"O\": 1}, \"23\": {\"O\": 1}, \"24\": {\"O\": 1}, \"25\": {\"O\": 1}, \"26\": {\"O\": 1}, \"27\": {\"O\": 1}, \"28\": {\"O\": 1}, \"29\": {\"O\": 1}, \"30\": {\"O\": 1}, \"31\": {\"O\": 1}, \"32\": {\"O\": 1}, \"33\": {\"O\": 1}, \"34\": {\"O\": 1}, \"35\": {\"O\": 1}, \"36\": {\"O\": 1}, \"37\": {\"O\": 1}, \"38\": {\"O\": 1}, \"39\": {\"O\": 1}}" n_minim_iter=7 energy=-45150.01620844405 stress="0.04173896849238899 -8.298007042022841e-13 -1.3421236275078674e-12 -8.298007042022841e-13 0.04173896849084425 -5.545491284716827e-13 -1.3421236275078674e-12 -5.545491284716827e-13 0.04173896849016981" free_energy=-45150.01620844405 pbc="T T T"
In      -4.38770695       3.10257734       5.90685946        0      -0.00063753       0.00045080      -0.00078081
In       7.45791945       1.23935882       1.61359456        1       0.00063753      -0.00045080       0.00078081
In       1.31749445      -0.93160926       5.37382158        2       0.00063753      -0.00045080       0.00078081
In      -1.53510625      -2.17096808       3.76022701        3       0.00000000      -0.00000000      -0.00000000
In      -1.31749445       4.18806138       3.49370807        4      -0.00063753       0.00045080       0.00078081
In       4.82293056      -2.94870255       5.64034052        5      -0.00063753      -0.00090161      -0.00000000
In      -1.31749445       1.39323361       5.64034052        6      -0.00063753      -0.00090161      -0.00000000
In      -1.75271806       7.29063872       1.88011350        7       0.00063753       0.00090161       0.00000000
In       4.38770695       0.15387478       4.02674596        8       0.00063753      -0.00045080      -0.00078081
In      -1.53510625       4.34193616      -0.00000000        9      -0.00000000       0.00000000      -0.00000000
In       4.38770695       6.66677903       0.26651894       10       0.00063753      -0.00045080      -0.00078081
In      -1.31749445      -2.32484286       7.25393509       11      -0.00063753       0.00045080       0.00078081
In       4.38770695       2.94870256       1.88011351       12       0.00063753       0.00090161      -0.00000000
In       1.75271805       5.27354542       2.14663245       13      -0.00063753       0.00045080      -0.00078081
In       4.60531875       0.00000000      -0.00000000       14       0.00000000      -0.00000000      -0.00000000
In       1.53510625       2.17096808       3.76022701       15       0.00000000      -0.00000000      -0.00000000
O        0.83755197       4.33343276       4.10929441       16       0.00164269       0.00375771      -0.00407675
O       -2.23266053       3.56300506       5.47317099       17       0.00164269      -0.00540942      -0.00121589
O       -0.46321639       2.31181910       0.11983460       18      -0.00100969      -0.00353391      -0.00446439
O       -0.83755197      -0.78743451       2.06201137       19      -0.00164269      -0.00165172      -0.00529265
O        4.10345356       5.19855721       1.94217677       20      -0.00564762      -0.00092580      -0.00082826
O        2.03697145       3.08827226       1.71294397       21       0.00564762       0.00025439      -0.00121589
O        2.03697145       6.45222111       0.22923279       22       0.00564762      -0.00118019       0.00038763
O       -2.33400942       6.17902247       3.88006161       23       0.00299523       0.00212991      -0.00446439
O        3.53342889       2.03011706       7.40061943       24       0.00100969       0.00353391       0.00446439
O        5.40422192      -1.83708631       3.64039242       25      -0.00299523      -0.00212991       0.00446439
O        6.60364139       3.43065744       1.81805024       26       0.00100969      -0.00563323       0.00082826
O        3.80641559       2.44168878       3.98945981       27       0.00299523      -0.00493123       0.00038763
O        0.73620309       4.40509724       7.17138664       28       0.00299523       0.00280132       0.00407675
O        2.33400941      -0.06316108       0.34906739       29      -0.00299523      -0.00280132      -0.00407675
O       -3.53342889       0.91127872       5.70240379       30      -0.00100969       0.00563323      -0.00082826
O        5.30287303       0.77893111       2.04728304       31      -0.00164269       0.00540942       0.00121589
O        1.03324105       1.25366390       5.80751005       32      -0.00564762      -0.00025439       0.00121589
O        3.53342889      -1.11883833       5.82223839       33       0.00100969       0.00209932      -0.00529265
O        2.23266053       0.00850341       3.41115962       34      -0.00164269      -0.00375771       0.00407675
O        1.03324105      -2.11028495       7.29122124       35      -0.00564762       0.00118019      -0.00038763
O       -0.73620309       1.90024739       3.53099422       36      -0.00299523       0.00493123      -0.00038763
O       -1.03324106      -0.85662105       5.57827726       37       0.00564762       0.00092580       0.00082826
O       -0.46321639       5.46077450       1.69821564       38      -0.00100969      -0.00209932       0.00529265
O        3.90776447       5.12937067       5.45844266       39       0.00164269       0.00165172       0.00529265
