
     Program PWSCF v.6.5 starts on  7Jul2021 at 15:38:41 

     This program is part of the open-source Quantum ESPRESSO suite
     for quantum simulation of materials; please cite
         "P. Giannozzi et al., J. Phys.:Condens. Matter 21 395502 (2009);
         "P. Giannozzi et al., J. Phys.:Condens. Matter 29 465901 (2017);
          URL http://www.quantum-espresso.org", 
     in publications or presentations arising from this work. More details at
     http://www.quantum-espresso.org/quote

     Parallel version (MPI), running on    40 processors

     MPI processes distributed on     1 nodes
     R & G space division:  proc/nbgrp/npool/nimage =      40
     Reading input from pw.inp

     Current dimensions of program PWSCF are:
     Max number of different atomic species (ntypx) = 10
     Max number of k-points (npk) =  40000
     Max angular momentum in pseudopotentials (lmaxx) =  3
     Message from routine cell_base_init:
     DEPRECATED: use true lattice parameter, not A to a.u. conversion factor
     Message from routine read_upf::
     Pseudo file In.UPF has been fixed on the fly.
To avoid this message in the future, permanently fix 
 your pseudo files following these instructions: 
https://gitlab.com/QEF/q-e/blob/master/upftools/how_to_fix_upf.md
     Message from routine read_upf::
     Pseudo file O.UPF has been fixed on the fly.
To avoid this message in the future, permanently fix 
 your pseudo files following these instructions: 
https://gitlab.com/QEF/q-e/blob/master/upftools/how_to_fix_upf.md

     IMPORTANT: XC functional enforced from input :
     Exchange-correlation= PBE
                           (   1   4   3   4   0   0   0)
     Any further DFT definition will be discarded
     Please, verify this is what you really want

               file In.UPF: wavefunction(s)  5S renormalized
               file O.UPF: wavefunction(s)  2P renormalized

     Subspace diagonalization in iterative solution of the eigenvalue problem:
     a serial algorithm will be used

 
     Parallelization info
     --------------------
     sticks:   dense  smooth     PW     G-vecs:    dense   smooth      PW
     Min         426     213     56                35896    12693    1724
     Max         427     214     57                35900    12695    1728
     Sum       17077    8543   2257              1435947   507749   69037
 


     bravais-lattice index     =            0
     lattice parameter (alat)  =       1.8897  a.u.
     unit-cell volume          =    7170.9467 (a.u.)^3
     number of atoms/cell      =           80
     number of atomic types    =            2
     number of electrons       =       704.00
     number of Kohn-Sham states=          372
     kinetic-energy cutoff     =      65.0000  Ry
     charge density cutoff     =     520.0000  Ry
     convergence threshold     =      7.3E-09
     mixing beta               =       0.5000
     number of iterations used =           10  plain     mixing
     Exchange-correlation= PBE
                           (   1   4   3   4   0   0   0)

     celldm(1)=   1.889726  celldm(2)=   0.000000  celldm(3)=   0.000000
     celldm(4)=   0.000000  celldm(5)=   0.000000  celldm(6)=   0.000000

     crystal axes: (cart. coord. in units of alat)
               a(1) = (  11.758813   0.000000   0.000000 )  
               a(2) = (   6.452317   9.830426   0.000000 )  
               a(3) = (   6.452317   3.482982   9.192721 )  

     reciprocal axes: (cart. coord. in units 2 pi/alat)
               b(1) = (  0.085043 -0.055819 -0.038542 )  
               b(2) = (  0.000000  0.101725 -0.038542 )  
               b(3) = (  0.000000  0.000000  0.108782 )  


     PseudoPot. # 1 for In read from file:
     /gpfs/nobackup/projects/quantumchemistry/rom_cq/SOAPML/data/In2O3/espresso_calculations/psp_copy/In.UPF
     MD5 check sum: b236236d7d320b3bac520569a9051741
     Pseudo is Ultrasoft + core correction, Zval = 13.0
     Generated using "atomic" code by A. Dal Corso v.5.0.99 svn rev. 10869
     Using radial grid of 1241 points,  6 beta functions with: 
                l(1) =   0
                l(2) =   0
                l(3) =   1
                l(4) =   1
                l(5) =   2
                l(6) =   2
     Q(r) pseudized with 0 coefficients 


     PseudoPot. # 2 for O  read from file:
     /gpfs/nobackup/projects/quantumchemistry/rom_cq/SOAPML/data/In2O3/espresso_calculations/psp_copy/O.UPF
     MD5 check sum: 3f94a2996a3169367d6eb21d9b593f20
     Pseudo is Projector augmented-wave + core cor, Zval =  6.0
     Generated using "atomic" code by A. Dal Corso v.5.0.99 svn rev. 10869
     Shape of augmentation charge: BESSEL
     Using radial grid of 1095 points,  4 beta functions with: 
                l(1) =   0
                l(2) =   0
                l(3) =   1
                l(4) =   1
     Q(r) pseudized with 0 coefficients 


     atomic species   valence    mass     pseudopotential
        In1           13.00   114.81800     In( 1.00)
        O1             6.00    15.99900     O ( 1.00)

     Starting magnetic structure 
     atomic species   magnetization
        In1          0.769
        O1           0.667

     No symmetry found



   Cartesian axes

     site n.     atom                  positions (alat units)
         1           In1 tau(   1) = (  10.5709386   5.7062263   3.9400691  )
         2           In1 tau(   2) = (  16.4503450   5.7062263   3.9400691  )
         3           In1 tau(   3) = (  13.7970974  10.6214394   3.9400691  )
         4           In1 tau(   4) = (  19.6765037  10.6214394   3.9400691  )
         5           In1 tau(   5) = (  13.7970974   7.4477171   8.5364296  )
         6           In1 tau(   6) = (  19.6765037   7.4477171   8.5364296  )
         7           In1 tau(   7) = (  17.0232561  12.3629302   8.5364296  )
         8           In1 tau(   8) = (  22.9026625  12.3629302   8.5364296  )
         9           In1 tau(   9) = (   7.9266471   4.2788294   2.9544716  )
        10           In1 tau(  10) = (  13.8060535   4.2788294   2.9544716  )
        11           In1 tau(  11) = (  11.1528058   9.1940424   2.9544716  )
        12           In1 tau(  12) = (  17.0322122   9.1940424   2.9544716  )
        13           In1 tau(  13) = (  11.1528058   6.0203201   7.5508320  )
        14           In1 tau(  14) = (  17.0322122   6.0203201   7.5508320  )
        15           In1 tau(  15) = (  14.3789645  10.9355332   7.5508320  )
        16           In1 tau(  16) = (  20.2583709  10.9355332   7.5508320  )
        17           In1 tau(  17) = (   4.4050767   2.3778745   1.6418889  )
        18           In1 tau(  18) = (  10.2844831   2.3778745   1.6418889  )
        19           In1 tau(  19) = (   7.6312354   7.2930875   1.6418889  )
        20           In1 tau(  20) = (  13.5106418   7.2930875   1.6418889  )
        21           In1 tau(  21) = (   7.6312354   4.1193652   6.2382493  )
        22           In1 tau(  22) = (  13.5106418   4.1193652   6.2382493  )
        23           In1 tau(  23) = (  10.8573942   9.0345782   6.2382493  )
        24           In1 tau(  24) = (  16.7368005   9.0345782   6.2382493  )
        25           In1 tau(  25) = (   1.7607852   0.9504775   0.6562913  )
        26           In1 tau(  26) = (   7.6401916   0.9504775   0.6562913  )
        27           In1 tau(  27) = (   4.9869439   5.8656905   0.6562913  )
        28           In1 tau(  28) = (  10.8663503   5.8656905   0.6562913  )
        29           In1 tau(  29) = (   4.9869439   2.6919682   5.2526518  )
        30           In1 tau(  30) = (  10.8663503   2.6919682   5.2526518  )
        31           In1 tau(  31) = (   8.2131026   7.6071813   5.2526518  )
        32           In1 tau(  32) = (  14.0925090   7.6071813   5.2526518  )
        33           O1  tau(  33) = (   6.0168267   2.3004791   0.2147466  )
        34           O1  tau(  34) = (  11.9020405   2.3093270   0.2147466  )
        35           O1  tau(  35) = (   9.2487929   7.2245401   0.2147466  )
        36           O1  tau(  36) = (  15.1281992   7.2245401   0.2147466  )
        37           O1  tau(  37) = (   9.2487929   4.0508178   4.8111070  )
        38           O1  tau(  38) = (  15.1281992   4.0508178   4.8111070  )
        39           O1  tau(  39) = (  12.4749516   8.9660308   4.8111070  )
        40           O1  tau(  40) = (  18.3543580   8.9660308   4.8111070  )
        41           O1  tau(  41) = (   7.0963640   5.1209421   1.1490901  )
        42           O1  tau(  42) = (  12.9757704   5.1209421   1.1490901  )
        43           O1  tau(  43) = (  10.3225227  10.0361551   1.1490901  )
        44           O1  tau(  44) = (  16.2019291  10.0361551   1.1490901  )
        45           O1  tau(  45) = (  10.3225227   6.8624328   5.7454505  )
        46           O1  tau(  46) = (  16.2019291   6.8624328   5.7454505  )
        47           O1  tau(  47) = (  13.5486814  11.7776459   5.7454505  )
        48           O1  tau(  48) = (  19.4280878  11.7776459   5.7454505  )
        49           O1  tau(  49) = (   8.1750630   2.1809128   2.5129268  )
        50           O1  tau(  50) = (  14.0544694   2.1809128   2.5129268  )
        51           O1  tau(  51) = (  11.4012218   7.0961259   2.5129268  )
        52           O1  tau(  52) = (  17.2806281   7.0961259   2.5129268  )
        53           O1  tau(  53) = (  11.4012218   3.9224036   7.1092872  )
        54           O1  tau(  54) = (  17.2806281   3.9224036   7.1092872  )
        55           O1  tau(  55) = (  14.6273805   8.8376166   7.1092872  )
        56           O1  tau(  56) = (  20.5067869   8.8376166   7.1092872  )
        57           O1  tau(  57) = (   4.1566608   4.4757910   2.0834337  )
        58           O1  tau(  58) = (  10.0360672   4.4757910   2.0834337  )
        59           O1  tau(  59) = (   7.3828195   9.3910040   2.0834337  )
        60           O1  tau(  60) = (  13.2622259   9.3910040   2.0834337  )
        61           O1  tau(  61) = (   7.3828195   6.2172817   6.6797941  )
        62           O1  tau(  62) = (  13.2622259   6.2172817   6.6797941  )
        63           O1  tau(  63) = (  10.6089782  11.1324948   6.6797941  )
        64           O1  tau(  64) = (  16.4883846  11.1324948   6.6797941  )
        65           O1  tau(  65) = (   6.3090897   4.3473768   4.3816139  )
        66           O1  tau(  66) = (  12.1884961   4.3473768   4.3816139  )
        67           O1  tau(  67) = (   9.5352484   9.2625898   4.3816139  )
        68           O1  tau(  68) = (  15.4146548   9.2625898   4.3816139  )
        69           O1  tau(  69) = (   9.5352484   6.0888675   8.9779743  )
        70           O1  tau(  70) = (  15.4146548   6.0888675   8.9779743  )
        71           O1  tau(  71) = (  12.7614071  11.0040806   8.9779743  )
        72           O1  tau(  72) = (  18.6408135  11.0040806   8.9779743  )
        73           O1  tau(  73) = (   5.2353598   1.5357617   3.4472703  )
        74           O1  tau(  74) = (  11.1147662   1.5357617   3.4472703  )
        75           O1  tau(  75) = (   8.4615186   6.4509748   3.4472703  )
        76           O1  tau(  76) = (  14.3409250   6.4509748   3.4472703  )
        77           O1  tau(  77) = (   8.4615186   3.2772525   8.0436308  )
        78           O1  tau(  78) = (  14.3409249   3.2772525   8.0436308  )
        79           O1  tau(  79) = (  11.6876773   8.1924655   8.0436308  )
        80           O1  tau(  80) = (  17.5670837   8.1924655   8.0436308  )

     number of k points=    14  Gaussian smearing, width (Ry)=  0.0073
                       cart. coord. in units 2pi/alat
        k(    1) = (   0.0000000   0.0000000   0.0000000), wk =   0.0370370
        k(    2) = (   0.0000000   0.0000000   0.0362606), wk =   0.0740741
        k(    3) = (   0.0000000   0.0339083  -0.0128473), wk =   0.0740741
        k(    4) = (   0.0000000   0.0339083   0.0234132), wk =   0.0740741
        k(    5) = (   0.0000000   0.0339083  -0.0491079), wk =   0.0740741
        k(    6) = (   0.0283475  -0.0186062  -0.0128473), wk =   0.0740741
        k(    7) = (   0.0283475  -0.0186062   0.0234132), wk =   0.0740741
        k(    8) = (   0.0283475  -0.0186062  -0.0491079), wk =   0.0740741
        k(    9) = (   0.0283475   0.0153021  -0.0256947), wk =   0.0740741
        k(   10) = (   0.0283475   0.0153021   0.0105659), wk =   0.0740741
        k(   11) = (   0.0283475   0.0153021  -0.0619553), wk =   0.0740741
        k(   12) = (   0.0283475  -0.0525146   0.0000000), wk =   0.0740741
        k(   13) = (   0.0283475  -0.0525146   0.0362606), wk =   0.0740741
        k(   14) = (   0.0283475  -0.0525146  -0.0362606), wk =   0.0740741

     Dense  grid:  1435947 G-vectors     FFT dimensions: ( 162, 162, 162)

     Smooth grid:   507749 G-vectors     FFT dimensions: ( 120, 120, 120)

     Estimated max dynamical RAM per process >     564.05 MB

     Estimated total dynamical RAM >      22.03 GB
     Generating pointlists ...
     new r_m :   0.8886 (alat units)  1.6792 (a.u.) for type    1
     new r_m :   0.8886 (alat units)  1.6792 (a.u.) for type    2

     Initial potential from superposition of free atoms

     starting charge  703.88090, renormalised to  704.00000
     Starting wfcs are  480 randomized atomic wfcs
     Checking if some PAW data can be deallocated... 

     total cpu time spent up to now is       43.5 secs

     Self-consistent Calculation

     iteration #  1     ecut=    65.00 Ry     beta= 0.50
     Davidson diagonalization with overlap
     ethr =  1.00E-02,  avg # of iterations =  2.0

     total cpu time spent up to now is      146.3 secs

     total energy              =   -6615.14915207 Ry
     Harris-Foulkes estimate   =   -6585.53663825 Ry
     estimated scf accuracy    <      75.38081581 Ry

     total magnetization       =    11.95 Bohr mag/cell
     absolute magnetization    =    29.06 Bohr mag/cell

     iteration #  2     ecut=    65.00 Ry     beta= 0.50
     Davidson diagonalization with overlap
     ethr =  1.00E-02,  avg # of iterations =  2.1

     total cpu time spent up to now is      261.6 secs

     total energy              =   -6630.78995667 Ry
     Harris-Foulkes estimate   =   -6623.52799306 Ry
     estimated scf accuracy    <      20.67153328 Ry

     total magnetization       =     4.40 Bohr mag/cell
     absolute magnetization    =    16.99 Bohr mag/cell

     iteration #  3     ecut=    65.00 Ry     beta= 0.50
     Davidson diagonalization with overlap
     ethr =  2.94E-03,  avg # of iterations =  2.0

     total cpu time spent up to now is      379.6 secs

     total energy              =   -6636.30789666 Ry
     Harris-Foulkes estimate   =   -6633.86489687 Ry
     estimated scf accuracy    <       6.32370137 Ry

     total magnetization       =     0.07 Bohr mag/cell
     absolute magnetization    =    11.26 Bohr mag/cell

     iteration #  4     ecut=    65.00 Ry     beta= 0.50
     Davidson diagonalization with overlap
     ethr =  8.98E-04,  avg # of iterations =  2.0

     total cpu time spent up to now is      490.3 secs

     total energy              =   -6636.90457023 Ry
     Harris-Foulkes estimate   =   -6636.98479855 Ry
     estimated scf accuracy    <       0.24566002 Ry

     total magnetization       =     0.00 Bohr mag/cell
     absolute magnetization    =     3.73 Bohr mag/cell

     iteration #  5     ecut=    65.00 Ry     beta= 0.50
     Davidson diagonalization with overlap
     ethr =  3.49E-05,  avg # of iterations =  8.5

     total cpu time spent up to now is      848.3 secs

     total energy              =   -6637.01949394 Ry
     Harris-Foulkes estimate   =   -6637.01051558 Ry
     estimated scf accuracy    <       0.03492097 Ry

     total magnetization       =    -0.00 Bohr mag/cell
     absolute magnetization    =     3.15 Bohr mag/cell

     iteration #  6     ecut=    65.00 Ry     beta= 0.50
     Davidson diagonalization with overlap
     ethr =  4.96E-06,  avg # of iterations = 10.7

     total cpu time spent up to now is     1178.3 secs

     total energy              =   -6637.03420828 Ry
     Harris-Foulkes estimate   =   -6637.03056848 Ry
     estimated scf accuracy    <       0.00750853 Ry

     total magnetization       =     0.00 Bohr mag/cell
     absolute magnetization    =     1.63 Bohr mag/cell

     iteration #  7     ecut=    65.00 Ry     beta= 0.50
     Davidson diagonalization with overlap
     ethr =  1.07E-06,  avg # of iterations =  5.6

     total cpu time spent up to now is     1386.1 secs

     total energy              =   -6637.03663454 Ry
     Harris-Foulkes estimate   =   -6637.03653996 Ry
     estimated scf accuracy    <       0.00249583 Ry

     total magnetization       =     0.00 Bohr mag/cell
     absolute magnetization    =     0.70 Bohr mag/cell

     iteration #  8     ecut=    65.00 Ry     beta= 0.50
     Davidson diagonalization with overlap
     ethr =  3.55E-07,  avg # of iterations =  2.5

     total cpu time spent up to now is     1517.9 secs

     total energy              =   -6637.03732281 Ry
     Harris-Foulkes estimate   =   -6637.03729665 Ry
     estimated scf accuracy    <       0.00018138 Ry

     total magnetization       =     0.00 Bohr mag/cell
     absolute magnetization    =     0.27 Bohr mag/cell

     iteration #  9     ecut=    65.00 Ry     beta= 0.50
     Davidson diagonalization with overlap
     ethr =  2.58E-08,  avg # of iterations =  3.6

     total cpu time spent up to now is     1744.1 secs

     total energy              =   -6637.03743805 Ry
     Harris-Foulkes estimate   =   -6637.03743419 Ry
     estimated scf accuracy    <       0.00002670 Ry

     total magnetization       =     0.00 Bohr mag/cell
     absolute magnetization    =     0.08 Bohr mag/cell

     iteration # 10     ecut=    65.00 Ry     beta= 0.50
     Davidson diagonalization with overlap
     ethr =  3.79E-09,  avg # of iterations =  3.0

     total cpu time spent up to now is     1894.4 secs

     total energy              =   -6637.03744753 Ry
     Harris-Foulkes estimate   =   -6637.03744751 Ry
     estimated scf accuracy    <       0.00001038 Ry

     total magnetization       =     0.00 Bohr mag/cell
     absolute magnetization    =     0.04 Bohr mag/cell

     iteration # 11     ecut=    65.00 Ry     beta= 0.50
     Davidson diagonalization with overlap
     ethr =  1.47E-09,  avg # of iterations =  3.0

     total cpu time spent up to now is     2029.7 secs

     total energy              =   -6637.03745096 Ry
     Harris-Foulkes estimate   =   -6637.03745000 Ry
     estimated scf accuracy    <       0.00000138 Ry

     total magnetization       =     0.00 Bohr mag/cell
     absolute magnetization    =     0.02 Bohr mag/cell

     iteration # 12     ecut=    65.00 Ry     beta= 0.50
     Davidson diagonalization with overlap
     ethr =  1.96E-10,  avg # of iterations =  3.0

     total cpu time spent up to now is     2220.9 secs

     total energy              =   -6637.03745175 Ry
     Harris-Foulkes estimate   =   -6637.03745167 Ry
     estimated scf accuracy    <       0.00000010 Ry

     total magnetization       =     0.00 Bohr mag/cell
     absolute magnetization    =     0.01 Bohr mag/cell

     iteration # 13     ecut=    65.00 Ry     beta= 0.50
     Davidson diagonalization with overlap
     ethr =  1.42E-11,  avg # of iterations =  3.0

     total cpu time spent up to now is     2394.5 secs

     total energy              =   -6637.03745182 Ry
     Harris-Foulkes estimate   =   -6637.03745179 Ry
     estimated scf accuracy    <       0.00000003 Ry

     total magnetization       =     0.00 Bohr mag/cell
     absolute magnetization    =     0.00 Bohr mag/cell

     iteration # 14     ecut=    65.00 Ry     beta= 0.50
     Davidson diagonalization with overlap
     ethr =  3.65E-12,  avg # of iterations =  3.0
 
     Magnetic moment per site:
     atom:    1    charge:    9.3861    magn:    0.0000    constr:    0.0000
     atom:    2    charge:    9.3861    magn:    0.0000    constr:    0.0000
     atom:    3    charge:    9.3861    magn:    0.0000    constr:    0.0000
     atom:    4    charge:    9.3861    magn:    0.0000    constr:    0.0000
     atom:    5    charge:    9.3858    magn:    0.0000    constr:    0.0000
     atom:    6    charge:    9.3861    magn:    0.0000    constr:    0.0000
     atom:    7    charge:    9.3861    magn:    0.0000    constr:    0.0000
     atom:    8    charge:    9.3861    magn:    0.0000    constr:    0.0000
     atom:    9    charge:    9.3859    magn:    0.0000    constr:    0.0000
     atom:   10    charge:    9.3859    magn:    0.0000    constr:    0.0000
     atom:   11    charge:    9.3859    magn:    0.0000    constr:    0.0000
     atom:   12    charge:    9.3859    magn:    0.0000    constr:    0.0000
     atom:   13    charge:    9.3860    magn:    0.0000    constr:    0.0000
     atom:   14    charge:    9.3859    magn:    0.0000    constr:    0.0000
     atom:   15    charge:    9.3859    magn:    0.0000    constr:    0.0000
     atom:   16    charge:    9.3859    magn:    0.0000    constr:    0.0000
     atom:   17    charge:    9.3862    magn:    0.0000    constr:    0.0000
     atom:   18    charge:    9.3859    magn:    0.0000    constr:    0.0000
     atom:   19    charge:    9.3859    magn:    0.0000    constr:    0.0000
     atom:   20    charge:    9.3859    magn:    0.0000    constr:    0.0000
     atom:   21    charge:    9.3859    magn:    0.0000    constr:    0.0000
     atom:   22    charge:    9.3859    magn:    0.0000    constr:    0.0000
     atom:   23    charge:    9.3859    magn:    0.0000    constr:    0.0000
     atom:   24    charge:    9.3859    magn:    0.0000    constr:    0.0000
     atom:   25    charge:    9.3861    magn:    0.0000    constr:    0.0000
     atom:   26    charge:    9.3862    magn:    0.0000    constr:    0.0000
     atom:   27    charge:    9.3861    magn:    0.0000    constr:    0.0000
     atom:   28    charge:    9.3861    magn:    0.0000    constr:    0.0000
     atom:   29    charge:    9.3861    magn:    0.0000    constr:    0.0000
     atom:   30    charge:    9.3861    magn:    0.0000    constr:    0.0000
     atom:   31    charge:    9.3861    magn:    0.0000    constr:    0.0000
     atom:   32    charge:    9.3861    magn:    0.0000    constr:    0.0000
     atom:   33    charge:    5.7949    magn:    0.0000    constr:    0.0000
     atom:   34    charge:    5.7947    magn:    0.0000    constr:    0.0000
     atom:   35    charge:    5.7947    magn:    0.0000    constr:    0.0000
     atom:   36    charge:    5.7947    magn:    0.0000    constr:    0.0000
     atom:   37    charge:    5.7947    magn:    0.0000    constr:    0.0000
     atom:   38    charge:    5.7947    magn:    0.0000    constr:    0.0000
     atom:   39    charge:    5.7947    magn:    0.0000    constr:    0.0000
     atom:   40    charge:    5.7947    magn:    0.0000    constr:    0.0000
     atom:   41    charge:    5.7946    magn:    0.0000    constr:    0.0000
     atom:   42    charge:    5.7947    magn:    0.0000    constr:    0.0000
     atom:   43    charge:    5.7948    magn:    0.0000    constr:    0.0000
     atom:   44    charge:    5.7947    magn:    0.0000    constr:    0.0000
     atom:   45    charge:    5.7947    magn:    0.0000    constr:    0.0000
     atom:   46    charge:    5.7947    magn:    0.0000    constr:    0.0000
     atom:   47    charge:    5.7947    magn:    0.0000    constr:    0.0000
     atom:   48    charge:    5.7947    magn:    0.0000    constr:    0.0000
     atom:   49    charge:    5.7947    magn:    0.0000    constr:    0.0000
     atom:   50    charge:    5.7947    magn:    0.0000    constr:    0.0000
     atom:   51    charge:    5.7947    magn:    0.0000    constr:    0.0000
     atom:   52    charge:    5.7947    magn:    0.0000    constr:    0.0000
     atom:   53    charge:    5.7947    magn:    0.0000    constr:    0.0000
     atom:   54    charge:    5.7947    magn:    0.0000    constr:    0.0000
     atom:   55    charge:    5.7947    magn:    0.0000    constr:    0.0000
     atom:   56    charge:    5.7947    magn:    0.0000    constr:    0.0000
     atom:   57    charge:    5.7947    magn:    0.0000    constr:    0.0000
     atom:   58    charge:    5.7947    magn:    0.0000    constr:    0.0000
     atom:   59    charge:    5.7947    magn:    0.0000    constr:    0.0000
     atom:   60    charge:    5.7948    magn:    0.0000    constr:    0.0000
     atom:   61    charge:    5.7947    magn:    0.0000    constr:    0.0000
     atom:   62    charge:    5.7946    magn:    0.0000    constr:    0.0000
     atom:   63    charge:    5.7947    magn:    0.0000    constr:    0.0000
     atom:   64    charge:    5.7947    magn:    0.0000    constr:    0.0000
     atom:   65    charge:    5.7947    magn:    0.0000    constr:    0.0000
     atom:   66    charge:    5.7947    magn:    0.0000    constr:    0.0000
     atom:   67    charge:    5.7947    magn:    0.0000    constr:    0.0000
     atom:   68    charge:    5.7947    magn:    0.0000    constr:    0.0000
     atom:   69    charge:    5.7948    magn:    0.0000    constr:    0.0000
     atom:   70    charge:    5.7946    magn:    0.0000    constr:    0.0000
     atom:   71    charge:    5.7947    magn:    0.0000    constr:    0.0000
     atom:   72    charge:    5.7947    magn:    0.0000    constr:    0.0000
     atom:   73    charge:    5.7947    magn:    0.0000    constr:    0.0000
     atom:   74    charge:    5.7947    magn:    0.0000    constr:    0.0000
     atom:   75    charge:    5.7947    magn:    0.0000    constr:    0.0000
     atom:   76    charge:    5.7947    magn:    0.0000    constr:    0.0000
     atom:   77    charge:    5.7947    magn:    0.0000    constr:    0.0000
     atom:   78    charge:    5.7947    magn:    0.0000    constr:    0.0000
     atom:   79    charge:    5.7946    magn:    0.0000    constr:    0.0000
     atom:   80    charge:    5.7947    magn:    0.0000    constr:    0.0000

     total cpu time spent up to now is     2535.1 secs

     End of self-consistent calculation

 ------ SPIN UP ------------


          k = 0.0000 0.0000 0.0000 ( 63431 PWs)   bands (ev):

    -9.2349  -8.8501  -8.8499  -8.8496  -8.7300  -8.7296  -8.7292  -8.7290
    -8.7287  -8.7286  -8.7283  -8.7279  -8.6134  -8.6131  -8.6129  -8.4664
    -8.4660  -8.4653  -8.4471  -8.4468  -8.3629  -8.3627  -8.3625  -8.3622
    -8.3620  -8.3618  -8.3518  -8.3516  -8.3515  -8.3514  -8.3338  -8.3338
    -8.3336  -8.3289  -8.3287  -8.3286  -8.3228  -8.3226  -8.3221  -8.3221
    -8.3213  -8.3211  -8.2514  -8.2513  -8.1623  -8.1616  -8.1614  -8.1611
    -4.3191  -4.3190  -4.2875  -4.2873  -4.2870  -4.2704  -4.2700  -4.2699
    -4.2697  -4.2696  -4.2692  -4.2478  -4.2476  -4.2476  -4.2332  -4.2327
    -4.2206  -4.2204  -4.2204  -4.2184  -4.2183  -4.2181  -4.2180  -4.1960
    -4.1897  -4.1896  -4.1894  -4.1851  -4.1851  -4.1807  -4.1805  -4.1803
    -4.1604  -4.1602  -4.1599  -4.1598  -4.1595  -4.1593  -4.1425  -4.1423
    -4.1422  -4.1291  -4.1290  -4.1289  -4.1263  -4.1262  -4.1262  -4.1189
    -4.1187  -4.1183  -4.1181  -4.1180  -4.1177  -4.0987  -4.0984  -4.0980
    -4.0978  -4.0978  -4.0975  -4.0801  -4.0799  -4.0796  -4.0738  -4.0738
    -4.0732  -4.0732  -4.0675  -4.0543  -4.0542  -4.0197  -4.0193  -4.0184
    -4.0182  -4.0180  -4.0178  -4.0177  -4.0173  -3.9790  -3.9789  -3.9694
    -3.9693  -3.9691  -3.9683  -3.9680  -3.9680  -3.9676  -3.9675  -3.9673
    -3.9536  -3.9535  -3.9532  -3.9366  -3.9365  -3.9362  -3.9319  -3.9318
    -3.9316  -3.8920  -3.8919  -3.8915  -3.8914  -3.8792  -3.8792  -3.8776
    -3.8695  -3.8692  -3.8691  -3.8690  -3.8688  -3.8685  -3.8644  -3.8630
    -3.8628  -3.8624  -3.8623  -3.8620  -3.8617  -3.8505  -3.8503  -3.8503
    -3.8351  -3.8348  -3.8347  -3.7969  -3.7965  -3.7963  -3.7870  -3.7864
    -3.7354  -3.7352  -3.7347  -3.6927  -3.6924  -3.6919  -3.6037  -3.6033
    -3.4806  -3.4801  -3.4799  -3.4796  -3.4793  -3.4790  -3.3561  -3.3558
    -3.3554  -3.3549  -3.3211  -3.3210  -3.3208  -3.3087  -3.3083  -3.3079
    -3.3078  -3.3071  -3.3070  -2.9668  -2.9664  -2.8517  -2.8515  -2.8511
     2.6321   3.0019   3.1884   3.1887   3.1889   3.1890   3.1893   3.1901
     3.2077   3.2077   3.2083   3.2853   3.2856   3.7036   3.7039   3.7051
     3.9303   3.9307   3.9311   3.9313   3.9315   3.9323   4.2661   4.2664
     4.4409   4.4413   4.4416   4.4486   4.4491   4.4504   4.5725   4.5734
     4.8948   4.8957   4.8959   4.9671   5.2024   5.3145   5.3146   5.3151
     5.3154   5.3608   5.3610   5.3613   5.3800   5.3805   5.3811   5.4434
     5.4441   5.4446   5.4449   5.4453   5.4460   5.5920   5.5926   5.8003
     5.9224   5.9227   5.9231   5.9233   5.9237   5.9240   5.9316   5.9318
     5.9320   6.0344   6.0345   6.0346   6.2279   6.2290   6.2293   6.2301
     6.2304   6.6522   6.6527   6.6531   6.6533   6.6536   6.6546   7.0617
     7.0620   7.0622   7.0625   7.0650   7.0657   7.0667   7.1495   7.1500
     7.1501   7.1696   7.1698   7.1703   7.1706   7.1708   7.1714   7.1721
     7.1729   7.1733   7.2601   7.2601   7.2611   7.2611   7.2617   7.2624
     7.3037   7.3040   7.3044   7.3663   7.3667   7.3711   7.3713   7.3720
     7.3721   7.3722   7.3729   7.5621   7.5626   7.5629   7.6611   7.7388
     7.7390   7.7392   7.7469   7.7473   7.8524   7.8529   7.8962   7.8964
     7.8965   7.8966   7.9875   7.9878   7.9880   7.9964   7.9965   8.0254
     8.0260   8.0262   8.0265   8.0268   8.0274   8.0398   8.0400   8.0404
     9.0252  12.1631  12.1637  12.6856  12.6872  12.6878  12.6882  12.6889
    12.6898  12.8664  12.8676  12.8690  13.2428  13.2439  13.2446  13.4060
    13.6033  13.6061  13.6065  13.6068

          k = 0.0000 0.0000 0.0363 ( 63479 PWs)   bands (ev):

    -9.1660  -8.9792  -8.8431  -8.8425  -8.8421  -8.8074  -8.8061  -8.8056
    -8.6437  -8.6432  -8.6430  -8.6131  -8.6115  -8.6111  -8.4862  -8.4524
    -8.4517  -8.4469  -8.4381  -8.4327  -8.4138  -8.4126  -8.4069  -8.4035
    -8.3910  -8.3873  -8.3687  -8.3680  -8.3605  -8.3532  -8.3527  -8.3265
    -8.3255  -8.3250  -8.3247  -8.3233  -8.3232  -8.3112  -8.3058  -8.2690
    -8.2658  -8.2541  -8.2534  -8.2497  -8.1925  -8.1885  -8.1878  -8.1873
    -4.3026  -4.2930  -4.2885  -4.2839  -4.2837  -4.2823  -4.2814  -4.2811
    -4.2672  -4.2580  -4.2577  -4.2525  -4.2516  -4.2512  -4.2300  -4.2271
    -4.2261  -4.2255  -4.2185  -4.2185  -4.2134  -4.2100  -4.2037  -4.2013
    -4.2008  -4.1974  -4.1974  -4.1896  -4.1835  -4.1812  -4.1691  -4.1647
    -4.1643  -4.1641  -4.1639  -4.1577  -4.1570  -4.1569  -4.1530  -4.1524
    -4.1497  -4.1468  -4.1465  -4.1446  -4.1400  -4.1250  -4.1248  -4.1214
    -4.1202  -4.1200  -4.1069  -4.1044  -4.1043  -4.1018  -4.0957  -4.0954
    -4.0888  -4.0866  -4.0862  -4.0763  -4.0720  -4.0693  -4.0600  -4.0593
    -4.0498  -4.0463  -4.0401  -4.0347  -4.0305  -4.0301  -4.0299  -4.0255
    -4.0246  -4.0221  -4.0205  -4.0090  -4.0083  -3.9916  -3.9908  -3.9905
    -3.9904  -3.9856  -3.9747  -3.9740  -3.9722  -3.9716  -3.9630  -3.9626
    -3.9571  -3.9562  -3.9473  -3.9470  -3.9408  -3.9346  -3.9300  -3.9274
    -3.9131  -3.9060  -3.9044  -3.9040  -3.9035  -3.8981  -3.8977  -3.8970
    -3.8923  -3.8855  -3.8770  -3.8738  -3.8719  -3.8704  -3.8631  -3.8624
    -3.8618  -3.8615  -3.8480  -3.8476  -3.8434  -3.8431  -3.8342  -3.8260
    -3.8249  -3.8097  -3.8092  -3.7997  -3.7959  -3.7954  -3.7756  -3.7538
    -3.7311  -3.6985  -3.6931  -3.6924  -3.6678  -3.6289  -3.6275  -3.6270
    -3.5992  -3.5891  -3.5728  -3.5724  -3.5631  -3.5457  -3.5108  -3.5102
    -3.3689  -3.3682  -3.3305  -3.3301  -3.2681  -3.2226  -3.2031  -3.1251
    -3.1242  -3.1184  -3.0787  -3.0664  -2.9997  -2.9350  -2.9346  -2.9085
     2.7454   2.9942   3.0008   3.2035   3.2094   3.2135   3.3034   3.3041
     3.3083   3.3087   3.3839   3.3851   3.4944   3.5236   3.5746   3.5757
     3.6331   3.6337   3.7987   3.9332   3.9578   3.9586   3.9616   4.1325
     4.2491   4.2499   4.5228   4.5235   4.6124   4.6224   4.6311   4.6910
     4.7751   4.9827   4.9833   5.0970   5.1085   5.1250   5.1817   5.2820
     5.3092   5.3099   5.3201   5.3207   5.3639   5.3644   5.3927   5.4329
     5.5080   5.6184   5.6186   5.6542   5.6796   5.6876   5.8111   5.8114
     5.8420   5.8447   5.9705   5.9713   5.9717   6.0241   6.0244   6.1277
     6.1294   6.1612   6.1714   6.2010   6.2231   6.2499   6.2506   6.2628
     6.4137   6.4144   6.4811   6.5287   6.5375   6.5842   6.6402   6.6861
     6.6869   6.7785   6.7796   6.8994   6.9266   6.9349   6.9616   6.9627
     7.0075   7.0480   7.0487   7.1169   7.1172   7.1789   7.2048   7.2052
     7.2270   7.2280   7.2542   7.2560   7.2657   7.3008   7.3040   7.4323
     7.4366   7.4377   7.4704   7.4929   7.5338   7.5568   7.5576   7.5797
     7.5805   7.5809   7.6151   7.6258   7.6285   7.6546   7.6604   7.6615
     7.6715   7.7185   7.7197   7.7202   7.7853   7.7856   7.7994   7.8003
     7.8574   7.8825   7.9095   7.9098   7.9135   7.9148   7.9169   7.9175
     7.9295   7.9591   7.9601   7.9642   8.0092   8.0101   8.0381   8.0870
     9.9452  11.3431  12.1315  12.3747  12.3750  12.4893  12.5328  12.5330
    12.7597  13.2088  13.2098  13.4287  13.4299  13.5744  13.5966  13.6642
    13.6657  13.6704  13.7232  13.7375

          k = 0.0000 0.0339-0.0128 ( 63479 PWs)   bands (ev):

    -9.1660  -8.9792  -8.8432  -8.8425  -8.8421  -8.8074  -8.8059  -8.8056
    -8.6436  -8.6433  -8.6430  -8.6131  -8.6114  -8.6113  -8.4863  -8.4521
    -8.4515  -8.4473  -8.4378  -8.4329  -8.4134  -8.4128  -8.4066  -8.4038
    -8.3911  -8.3872  -8.3688  -8.3682  -8.3603  -8.3532  -8.3529  -8.3265
    -8.3254  -8.3251  -8.3245  -8.3236  -8.3228  -8.3112  -8.3058  -8.2689
    -8.2659  -8.2541  -8.2537  -8.2495  -8.1925  -8.1886  -8.1877  -8.1872
    -4.3027  -4.2928  -4.2885  -4.2838  -4.2836  -4.2825  -4.2812  -4.2812
    -4.2672  -4.2580  -4.2578  -4.2522  -4.2515  -4.2514  -4.2300  -4.2273
    -4.2261  -4.2252  -4.2187  -4.2185  -4.2134  -4.2101  -4.2037  -4.2012
    -4.2009  -4.1975  -4.1973  -4.1896  -4.1835  -4.1812  -4.1690  -4.1647
    -4.1644  -4.1642  -4.1639  -4.1576  -4.1572  -4.1568  -4.1529  -4.1526
    -4.1496  -4.1468  -4.1466  -4.1446  -4.1399  -4.1250  -4.1248  -4.1214
    -4.1203  -4.1199  -4.1069  -4.1045  -4.1041  -4.1018  -4.0956  -4.0955
    -4.0888  -4.0865  -4.0864  -4.0762  -4.0720  -4.0692  -4.0600  -4.0594
    -4.0498  -4.0462  -4.0402  -4.0346  -4.0305  -4.0303  -4.0300  -4.0253
    -4.0250  -4.0221  -4.0206  -4.0088  -4.0085  -3.9913  -3.9911  -3.9906
    -3.9903  -3.9856  -3.9747  -3.9739  -3.9721  -3.9717  -3.9629  -3.9627
    -3.9570  -3.9562  -3.9474  -3.9469  -3.9408  -3.9344  -3.9300  -3.9274
    -3.9131  -3.9060  -3.9043  -3.9039  -3.9037  -3.8980  -3.8976  -3.8973
    -3.8923  -3.8855  -3.8770  -3.8740  -3.8719  -3.8704  -3.8629  -3.8625
    -3.8619  -3.8614  -3.8479  -3.8478  -3.8435  -3.8430  -3.8342  -3.8256
    -3.8253  -3.8096  -3.8093  -3.7997  -3.7962  -3.7951  -3.7755  -3.7536
    -3.7310  -3.6987  -3.6927  -3.6924  -3.6678  -3.6292  -3.6276  -3.6274
    -3.5993  -3.5888  -3.5726  -3.5724  -3.5632  -3.5455  -3.5107  -3.5104
    -3.3686  -3.3685  -3.3303  -3.3302  -3.2683  -3.2227  -3.2032  -3.1248
    -3.1246  -3.1182  -3.0787  -3.0667  -2.9995  -2.9349  -2.9346  -2.9085
     2.7455   2.9940   3.0005   3.2034   3.2094   3.2137   3.3036   3.3040
     3.3084   3.3090   3.3841   3.3846   3.4942   3.5236   3.5746   3.5751
     3.6329   3.6339   3.7996   3.9332   3.9580   3.9588   3.9615   4.1331
     4.2490   4.2497   4.5228   4.5233   4.6124   4.6217   4.6310   4.6904
     4.7749   4.9829   4.9833   5.0968   5.1083   5.1251   5.1814   5.2822
     5.3099   5.3103   5.3202   5.3208   5.3637   5.3641   5.3928   5.4331
     5.5085   5.6186   5.6189   5.6540   5.6798   5.6877   5.8115   5.8117
     5.8416   5.8445   5.9703   5.9708   5.9712   6.0237   6.0243   6.1286
     6.1291   6.1611   6.1712   6.2013   6.2226   6.2498   6.2503   6.2630
     6.4135   6.4140   6.4813   6.5289   6.5380   6.5846   6.6399   6.6865
     6.6873   6.7791   6.7794   6.8996   6.9272   6.9345   6.9621   6.9626
     7.0073   7.0485   7.0487   7.1170   7.1173   7.1787   7.2044   7.2050
     7.2272   7.2275   7.2540   7.2561   7.2652   7.3004   7.3034   7.4324
     7.4368   7.4371   7.4708   7.4933   7.5337   7.5569   7.5572   7.5791
     7.5803   7.5810   7.6158   7.6258   7.6281   7.6548   7.6609   7.6615
     7.6709   7.7192   7.7194   7.7201   7.7854   7.7857   7.7995   7.8004
     7.8575   7.8824   7.9092   7.9095   7.9138   7.9150   7.9167   7.9173
     7.9298   7.9596   7.9598   7.9643   8.0095   8.0101   8.0379   8.0869
     9.9452  11.3430  12.1318  12.3744  12.3752  12.4898  12.5322  12.5333
    12.7594  13.2089  13.2099  13.4285  13.4299  13.5745  13.5958  13.6645
    13.6658  13.6698  13.7227  13.7382

          k = 0.0000 0.0339 0.0234 ( 63480 PWs)   bands (ev):

    -9.1481  -8.9570  -8.8761  -8.8747  -8.8640  -8.8639  -8.7804  -8.7803
    -8.6530  -8.6528  -8.5916  -8.5913  -8.5736  -8.5721  -8.5521  -8.4642
    -8.4575  -8.4571  -8.4398  -8.4393  -8.4271  -8.4253  -8.4240  -8.4083
    -8.3928  -8.3924  -8.3606  -8.3553  -8.3473  -8.3388  -8.3385  -8.3283
    -8.3246  -8.3159  -8.3069  -8.3015  -8.3012  -8.2868  -8.2865  -8.2848
    -8.2737  -8.2733  -8.2643  -8.2380  -8.2154  -8.2010  -8.2007  -8.1943
    -4.3121  -4.2963  -4.2862  -4.2814  -4.2776  -4.2775  -4.2767  -4.2765
    -4.2740  -4.2540  -4.2539  -4.2516  -4.2515  -4.2406  -4.2381  -4.2335
    -4.2286  -4.2190  -4.2159  -4.2141  -4.2138  -4.2093  -4.2050  -4.2047
    -4.2023  -4.1895  -4.1853  -4.1848  -4.1846  -4.1809  -4.1788  -4.1740
    -4.1720  -4.1717  -4.1693  -4.1609  -4.1607  -4.1511  -4.1506  -4.1503
    -4.1495  -4.1493  -4.1463  -4.1458  -4.1344  -4.1304  -4.1220  -4.1218
    -4.1177  -4.1091  -4.1089  -4.1041  -4.1025  -4.1021  -4.1001  -4.0995
    -4.0849  -4.0842  -4.0839  -4.0837  -4.0833  -4.0795  -4.0654  -4.0546
    -4.0513  -4.0380  -4.0372  -4.0358  -4.0356  -4.0334  -4.0222  -4.0175
    -4.0082  -4.0076  -4.0075  -4.0043  -4.0040  -3.9951  -3.9946  -3.9824
    -3.9820  -3.9815  -3.9807  -3.9773  -3.9770  -3.9751  -3.9630  -3.9627
    -3.9624  -3.9614  -3.9613  -3.9449  -3.9444  -3.9395  -3.9336  -3.9309
    -3.9227  -3.9112  -3.9065  -3.9056  -3.9054  -3.9040  -3.9037  -3.8936
    -3.8906  -3.8800  -3.8721  -3.8711  -3.8632  -3.8624  -3.8587  -3.8586
    -3.8558  -3.8555  -3.8519  -3.8505  -3.8502  -3.8488  -3.8486  -3.8162
    -3.8082  -3.8079  -3.7920  -3.7889  -3.7882  -3.7690  -3.7689  -3.7589
    -3.7492  -3.7489  -3.7209  -3.7203  -3.6938  -3.6770  -3.6738  -3.6544
    -3.6433  -3.6431  -3.5569  -3.5238  -3.5231  -3.5083  -3.4094  -3.4089
    -3.3844  -3.3131  -3.3104  -3.3100  -3.2603  -3.2298  -3.2294  -3.2044
    -3.2043  -3.1478  -3.0470  -3.0278  -2.9701  -2.9697  -2.9493  -2.8916
     2.7515   3.0183   3.0717   3.1341   3.1346   3.1607   3.3350   3.3776
     3.3784   3.3785   3.3941   3.3947   3.4026   3.4197   3.5299   3.6164
     3.6167   3.7403   3.7410   3.8929   4.0151   4.0425   4.0567   4.0569
     4.2109   4.2115   4.3969   4.3972   4.5585   4.6192   4.7921   4.8343
     4.9068   4.9375   5.0437   5.0721   5.0724   5.1763   5.1767   5.2200
     5.2224   5.2233   5.2778   5.2782   5.2892   5.3791   5.3794   5.3970
     5.4599   5.5366   5.6509   5.6518   5.7238   5.7385   5.7387   5.7835
     5.7895   5.7907   5.8793   5.9613   6.0584   6.0934   6.0942   6.1485
     6.1623   6.1774   6.2458   6.2501   6.2506   6.4251   6.4262   6.4309
     6.4510   6.4909   6.4918   6.4939   6.5133   6.7009   6.7170   6.7389
     6.7394   6.7892   6.7896   6.8507   6.9519   6.9522   6.9703   6.9751
     6.9782   7.0172   7.0176   7.0455   7.0460   7.0524   7.0780   7.0877
     7.1075   7.2341   7.2345   7.2354   7.2358   7.3019   7.3030   7.3036
     7.3855   7.3999   7.4323   7.4558   7.4562   7.4940   7.5182   7.5186
     7.5538   7.5959   7.6005   7.6235   7.6615   7.6620   7.6794   7.7071
     7.7090   7.7608   7.7632   7.7637   7.8013   7.8035   7.8075   7.8254
     7.8257   7.8964   7.8964   7.9042   7.9106   7.9312   7.9587   7.9588
     7.9717   7.9756   7.9758   7.9937   8.0059   8.0117   8.0545   8.0547
    10.1424  11.7303  11.7869  11.9635  12.0616  12.0624  13.0101  13.0545
    13.0561  13.3119  13.3128  13.3555  13.3567  13.5118  13.5132  13.5784
    13.6374  13.6536  13.6790  13.6801

          k = 0.0000 0.0339-0.0491 ( 63475 PWs)   bands (ev):

    -9.0600  -9.0132  -9.0130  -8.8857  -8.8856  -8.7276  -8.7176  -8.7172
    -8.7164  -8.7161  -8.7033  -8.5733  -8.5729  -8.4957  -8.4952  -8.4588
    -8.4499  -8.4280  -8.4226  -8.4223  -8.4209  -8.4206  -8.4152  -8.4147
    -8.3979  -8.3975  -8.3882  -8.3878  -8.3768  -8.3709  -8.3708  -8.3643
    -8.3127  -8.3123  -8.3066  -8.3060  -8.3011  -8.2628  -8.2621  -8.2611
    -8.2552  -8.2551  -8.2304  -8.2298  -8.2294  -8.2289  -8.2220  -8.2218
    -4.2948  -4.2943  -4.2849  -4.2844  -4.2797  -4.2777  -4.2718  -4.2717
    -4.2705  -4.2588  -4.2558  -4.2557  -4.2443  -4.2442  -4.2342  -4.2338
    -4.2282  -4.2278  -4.2245  -4.2234  -4.2231  -4.2165  -4.2097  -4.2093
    -4.1955  -4.1946  -4.1944  -4.1857  -4.1854  -4.1765  -4.1758  -4.1755
    -4.1661  -4.1657  -4.1638  -4.1602  -4.1599  -4.1597  -4.1564  -4.1562
    -4.1544  -4.1542  -4.1356  -4.1353  -4.1338  -4.1330  -4.1196  -4.1192
    -4.1145  -4.1141  -4.0989  -4.0988  -4.0973  -4.0963  -4.0959  -4.0943
    -4.0939  -4.0869  -4.0698  -4.0695  -4.0642  -4.0637  -4.0617  -4.0546
    -4.0475  -4.0312  -4.0307  -4.0304  -4.0302  -4.0229  -4.0225  -4.0147
    -4.0122  -4.0087  -4.0086  -4.0068  -4.0064  -4.0057  -4.0030  -4.0027
    -3.9886  -3.9874  -3.9872  -3.9842  -3.9775  -3.9774  -3.9679  -3.9677
    -3.9661  -3.9568  -3.9566  -3.9550  -3.9433  -3.9432  -3.9421  -3.9417
    -3.9285  -3.9282  -3.9245  -3.9241  -3.9220  -3.8910  -3.8908  -3.8861
    -3.8843  -3.8842  -3.8743  -3.8737  -3.8597  -3.8591  -3.8559  -3.8558
    -3.8507  -3.8504  -3.8417  -3.8384  -3.8375  -3.8370  -3.8339  -3.8334
    -3.7887  -3.7852  -3.7847  -3.7807  -3.7803  -3.7789  -3.7618  -3.7616
    -3.7459  -3.7454  -3.7200  -3.7194  -3.6915  -3.6831  -3.6829  -3.6634
    -3.6260  -3.6252  -3.6078  -3.6067  -3.5838  -3.4928  -3.4557  -3.4555
    -3.3642  -3.3636  -3.2802  -3.2541  -3.2534  -3.1853  -3.1851  -3.1518
    -3.1259  -3.1033  -3.0691  -3.0688  -2.9773  -2.9770  -2.9612  -2.9607
     2.9158   3.0051   3.0054   3.0310   3.1859   3.1863   3.2263   3.2265
     3.4623   3.4626   3.4951   3.5495   3.5502   3.5533   3.5542   3.6124
     3.7052   3.7060   3.7283   3.7289   3.7700   3.8878   3.9007   3.9011
     3.9297   4.2381   4.2389   4.6821   4.7771   4.7774   4.8903   4.8907
     4.9937   4.9942   5.0372   5.0490   5.0495   5.1477   5.1486   5.1754
     5.1758   5.1902   5.2677   5.3492   5.3494   5.3633   5.3642   5.3895
     5.5064   5.6314   5.6324   5.6789   5.6792   5.7568   5.7573   5.7670
     5.7675   5.8076   5.9022   5.9029   5.9445   5.9450   6.1449   6.1617
     6.1760   6.1764   6.2329   6.3350   6.3361   6.4189   6.4194   6.4774
     6.5140   6.5144   6.5151   6.5177   6.5184   6.5513   6.7052   6.7058
     6.7114   6.8658   6.8666   6.8804   6.8811   6.8856   6.8857   6.9158
     6.9161   7.0379   7.0416   7.0484   7.0487   7.1025   7.1033   7.1477
     7.1886   7.2026   7.2036   7.2142   7.2147   7.3480   7.3482   7.3528
     7.3534   7.3587   7.3595   7.3703   7.4095   7.4586   7.4593   7.5675
     7.5752   7.5757   7.6014   7.6017   7.6093   7.6519   7.7012   7.7021
     7.7148   7.7153   7.8185   7.8190   7.8244   7.8247   7.8270   7.8686
     7.8691   7.8780   7.8789   7.8960   7.8961   7.9203   7.9402   7.9418
     7.9421   7.9533   7.9553   7.9558   7.9993   8.0337   8.0338   8.0895
    10.8384  11.1920  11.1926  11.9932  11.9939  12.8852  12.8865  12.9122
    13.0030  13.0039  13.2680  13.2713  13.5430  13.5593  13.5604  13.6363
    13.6380  13.6725  13.6733  13.8477

          k = 0.0283-0.0186-0.0128 ( 63479 PWs)   bands (ev):

    -9.1660  -8.9792  -8.8432  -8.8424  -8.8422  -8.8074  -8.8059  -8.8058
    -8.6437  -8.6433  -8.6429  -8.6132  -8.6114  -8.6111  -8.4862  -8.4522
    -8.4518  -8.4470  -8.4380  -8.4327  -8.4134  -8.4131  -8.4068  -8.4036
    -8.3910  -8.3874  -8.3684  -8.3682  -8.3605  -8.3530  -8.3529  -8.3265
    -8.3254  -8.3249  -8.3247  -8.3235  -8.3231  -8.3112  -8.3059  -8.2690
    -8.2659  -8.2540  -8.2537  -8.2496  -8.1925  -8.1886  -8.1876  -8.1873
    -4.3027  -4.2929  -4.2885  -4.2838  -4.2836  -4.2825  -4.2813  -4.2811
    -4.2671  -4.2580  -4.2578  -4.2522  -4.2516  -4.2514  -4.2299  -4.2271
    -4.2261  -4.2255  -4.2187  -4.2184  -4.2134  -4.2101  -4.2038  -4.2012
    -4.2009  -4.1975  -4.1973  -4.1896  -4.1834  -4.1812  -4.1690  -4.1646
    -4.1644  -4.1641  -4.1639  -4.1577  -4.1570  -4.1569  -4.1528  -4.1526
    -4.1496  -4.1468  -4.1467  -4.1445  -4.1400  -4.1249  -4.1248  -4.1214
    -4.1203  -4.1199  -4.1068  -4.1045  -4.1042  -4.1018  -4.0958  -4.0955
    -4.0888  -4.0866  -4.0863  -4.0763  -4.0720  -4.0693  -4.0599  -4.0593
    -4.0498  -4.0462  -4.0402  -4.0346  -4.0303  -4.0303  -4.0301  -4.0253
    -4.0249  -4.0221  -4.0206  -4.0088  -4.0085  -3.9913  -3.9911  -3.9906
    -3.9903  -3.9856  -3.9747  -3.9739  -3.9722  -3.9717  -3.9629  -3.9626
    -3.9571  -3.9562  -3.9475  -3.9468  -3.9408  -3.9345  -3.9300  -3.9274
    -3.9131  -3.9060  -3.9045  -3.9039  -3.9035  -3.8979  -3.8976  -3.8973
    -3.8923  -3.8854  -3.8770  -3.8739  -3.8720  -3.8704  -3.8628  -3.8625
    -3.8619  -3.8615  -3.8479  -3.8477  -3.8435  -3.8430  -3.8342  -3.8256
    -3.8253  -3.8095  -3.8093  -3.7997  -3.7958  -3.7955  -3.7755  -3.7537
    -3.7312  -3.6987  -3.6927  -3.6925  -3.6677  -3.6291  -3.6276  -3.6272
    -3.5992  -3.5889  -3.5728  -3.5725  -3.5633  -3.5455  -3.5108  -3.5103
    -3.3687  -3.3684  -3.3304  -3.3301  -3.2681  -3.2226  -3.2031  -3.1247
    -3.1246  -3.1183  -3.0788  -3.0665  -2.9996  -2.9349  -2.9346  -2.9087
     2.7454   2.9940   3.0008   3.2039   3.2097   3.2133   3.3035   3.3036
     3.3083   3.3090   3.3842   3.3844   3.4942   3.5234   3.5746   3.5755
     3.6332   3.6336   3.7990   3.9331   3.9580   3.9584   3.9614   4.1326
     4.2494   4.2499   4.5231   4.5236   4.6127   4.6222   4.6310   4.6908
     4.7750   4.9830   4.9833   5.0967   5.1083   5.1248   5.1816   5.2821
     5.3097   5.3099   5.3204   5.3207   5.3640   5.3644   5.3929   5.4330
     5.5078   5.6184   5.6186   5.6542   5.6795   5.6880   5.8112   5.8116
     5.8419   5.8448   5.9708   5.9709   5.9716   6.0239   6.0245   6.1281
     6.1289   6.1610   6.1713   6.2010   6.2231   6.2497   6.2502   6.2630
     6.4133   6.4141   6.4808   6.5286   6.5379   6.5842   6.6404   6.6862
     6.6866   6.7788   6.7792   6.8992   6.9269   6.9349   6.9621   6.9623
     7.0073   7.0482   7.0492   7.1167   7.1173   7.1790   7.2046   7.2052
     7.2273   7.2282   7.2537   7.2563   7.2652   7.3006   7.3036   7.4326
     7.4369   7.4371   7.4708   7.4931   7.5336   7.5569   7.5572   7.5795
     7.5805   7.5810   7.6156   7.6259   7.6281   7.6548   7.6610   7.6612
     7.6712   7.7191   7.7194   7.7201   7.7854   7.7856   7.7998   7.8002
     7.8575   7.8825   7.9094   7.9097   7.9140   7.9148   7.9170   7.9171
     7.9297   7.9596   7.9597   7.9644   8.0095   8.0100   8.0379   8.0870
     9.9453  11.3432  12.1317  12.3740  12.3752  12.4896  12.5320  12.5333
    12.7596  13.2087  13.2100  13.4287  13.4303  13.5738  13.5963  13.6650
    13.6664  13.6697  13.7228  13.7381

          k = 0.0283-0.0186 0.0234 ( 63480 PWs)   bands (ev):

    -9.1481  -8.9570  -8.8761  -8.8748  -8.8641  -8.8638  -8.7806  -8.7802
    -8.6531  -8.6528  -8.5916  -8.5913  -8.5737  -8.5721  -8.5519  -8.4639
    -8.4576  -8.4569  -8.4403  -8.4392  -8.4275  -8.4256  -8.4240  -8.4084
    -8.3927  -8.3922  -8.3605  -8.3550  -8.3473  -8.3385  -8.3384  -8.3284
    -8.3243  -8.3158  -8.3069  -8.3015  -8.3011  -8.2869  -8.2865  -8.2850
    -8.2738  -8.2733  -8.2642  -8.2380  -8.2155  -8.2012  -8.2007  -8.1943
    -4.3121  -4.2963  -4.2862  -4.2814  -4.2778  -4.2775  -4.2766  -4.2764
    -4.2740  -4.2542  -4.2540  -4.2515  -4.2514  -4.2405  -4.2381  -4.2335
    -4.2285  -4.2191  -4.2159  -4.2141  -4.2139  -4.2093  -4.2050  -4.2048
    -4.2023  -4.1895  -4.1853  -4.1848  -4.1846  -4.1809  -4.1788  -4.1739
    -4.1721  -4.1717  -4.1692  -4.1609  -4.1607  -4.1511  -4.1505  -4.1504
    -4.1495  -4.1493  -4.1462  -4.1458  -4.1345  -4.1304  -4.1219  -4.1218
    -4.1178  -4.1090  -4.1088  -4.1040  -4.1023  -4.1020  -4.1002  -4.0996
    -4.0849  -4.0843  -4.0839  -4.0837  -4.0833  -4.0794  -4.0654  -4.0546
    -4.0514  -4.0381  -4.0371  -4.0358  -4.0356  -4.0335  -4.0222  -4.0174
    -4.0082  -4.0076  -4.0075  -4.0044  -4.0040  -3.9951  -3.9947  -3.9826
    -3.9820  -3.9814  -3.9807  -3.9773  -3.9770  -3.9751  -3.9630  -3.9628
    -3.9623  -3.9614  -3.9612  -3.9449  -3.9444  -3.9394  -3.9337  -3.9308
    -3.9227  -3.9113  -3.9062  -3.9059  -3.9054  -3.9040  -3.9037  -3.8936
    -3.8906  -3.8800  -3.8722  -3.8711  -3.8632  -3.8624  -3.8588  -3.8585
    -3.8557  -3.8554  -3.8518  -3.8506  -3.8502  -3.8489  -3.8486  -3.8162
    -3.8081  -3.8080  -3.7920  -3.7889  -3.7881  -3.7691  -3.7689  -3.7589
    -3.7492  -3.7490  -3.7207  -3.7206  -3.6936  -3.6770  -3.6738  -3.6545
    -3.6434  -3.6432  -3.5570  -3.5239  -3.5231  -3.5085  -3.4090  -3.4088
    -3.3845  -3.3131  -3.3103  -3.3100  -3.2603  -3.2298  -3.2294  -3.2045
    -3.2042  -3.1477  -3.0469  -3.0277  -2.9702  -2.9699  -2.9495  -2.8916
     2.7513   3.0178   3.0718   3.1341   3.1344   3.1611   3.3349   3.3773
     3.3783   3.3788   3.3940   3.3943   3.4031   3.4202   3.5298   3.6163
     3.6178   3.7402   3.7407   3.8926   4.0149   4.0424   4.0566   4.0570
     4.2108   4.2114   4.3963   4.3972   4.5584   4.6197   4.7926   4.8348
     4.9065   4.9381   5.0437   5.0720   5.0723   5.1762   5.1767   5.2203
     5.2223   5.2231   5.2777   5.2783   5.2889   5.3789   5.3797   5.3971
     5.4599   5.5363   5.6516   5.6521   5.7239   5.7385   5.7387   5.7834
     5.7901   5.7908   5.8792   5.9613   6.0582   6.0927   6.0937   6.1482
     6.1621   6.1776   6.2455   6.2502   6.2506   6.4254   6.4259   6.4309
     6.4514   6.4905   6.4913   6.4935   6.5132   6.7007   6.7175   6.7386
     6.7394   6.7891   6.7895   6.8504   6.9520   6.9529   6.9700   6.9752
     6.9778   7.0172   7.0176   7.0455   7.0461   7.0528   7.0780   7.0876
     7.1075   7.2341   7.2346   7.2356   7.2363   7.3025   7.3032   7.3040
     7.3855   7.4001   7.4321   7.4555   7.4562   7.4944   7.5181   7.5186
     7.5536   7.5960   7.6006   7.6234   7.6613   7.6621   7.6790   7.7071
     7.7090   7.7609   7.7631   7.7637   7.8012   7.8036   7.8076   7.8252
     7.8257   7.8963   7.8966   7.9041   7.9108   7.9313   7.9587   7.9588
     7.9715   7.9754   7.9758   7.9938   8.0058   8.0117   8.0546   8.0548
    10.1424  11.7305  11.7867  11.9631  12.0618  12.0625  13.0103  13.0544
    13.0562  13.3115  13.3127  13.3556  13.3563  13.5117  13.5133  13.5787
    13.6374  13.6534  13.6796  13.6801

          k = 0.0283-0.0186-0.0491 ( 63475 PWs)   bands (ev):

    -9.0600  -9.0131  -9.0130  -8.8858  -8.8855  -8.7277  -8.7176  -8.7172
    -8.7164  -8.7162  -8.7032  -8.5733  -8.5730  -8.4954  -8.4951  -8.4591
    -8.4501  -8.4280  -8.4225  -8.4224  -8.4207  -8.4203  -8.4153  -8.4150
    -8.3978  -8.3977  -8.3881  -8.3877  -8.3765  -8.3710  -8.3709  -8.3643
    -8.3127  -8.3120  -8.3065  -8.3063  -8.3012  -8.2629  -8.2623  -8.2611
    -8.2553  -8.2551  -8.2304  -8.2297  -8.2294  -8.2288  -8.2219  -8.2218
    -4.2947  -4.2944  -4.2850  -4.2844  -4.2798  -4.2778  -4.2719  -4.2716
    -4.2704  -4.2589  -4.2557  -4.2556  -4.2443  -4.2442  -4.2342  -4.2339
    -4.2282  -4.2279  -4.2242  -4.2233  -4.2232  -4.2166  -4.2096  -4.2093
    -4.1952  -4.1947  -4.1946  -4.1857  -4.1854  -4.1765  -4.1759  -4.1755
    -4.1661  -4.1657  -4.1638  -4.1603  -4.1599  -4.1597  -4.1564  -4.1562
    -4.1545  -4.1542  -4.1356  -4.1354  -4.1337  -4.1331  -4.1196  -4.1192
    -4.1145  -4.1141  -4.0990  -4.0988  -4.0973  -4.0963  -4.0960  -4.0943
    -4.0939  -4.0868  -4.0699  -4.0695  -4.0640  -4.0639  -4.0617  -4.0546
    -4.0475  -4.0313  -4.0308  -4.0303  -4.0299  -4.0229  -4.0225  -4.0146
    -4.0122  -4.0088  -4.0085  -4.0068  -4.0066  -4.0057  -4.0030  -4.0026
    -3.9884  -3.9876  -3.9874  -3.9842  -3.9775  -3.9774  -3.9679  -3.9677
    -3.9662  -3.9567  -3.9565  -3.9552  -3.9432  -3.9431  -3.9422  -3.9417
    -3.9285  -3.9282  -3.9243  -3.9241  -3.9221  -3.8910  -3.8907  -3.8861
    -3.8843  -3.8842  -3.8744  -3.8737  -3.8597  -3.8592  -3.8559  -3.8558
    -3.8506  -3.8504  -3.8417  -3.8384  -3.8375  -3.8370  -3.8338  -3.8334
    -3.7888  -3.7852  -3.7846  -3.7807  -3.7803  -3.7791  -3.7618  -3.7616
    -3.7458  -3.7456  -3.7200  -3.7195  -3.6916  -3.6831  -3.6828  -3.6635
    -3.6259  -3.6254  -3.6077  -3.6070  -3.5836  -3.4925  -3.4558  -3.4554
    -3.3641  -3.3637  -3.2803  -3.2540  -3.2534  -3.1854  -3.1852  -3.1518
    -3.1258  -3.1032  -3.0691  -3.0689  -2.9773  -2.9771  -2.9613  -2.9607
     2.9157   3.0048   3.0051   3.0310   3.1858   3.1869   3.2265   3.2271
     3.4623   3.4627   3.4951   3.5495   3.5499   3.5533   3.5538   3.6124
     3.7051   3.7057   3.7284   3.7285   3.7703   3.8883   3.9008   3.9015
     3.9293   4.2380   4.2387   4.6820   4.7773   4.7778   4.8907   4.8918
     4.9936   4.9939   5.0372   5.0491   5.0496   5.1478   5.1483   5.1753
     5.1758   5.1900   5.2678   5.3492   5.3493   5.3631   5.3639   5.3895
     5.5065   5.6318   5.6323   5.6785   5.6791   5.7565   5.7570   5.7674
     5.7682   5.8074   5.9019   5.9028   5.9444   5.9453   6.1445   6.1613
     6.1759   6.1762   6.2328   6.3351   6.3357   6.4192   6.4199   6.4777
     6.5143   6.5149   6.5153   6.5179   6.5184   6.5511   6.7049   6.7053
     6.7115   6.8659   6.8662   6.8804   6.8809   6.8853   6.8858   6.9156
     6.9160   7.0375   7.0413   7.0485   7.0489   7.1024   7.1031   7.1479
     7.1889   7.2027   7.2033   7.2140   7.2145   7.3478   7.3485   7.3530
     7.3538   7.3588   7.3593   7.3706   7.4099   7.4587   7.4595   7.5675
     7.5749   7.5755   7.6015   7.6021   7.6097   7.6518   7.7013   7.7019
     7.7151   7.7153   7.8187   7.8190   7.8242   7.8246   7.8269   7.8684
     7.8688   7.8785   7.8787   7.8959   7.8963   7.9205   7.9400   7.9420
     7.9422   7.9533   7.9555   7.9558   7.9991   8.0335   8.0338   8.0895
    10.8385  11.1924  11.1925  11.9924  11.9941  12.8853  12.8866  12.9123
    13.0025  13.0040  13.2678  13.2716  13.5426  13.5592  13.5612  13.6368
    13.6383  13.6725  13.6731  13.8466

          k = 0.0283 0.0153-0.0257 ( 63480 PWs)   bands (ev):

    -9.1481  -8.9570  -8.8761  -8.8747  -8.8642  -8.8638  -8.7806  -8.7802
    -8.6534  -8.6526  -8.5920  -8.5909  -8.5737  -8.5721  -8.5520  -8.4642
    -8.4579  -8.4569  -8.4396  -8.4392  -8.4271  -8.4253  -8.4240  -8.4083
    -8.3930  -8.3923  -8.3606  -8.3552  -8.3474  -8.3397  -8.3376  -8.3284
    -8.3245  -8.3159  -8.3068  -8.3018  -8.3011  -8.2866  -8.2862  -8.2852
    -8.2738  -8.2734  -8.2645  -8.2380  -8.2154  -8.2009  -8.2007  -8.1942
    -4.3122  -4.2964  -4.2861  -4.2814  -4.2780  -4.2770  -4.2767  -4.2764
    -4.2739  -4.2541  -4.2540  -4.2518  -4.2514  -4.2405  -4.2380  -4.2336
    -4.2286  -4.2190  -4.2159  -4.2141  -4.2138  -4.2093  -4.2051  -4.2047
    -4.2023  -4.1895  -4.1854  -4.1851  -4.1843  -4.1809  -4.1788  -4.1740
    -4.1720  -4.1718  -4.1692  -4.1612  -4.1604  -4.1512  -4.1506  -4.1504
    -4.1497  -4.1492  -4.1462  -4.1459  -4.1345  -4.1304  -4.1219  -4.1218
    -4.1178  -4.1091  -4.1089  -4.1041  -4.1025  -4.1020  -4.1001  -4.0996
    -4.0850  -4.0840  -4.0839  -4.0837  -4.0835  -4.0795  -4.0655  -4.0545
    -4.0513  -4.0378  -4.0373  -4.0360  -4.0354  -4.0336  -4.0222  -4.0175
    -4.0083  -4.0079  -4.0070  -4.0044  -4.0040  -3.9952  -3.9946  -3.9823
    -3.9822  -3.9817  -3.9805  -3.9775  -3.9767  -3.9750  -3.9633  -3.9628
    -3.9621  -3.9617  -3.9610  -3.9448  -3.9444  -3.9395  -3.9336  -3.9309
    -3.9226  -3.9113  -3.9065  -3.9057  -3.9053  -3.9040  -3.9037  -3.8936
    -3.8906  -3.8800  -3.8723  -3.8709  -3.8631  -3.8625  -3.8591  -3.8582
    -3.8561  -3.8552  -3.8518  -3.8505  -3.8502  -3.8489  -3.8486  -3.8162
    -3.8084  -3.8078  -3.7921  -3.7889  -3.7881  -3.7694  -3.7684  -3.7588
    -3.7492  -3.7490  -3.7207  -3.7204  -3.6939  -3.6772  -3.6736  -3.6545
    -3.6436  -3.6427  -3.5569  -3.5236  -3.5230  -3.5084  -3.4094  -3.4088
    -3.3843  -3.3131  -3.3110  -3.3097  -3.2604  -3.2297  -3.2295  -3.2045
    -3.2041  -3.1479  -3.0471  -3.0279  -2.9701  -2.9698  -2.9492  -2.8914
     2.7514   3.0180   3.0717   3.1342   3.1347   3.1609   3.3349   3.3776
     3.3783   3.3789   3.3939   3.3948   3.4030   3.4195   3.5297   3.6161
     3.6167   3.7402   3.7411   3.8931   4.0153   4.0426   4.0564   4.0578
     4.2107   4.2119   4.3964   4.3971   4.5583   4.6193   4.7922   4.8346
     4.9069   4.9375   5.0436   5.0717   5.0723   5.1756   5.1768   5.2201
     5.2226   5.2235   5.2775   5.2781   5.2895   5.3789   5.3795   5.3970
     5.4600   5.5368   5.6505   5.6521   5.7237   5.7386   5.7391   5.7833
     5.7896   5.7903   5.8794   5.9615   6.0582   6.0936   6.0945   6.1483
     6.1624   6.1773   6.2458   6.2503   6.2509   6.4254   6.4260   6.4309
     6.4510   6.4909   6.4913   6.4939   6.5138   6.7012   6.7171   6.7387
     6.7398   6.7888   6.7898   6.8505   6.9520   6.9524   6.9701   6.9750
     6.9779   7.0173   7.0176   7.0454   7.0458   7.0527   7.0776   7.0872
     7.1072   7.2334   7.2349   7.2351   7.2355   7.3024   7.3033   7.3040
     7.3856   7.3995   7.4320   7.4556   7.4564   7.4936   7.5180   7.5189
     7.5544   7.5957   7.6006   7.6238   7.6617   7.6621   7.6795   7.7074
     7.7088   7.7608   7.7633   7.7636   7.8011   7.8037   7.8075   7.8254
     7.8260   7.8963   7.8963   7.9042   7.9105   7.9312   7.9584   7.9590
     7.9717   7.9756   7.9758   7.9938   8.0060   8.0117   8.0539   8.0552
    10.1423  11.7301  11.7869  11.9635  12.0620  12.0624  13.0099  13.0553
    13.0558  13.3118  13.3131  13.3555  13.3565  13.5107  13.5131  13.5786
    13.6374  13.6538  13.6789  13.6805

          k = 0.0283 0.0153 0.0106 ( 63450 PWs)   bands (ev):

    -9.1702  -8.9888  -8.8372  -8.8370  -8.8367  -8.7963  -8.7961  -8.7958
    -8.6556  -8.6551  -8.6547  -8.6166  -8.6161  -8.6156  -8.4694  -8.4685
    -8.4679  -8.4544  -8.4402  -8.4394  -8.4388  -8.4345  -8.4342  -8.3999
    -8.3997  -8.3327  -8.3325  -8.3322  -8.3282  -8.3278  -8.3275  -8.3262
    -8.3260  -8.3257  -8.3225  -8.3223  -8.3220  -8.3022  -8.3021  -8.2680
    -8.2676  -8.2673  -8.2651  -8.2649  -8.2424  -8.1914  -8.1912  -8.1909
    -4.3074  -4.3073  -4.2836  -4.2832  -4.2828  -4.2797  -4.2793  -4.2790
    -4.2721  -4.2720  -4.2529  -4.2527  -4.2525  -4.2354  -4.2351  -4.2350
    -4.2314  -4.2312  -4.2310  -4.2195  -4.2130  -4.2128  -4.2127  -4.2081
    -4.2014  -4.1810  -4.1808  -4.1805  -4.1789  -4.1783  -4.1778  -4.1719
    -4.1718  -4.1690  -4.1688  -4.1548  -4.1543  -4.1540  -4.1334  -4.1332
    -4.1329  -4.1322  -4.1251  -4.1247  -4.1245  -4.1182  -4.1178  -4.1176
    -4.1163  -4.1160  -4.1160  -4.1032  -4.1030  -4.1029  -4.0917  -4.0915
    -4.0913  -4.0910  -4.0909  -4.0907  -4.0905  -4.0902  -4.0730  -4.0726
    -4.0514  -4.0511  -4.0508  -4.0489  -4.0485  -4.0266  -4.0263  -4.0197
    -4.0193  -4.0190  -3.9885  -3.9883  -3.9881  -3.9818  -3.9815  -3.9812
    -3.9748  -3.9744  -3.9741  -3.9706  -3.9705  -3.9704  -3.9653  -3.9649
    -3.9551  -3.9546  -3.9542  -3.9418  -3.9412  -3.9408  -3.9382  -3.9380
    -3.9377  -3.9295  -3.9291  -3.9038  -3.9035  -3.9032  -3.8762  -3.8760
    -3.8742  -3.8739  -3.8676  -3.8674  -3.8672  -3.8640  -3.8638  -3.8634
    -3.8583  -3.8580  -3.8579  -3.8556  -3.8448  -3.8445  -3.8442  -3.8258
    -3.8241  -3.8135  -3.8130  -3.8125  -3.8039  -3.8036  -3.8034  -3.7780
    -3.7391  -3.7388  -3.7382  -3.7055  -3.7052  -3.7049  -3.6416  -3.6413
    -3.6410  -3.5790  -3.5785  -3.4987  -3.4980  -3.4813  -3.4809  -3.4805
    -3.3196  -3.3193  -3.3190  -3.3013  -3.3010  -3.3009  -3.1773  -3.1767
    -3.1093  -3.1090  -3.1085  -3.0263  -3.0258  -2.9232  -2.9231  -2.9226
     2.7054   2.9263   3.0613   3.0616   3.0619   3.1308   3.1309   3.1314
     3.1981   3.5438   3.5442   3.5448   3.7211   3.7214   3.7225   3.7482
     3.7783   3.7822   3.7827   3.7836   4.0283   4.0288   4.0296   4.1848
     4.1856   4.1858   4.3916   4.3917   4.3925   4.4660   4.4664   4.4666
     4.7583   4.7585   4.9906   4.9910   4.9915   5.2040   5.2046   5.2052
     5.3935   5.3937   5.3941   5.4825   5.4832   5.4836   5.5187   5.5515
     5.5517   5.5523   5.6248   5.6254   5.6255   5.6715   5.7281   5.7287
     5.8339   5.8343   5.8702   6.0499   6.1016   6.1020   6.1025   6.1963
     6.1969   6.1972   6.2561   6.2569   6.2576   6.2900   6.3460   6.3467
     6.3472   6.3736   6.3746   6.3749   6.6587   6.6593   6.7655   6.7661
     6.7667   6.8705   6.8710   6.8715   6.8972   6.8978   6.8986   6.9128
     6.9132   6.9136   6.9144   6.9427   6.9432   6.9437   7.0203   7.0209
     7.1743   7.1744   7.1751   7.2126   7.2130   7.2137   7.4013   7.4016
     7.4021   7.4803   7.4805   7.4809   7.5330   7.5334   7.5339   7.5689
     7.5692   7.6949   7.6955   7.6960   7.7064   7.7068   7.7596   7.7605
     7.7609   7.7628   7.7631   7.7633   7.8200   7.8204   7.8578   7.8580
     7.8581   7.9132   7.9133   7.9323   7.9327   7.9334   7.9604   7.9610
     7.9616   7.9769   7.9771   7.9880   7.9884   7.9888   7.9941   7.9944
     9.8395  11.0546  12.5528  12.5536  12.5542  12.6914  12.6924  12.6931
    12.9562  13.1265  13.1276  13.1281  13.3244  13.3384  13.3398  13.3408
    13.3824  13.3838  13.3848  13.7265

          k = 0.0283 0.0153-0.0620 ( 63474 PWs)   bands (ev):

    -9.0678  -9.0184  -9.0086  -8.8760  -8.8756  -8.7304  -8.7264  -8.7253
    -8.7068  -8.7061  -8.7023  -8.5845  -8.5836  -8.4949  -8.4917  -8.4573
    -8.4516  -8.4502  -8.4489  -8.4482  -8.4390  -8.4310  -8.4214  -8.3875
    -8.3863  -8.3715  -8.3704  -8.3681  -8.3641  -8.3598  -8.3589  -8.3364
    -8.3362  -8.3122  -8.3010  -8.2922  -8.2914  -8.2746  -8.2736  -8.2584
    -8.2457  -8.2443  -8.2429  -8.2404  -8.2384  -8.2362  -8.2307  -8.2302
    -4.3031  -4.3016  -4.2818  -4.2811  -4.2808  -4.2808  -4.2778  -4.2758
    -4.2605  -4.2550  -4.2472  -4.2435  -4.2432  -4.2424  -4.2420  -4.2346
    -4.2329  -4.2276  -4.2267  -4.2232  -4.2227  -4.2225  -4.2192  -4.2129
    -4.1938  -4.1935  -4.1926  -4.1792  -4.1789  -4.1777  -4.1679  -4.1659
    -4.1640  -4.1636  -4.1606  -4.1602  -4.1598  -4.1539  -4.1531  -4.1527
    -4.1482  -4.1434  -4.1352  -4.1350  -4.1320  -4.1223  -4.1220  -4.1197
    -4.1192  -4.1102  -4.1096  -4.1083  -4.1078  -4.1001  -4.0954  -4.0949
    -4.0854  -4.0846  -4.0845  -4.0843  -4.0805  -4.0740  -4.0684  -4.0620
    -4.0594  -4.0590  -4.0471  -4.0308  -4.0303  -4.0236  -4.0193  -4.0147
    -4.0084  -4.0009  -4.0002  -3.9982  -3.9979  -3.9920  -3.9913  -3.9863
    -3.9861  -3.9758  -3.9752  -3.9743  -3.9726  -3.9677  -3.9607  -3.9597
    -3.9566  -3.9535  -3.9527  -3.9522  -3.9487  -3.9428  -3.9425  -3.9389
    -3.9332  -3.9225  -3.9107  -3.9101  -3.8985  -3.8861  -3.8857  -3.8840
    -3.8826  -3.8820  -3.8770  -3.8709  -3.8703  -3.8685  -3.8656  -3.8653
    -3.8629  -3.8538  -3.8501  -3.8497  -3.8439  -3.8425  -3.8419  -3.8183
    -3.8181  -3.8152  -3.8108  -3.7803  -3.7795  -3.7772  -3.7749  -3.7746
    -3.7644  -3.7623  -3.7163  -3.7150  -3.7080  -3.6828  -3.6795  -3.6672
    -3.6664  -3.6303  -3.6298  -3.5236  -3.4981  -3.4977  -3.4432  -3.3763
    -3.3762  -3.3742  -3.3618  -3.3045  -3.2772  -3.1761  -3.1749  -3.1357
    -3.0769  -3.0757  -3.0415  -3.0411  -3.0204  -3.0147  -2.9665  -2.9594
     2.8905   2.8955   2.9244   3.1480   3.1485   3.2105   3.2873   3.2894
     3.3217   3.3221   3.4387   3.4395   3.4767   3.6938   3.7583   3.7591
     3.7808   3.7816   3.8032   3.8037   3.8094   3.8098   3.9015   3.9658
     4.1185   4.1198   4.2764   4.5348   4.5355   4.6882   4.7062   4.7526
     4.8358   4.8935   5.0229   5.0242   5.1375   5.1382   5.1554   5.1775
     5.2327   5.3395   5.3536   5.3543   5.3552   5.3557   5.4493   5.5411
     5.5694   5.5945   5.6024   5.6030   5.6401   5.6407   5.6714   5.6871
     5.8723   6.0044   6.1125   6.1151   6.1237   6.1245   6.1363   6.1378
     6.2678   6.3074   6.3080   6.3083   6.3092   6.3316   6.3481   6.3577
     6.3987   6.4861   6.5095   6.5099   6.5395   6.6156   6.6598   6.6620
     6.6634   6.6900   6.7192   6.7198   6.8088   6.8371   6.8853   6.8865
     6.9133   6.9138   6.9160   6.9854   6.9865   7.0062   7.0683   7.1388
     7.1733   7.1736   7.2588   7.2602   7.2633   7.3291   7.3460   7.3535
     7.4105   7.4128   7.4140   7.5392   7.5428   7.5435   7.5759   7.5799
     7.6110   7.6173   7.6686   7.6699   7.6761   7.6962   7.6985   7.7238
     7.7249   7.7882   7.7890   7.7914   7.8173   7.8233   7.8401   7.8473
     7.8478   7.8489   7.8493   7.9127   7.9315   7.9344   7.9357   7.9381
     7.9402   7.9414   7.9463   7.9507   7.9521   7.9524   7.9941   8.0461
    10.7251  11.0773  11.2566  12.1375  12.1378  12.8123  12.9572  12.9577
    13.2293  13.2665  13.2678  13.3642  13.3651  13.4062  13.4430  13.4436
    13.4691  13.5079  13.7166  13.7182

          k = 0.0283-0.0525 0.0000 ( 63475 PWs)   bands (ev):

    -9.0600  -9.0136  -9.0125  -8.8858  -8.8854  -8.7275  -8.7179  -8.7173
    -8.7162  -8.7161  -8.7033  -8.5733  -8.5728  -8.4959  -8.4949  -8.4586
    -8.4498  -8.4281  -8.4230  -8.4225  -8.4206  -8.4204  -8.4152  -8.4148
    -8.3980  -8.3975  -8.3880  -8.3877  -8.3767  -8.3713  -8.3705  -8.3643
    -8.3126  -8.3124  -8.3066  -8.3057  -8.3014  -8.2629  -8.2619  -8.2612
    -8.2551  -8.2549  -8.2302  -8.2300  -8.2298  -8.2287  -8.2227  -8.2211
    -4.2951  -4.2941  -4.2846  -4.2846  -4.2799  -4.2775  -4.2718  -4.2716
    -4.2705  -4.2588  -4.2559  -4.2556  -4.2445  -4.2441  -4.2341  -4.2339
    -4.2280  -4.2279  -4.2243  -4.2236  -4.2231  -4.2166  -4.2097  -4.2093
    -4.1953  -4.1948  -4.1945  -4.1858  -4.1855  -4.1764  -4.1758  -4.1755
    -4.1661  -4.1658  -4.1638  -4.1602  -4.1599  -4.1597  -4.1564  -4.1562
    -4.1544  -4.1542  -4.1355  -4.1354  -4.1337  -4.1331  -4.1195  -4.1193
    -4.1145  -4.1141  -4.0990  -4.0988  -4.0974  -4.0964  -4.0959  -4.0943
    -4.0939  -4.0868  -4.0698  -4.0696  -4.0645  -4.0635  -4.0617  -4.0546
    -4.0474  -4.0314  -4.0307  -4.0304  -4.0300  -4.0229  -4.0224  -4.0146
    -4.0122  -4.0087  -4.0086  -4.0068  -4.0065  -4.0057  -4.0030  -4.0027
    -3.9884  -3.9877  -3.9871  -3.9842  -3.9776  -3.9774  -3.9678  -3.9678
    -3.9661  -3.9569  -3.9564  -3.9551  -3.9435  -3.9431  -3.9419  -3.9417
    -3.9284  -3.9282  -3.9245  -3.9240  -3.9221  -3.8910  -3.8908  -3.8861
    -3.8843  -3.8841  -3.8741  -3.8739  -3.8598  -3.8590  -3.8561  -3.8555
    -3.8507  -3.8504  -3.8416  -3.8384  -3.8375  -3.8370  -3.8337  -3.8335
    -3.7887  -3.7849  -3.7848  -3.7807  -3.7803  -3.7788  -3.7619  -3.7617
    -3.7460  -3.7455  -3.7197  -3.7195  -3.6914  -3.6833  -3.6829  -3.6633
    -3.6259  -3.6253  -3.6075  -3.6073  -3.5839  -3.4930  -3.4558  -3.4551
    -3.3646  -3.3631  -3.2802  -3.2538  -3.2538  -3.1854  -3.1850  -3.1518
    -3.1257  -3.1034  -3.0691  -3.0687  -2.9774  -2.9765  -2.9613  -2.9610
     2.9160   3.0048   3.0054   3.0308   3.1856   3.1864   3.2264   3.2268
     3.4624   3.4628   3.4953   3.5495   3.5503   3.5533   3.5541   3.6122
     3.7051   3.7061   3.7283   3.7290   3.7697   3.8878   3.9009   3.9017
     3.9291   4.2379   4.2392   4.6821   4.7769   4.7778   4.8904   4.8906
     4.9939   4.9944   5.0374   5.0489   5.0495   5.1479   5.1485   5.1751
     5.1757   5.1903   5.2677   5.3489   5.3492   5.3635   5.3640   5.3895
     5.5067   5.6317   5.6322   5.6788   5.6798   5.7566   5.7569   5.7671
     5.7674   5.8073   5.9022   5.9026   5.9447   5.9452   6.1446   6.1617
     6.1758   6.1768   6.2335   6.3352   6.3358   6.4186   6.4190   6.4771
     6.5140   6.5145   6.5150   6.5179   6.5183   6.5515   6.7050   6.7060
     6.7113   6.8655   6.8669   6.8805   6.8814   6.8855   6.8860   6.9155
     6.9159   7.0384   7.0419   7.0483   7.0490   7.1025   7.1030   7.1480
     7.1886   7.2025   7.2030   7.2142   7.2151   7.3475   7.3483   7.3531
     7.3534   7.3588   7.3591   7.3699   7.4098   7.4582   7.4592   7.5676
     7.5750   7.5759   7.6013   7.6017   7.6093   7.6519   7.7015   7.7016
     7.7144   7.7158   7.8183   7.8193   7.8244   7.8247   7.8268   7.8689
     7.8690   7.8781   7.8792   7.8961   7.8963   7.9205   7.9403   7.9419
     7.9422   7.9533   7.9554   7.9558   7.9991   8.0335   8.0340   8.0894
    10.8385  11.1913  11.1931  11.9934  11.9938  12.8854  12.8865  12.9121
    13.0029  13.0040  13.2680  13.2711  13.5428  13.5592  13.5605  13.6364
    13.6385  13.6714  13.6740  13.8469

          k = 0.0283-0.0525 0.0363 ( 63474 PWs)   bands (ev):

    -9.0679  -9.0184  -9.0086  -8.8760  -8.8756  -8.7305  -8.7258  -8.7256
    -8.7066  -8.7063  -8.7023  -8.5842  -8.5841  -8.4947  -8.4916  -8.4577
    -8.4509  -8.4506  -8.4491  -8.4481  -8.4392  -8.4310  -8.4213  -8.3869
    -8.3867  -8.3715  -8.3703  -8.3682  -8.3638  -8.3595  -8.3594  -8.3367
    -8.3363  -8.3122  -8.3007  -8.2918  -8.2913  -8.2746  -8.2742  -8.2585
    -8.2453  -8.2450  -8.2427  -8.2400  -8.2388  -8.2360  -8.2305  -8.2302
    -4.3030  -4.3017  -4.2816  -4.2814  -4.2809  -4.2807  -4.2779  -4.2757
    -4.2605  -4.2549  -4.2471  -4.2435  -4.2432  -4.2422  -4.2421  -4.2346
    -4.2329  -4.2273  -4.2272  -4.2230  -4.2229  -4.2226  -4.2192  -4.2130
    -4.1940  -4.1934  -4.1926  -4.1791  -4.1789  -4.1777  -4.1679  -4.1659
    -4.1639  -4.1638  -4.1604  -4.1601  -4.1599  -4.1536  -4.1534  -4.1527
    -4.1482  -4.1434  -4.1352  -4.1350  -4.1320  -4.1223  -4.1220  -4.1197
    -4.1193  -4.1103  -4.1097  -4.1081  -4.1078  -4.1001  -4.0954  -4.0949
    -4.0854  -4.0848  -4.0845  -4.0843  -4.0803  -4.0740  -4.0684  -4.0620
    -4.0596  -4.0588  -4.0470  -4.0307  -4.0305  -4.0236  -4.0194  -4.0147
    -4.0084  -4.0007  -4.0005  -3.9981  -3.9980  -3.9918  -3.9915  -3.9864
    -3.9860  -3.9758  -3.9748  -3.9747  -3.9726  -3.9675  -3.9606  -3.9597
    -3.9567  -3.9534  -3.9527  -3.9523  -3.9486  -3.9428  -3.9426  -3.9390
    -3.9332  -3.9225  -3.9107  -3.9102  -3.8985  -3.8862  -3.8856  -3.8841
    -3.8824  -3.8823  -3.8771  -3.8708  -3.8705  -3.8684  -3.8656  -3.8653
    -3.8628  -3.8538  -3.8500  -3.8499  -3.8439  -3.8423  -3.8421  -3.8183
    -3.8181  -3.8152  -3.8108  -3.7801  -3.7799  -3.7772  -3.7748  -3.7746
    -3.7644  -3.7623  -3.7162  -3.7152  -3.7079  -3.6830  -3.6792  -3.6672
    -3.6669  -3.6302  -3.6300  -3.5237  -3.4978  -3.4975  -3.4429  -3.3763
    -3.3760  -3.3744  -3.3617  -3.3045  -3.2774  -3.1756  -3.1754  -3.1358
    -3.0765  -3.0762  -3.0413  -3.0411  -3.0206  -3.0145  -2.9662  -2.9597
     2.8907   2.8954   2.9243   3.1480   3.1483   3.2109   3.2870   3.2895
     3.3217   3.3223   3.4386   3.4390   3.4771   3.6939   3.7582   3.7585
     3.7806   3.7816   3.8030   3.8039   3.8097   3.8112   3.9014   3.9653
     4.1184   4.1189   4.2774   4.5347   4.5356   4.6884   4.7063   4.7520
     4.8356   4.8938   5.0233   5.0238   5.1379   5.1384   5.1547   5.1775
     5.2325   5.3393   5.3540   5.3543   5.3552   5.3559   5.4490   5.5407
     5.5696   5.5946   5.6023   5.6027   5.6407   5.6412   5.6712   5.6872
     5.8732   6.0033   6.1126   6.1150   6.1230   6.1239   6.1372   6.1377
     6.2684   6.3070   6.3079   6.3086   6.3092   6.3314   6.3477   6.3581
     6.3985   6.4864   6.5091   6.5098   6.5395   6.6156   6.6604   6.6624
     6.6630   6.6906   6.7189   6.7196   6.8085   6.8366   6.8858   6.8862
     6.9135   6.9143   6.9157   6.9856   6.9863   7.0064   7.0686   7.1387
     7.1732   7.1736   7.2595   7.2598   7.2635   7.3286   7.3461   7.3536
     7.4098   7.4130   7.4135   7.5393   7.5429   7.5433   7.5760   7.5803
     7.6109   7.6172   7.6692   7.6695   7.6760   7.6966   7.6989   7.7243
     7.7249   7.7880   7.7888   7.7914   7.8174   7.8229   7.8397   7.8470
     7.8478   7.8487   7.8496   7.9127   7.9315   7.9350   7.9352   7.9381
     7.9407   7.9409   7.9464   7.9506   7.9519   7.9523   7.9942   8.0461
    10.7250  11.0775  11.2567  12.1372  12.1379  12.8117  12.9570  12.9579
    13.2300  13.2667  13.2677  13.3635  13.3650  13.4058  13.4424  13.4441
    13.4693  13.5081  13.7180  13.7184

          k = 0.0283-0.0525-0.0363 ( 63474 PWs)   bands (ev):

    -9.0678  -9.0184  -9.0086  -8.8759  -8.8758  -8.7305  -8.7259  -8.7257
    -8.7066  -8.7063  -8.7023  -8.5842  -8.5839  -8.4949  -8.4918  -8.4574
    -8.4510  -8.4507  -8.4487  -8.4484  -8.4389  -8.4309  -8.4213  -8.3869
    -8.3868  -8.3717  -8.3702  -8.3681  -8.3639  -8.3595  -8.3594  -8.3364
    -8.3363  -8.3123  -8.3008  -8.2919  -8.2915  -8.2743  -8.2742  -8.2585
    -8.2451  -8.2450  -8.2427  -8.2400  -8.2388  -8.2361  -8.2305  -8.2302
    -4.3030  -4.3017  -4.2815  -4.2814  -4.2809  -4.2808  -4.2779  -4.2758
    -4.2605  -4.2550  -4.2472  -4.2435  -4.2431  -4.2422  -4.2422  -4.2346
    -4.2329  -4.2273  -4.2272  -4.2230  -4.2229  -4.2224  -4.2193  -4.2129
    -4.1938  -4.1935  -4.1926  -4.1791  -4.1789  -4.1777  -4.1679  -4.1659
    -4.1639  -4.1637  -4.1605  -4.1602  -4.1600  -4.1537  -4.1533  -4.1526
    -4.1481  -4.1433  -4.1353  -4.1350  -4.1320  -4.1223  -4.1220  -4.1197
    -4.1193  -4.1102  -4.1098  -4.1081  -4.1079  -4.1001  -4.0953  -4.0949
    -4.0855  -4.0847  -4.0845  -4.0842  -4.0804  -4.0739  -4.0683  -4.0620
    -4.0594  -4.0591  -4.0471  -4.0307  -4.0305  -4.0235  -4.0193  -4.0147
    -4.0084  -4.0007  -4.0004  -3.9981  -3.9980  -3.9918  -3.9915  -3.9864
    -3.9860  -3.9758  -3.9750  -3.9746  -3.9726  -3.9676  -3.9607  -3.9597
    -3.9566  -3.9535  -3.9527  -3.9522  -3.9486  -3.9428  -3.9425  -3.9389
    -3.9332  -3.9224  -3.9107  -3.9103  -3.8985  -3.8862  -3.8856  -3.8840
    -3.8825  -3.8822  -3.8770  -3.8707  -3.8704  -3.8685  -3.8657  -3.8653
    -3.8628  -3.8538  -3.8500  -3.8499  -3.8439  -3.8423  -3.8421  -3.8183
    -3.8180  -3.8151  -3.8108  -3.7801  -3.7799  -3.7771  -3.7749  -3.7747
    -3.7644  -3.7623  -3.7162  -3.7151  -3.7079  -3.6830  -3.6793  -3.6671
    -3.6668  -3.6302  -3.6299  -3.5236  -3.4980  -3.4977  -3.4430  -3.3767
    -3.3760  -3.3742  -3.3619  -3.3046  -3.2773  -3.1756  -3.1754  -3.1355
    -3.0764  -3.0762  -3.0414  -3.0410  -3.0206  -3.0148  -2.9663  -2.9596
     2.8905   2.8957   2.9246   3.1479   3.1483   3.2105   3.2871   3.2898
     3.3217   3.3220   3.4386   3.4395   3.4768   3.6934   3.7581   3.7586
     3.7807   3.7816   3.8034   3.8039   3.8097   3.8102   3.9014   3.9657
     4.1187   4.1192   4.2767   4.5353   4.5357   4.6881   4.7062   4.7523
     4.8358   4.8934   5.0235   5.0240   5.1378   5.1382   5.1551   5.1777
     5.2325   5.3394   5.3543   5.3544   5.3552   5.3556   5.4495   5.5406
     5.5693   5.5946   5.6024   5.6026   5.6405   5.6408   5.6714   5.6873
     5.8728   6.0036   6.1125   6.1150   6.1237   6.1243   6.1364   6.1373
     6.2681   6.3071   6.3079   6.3085   6.3096   6.3317   6.3483   6.3577
     6.3988   6.4864   6.5091   6.5096   6.5395   6.6154   6.6601   6.6620
     6.6627   6.6898   6.7192   6.7195   6.8086   6.8367   6.8859   6.8861
     6.9134   6.9137   6.9163   6.9858   6.9866   7.0065   7.0687   7.1386
     7.1732   7.1739   7.2595   7.2598   7.2634   7.3286   7.3463   7.3535
     7.4102   7.4133   7.4136   7.5391   7.5430   7.5433   7.5760   7.5799
     7.6110   7.6174   7.6690   7.6693   7.6761   7.6965   7.6987   7.7243
     7.7244   7.7882   7.7886   7.7915   7.8174   7.8229   7.8400   7.8473
     7.8476   7.8488   7.8493   7.9128   7.9315   7.9350   7.9352   7.9382
     7.9408   7.9410   7.9462   7.9508   7.9520   7.9522   7.9942   8.0460
    10.7251  11.0774  11.2567  12.1370  12.1379  12.8122  12.9564  12.9580
    13.2296  13.2665  13.2678  13.3640  13.3653  13.4060  13.4425  13.4442
    13.4690  13.5079  13.7171  13.7187

 ------ SPIN DOWN ----------


          k = 0.0000 0.0000 0.0000 ( 63431 PWs)   bands (ev):

    -9.2349  -8.8501  -8.8499  -8.8495  -8.7300  -8.7296  -8.7291  -8.7289
    -8.7287  -8.7286  -8.7283  -8.7279  -8.6134  -8.6131  -8.6129  -8.4664
    -8.4659  -8.4653  -8.4470  -8.4467  -8.3629  -8.3626  -8.3624  -8.3622
    -8.3620  -8.3618  -8.3517  -8.3516  -8.3515  -8.3514  -8.3338  -8.3337
    -8.3336  -8.3289  -8.3287  -8.3286  -8.3228  -8.3225  -8.3221  -8.3220
    -8.3213  -8.3211  -8.2514  -8.2513  -8.1623  -8.1615  -8.1614  -8.1611
    -4.3191  -4.3190  -4.2876  -4.2873  -4.2871  -4.2704  -4.2700  -4.2699
    -4.2697  -4.2697  -4.2692  -4.2478  -4.2477  -4.2476  -4.2333  -4.2328
    -4.2206  -4.2205  -4.2204  -4.2185  -4.2183  -4.2182  -4.2181  -4.1960
    -4.1897  -4.1896  -4.1894  -4.1851  -4.1851  -4.1807  -4.1806  -4.1804
    -4.1604  -4.1602  -4.1599  -4.1598  -4.1595  -4.1594  -4.1426  -4.1423
    -4.1422  -4.1291  -4.1290  -4.1289  -4.1263  -4.1263  -4.1262  -4.1189
    -4.1187  -4.1183  -4.1181  -4.1180  -4.1177  -4.0987  -4.0984  -4.0980
    -4.0979  -4.0978  -4.0975  -4.0801  -4.0799  -4.0797  -4.0738  -4.0738
    -4.0733  -4.0732  -4.0675  -4.0543  -4.0542  -4.0197  -4.0193  -4.0184
    -4.0183  -4.0180  -4.0179  -4.0177  -4.0173  -3.9790  -3.9790  -3.9694
    -3.9693  -3.9691  -3.9683  -3.9681  -3.9680  -3.9676  -3.9675  -3.9673
    -3.9537  -3.9535  -3.9532  -3.9366  -3.9365  -3.9362  -3.9320  -3.9318
    -3.9316  -3.8920  -3.8920  -3.8915  -3.8914  -3.8792  -3.8792  -3.8776
    -3.8696  -3.8692  -3.8691  -3.8690  -3.8688  -3.8685  -3.8644  -3.8630
    -3.8629  -3.8624  -3.8623  -3.8620  -3.8617  -3.8505  -3.8503  -3.8503
    -3.8351  -3.8348  -3.8347  -3.7969  -3.7965  -3.7963  -3.7870  -3.7865
    -3.7354  -3.7352  -3.7347  -3.6927  -3.6924  -3.6919  -3.6037  -3.6033
    -3.4806  -3.4801  -3.4799  -3.4796  -3.4793  -3.4790  -3.3561  -3.3558
    -3.3554  -3.3549  -3.3212  -3.3210  -3.3208  -3.3087  -3.3083  -3.3079
    -3.3078  -3.3071  -3.3070  -2.9668  -2.9664  -2.8517  -2.8515  -2.8511
     2.6321   3.0019   3.1884   3.1886   3.1889   3.1890   3.1893   3.1901
     3.2077   3.2077   3.2082   3.2852   3.2855   3.7036   3.7038   3.7051
     3.9303   3.9307   3.9310   3.9312   3.9315   3.9323   4.2661   4.2664
     4.4409   4.4413   4.4416   4.4485   4.4491   4.4504   4.5725   4.5734
     4.8948   4.8957   4.8959   4.9671   5.2023   5.3145   5.3146   5.3151
     5.3154   5.3608   5.3611   5.3613   5.3800   5.3805   5.3811   5.4434
     5.4441   5.4446   5.4449   5.4453   5.4460   5.5920   5.5926   5.8003
     5.9224   5.9227   5.9231   5.9233   5.9238   5.9241   5.9316   5.9318
     5.9321   6.0344   6.0345   6.0346   6.2279   6.2290   6.2293   6.2301
     6.2304   6.6522   6.6527   6.6531   6.6533   6.6536   6.6546   7.0617
     7.0620   7.0622   7.0625   7.0650   7.0657   7.0667   7.1496   7.1500
     7.1501   7.1696   7.1698   7.1703   7.1707   7.1708   7.1714   7.1721
     7.1729   7.1733   7.2601   7.2601   7.2611   7.2611   7.2617   7.2624
     7.3038   7.3040   7.3044   7.3664   7.3667   7.3712   7.3713   7.3720
     7.3721   7.3722   7.3729   7.5622   7.5627   7.5630   7.6611   7.7389
     7.7391   7.7392   7.7469   7.7473   7.8524   7.8529   7.8962   7.8964
     7.8966   7.8967   7.9875   7.9878   7.9880   7.9964   7.9966   8.0255
     8.0260   8.0262   8.0265   8.0268   8.0274   8.0398   8.0401   8.0404
     9.0251  12.1630  12.1636  12.6856  12.6872  12.6878  12.6881  12.6889
    12.6897  12.8663  12.8676  12.8689  13.2427  13.2438  13.2445  13.4059
    13.6030  13.6059  13.6063  13.6067

          k = 0.0000 0.0000 0.0363 ( 63479 PWs)   bands (ev):

    -9.1660  -8.9792  -8.8431  -8.8425  -8.8421  -8.8074  -8.8060  -8.8055
    -8.6436  -8.6432  -8.6430  -8.6131  -8.6115  -8.6111  -8.4862  -8.4524
    -8.4516  -8.4469  -8.4381  -8.4326  -8.4138  -8.4126  -8.4069  -8.4035
    -8.3909  -8.3873  -8.3687  -8.3679  -8.3604  -8.3532  -8.3526  -8.3265
    -8.3255  -8.3250  -8.3247  -8.3233  -8.3231  -8.3112  -8.3058  -8.2689
[...]
    -4.0939  -4.0869  -4.0699  -4.0696  -4.0645  -4.0636  -4.0617  -4.0546
    -4.0475  -4.0314  -4.0308  -4.0305  -4.0300  -4.0229  -4.0224  -4.0146
    -4.0123  -4.0087  -4.0086  -4.0068  -4.0066  -4.0058  -4.0030  -4.0027
    -3.9884  -3.9877  -3.9871  -3.9842  -3.9776  -3.9774  -3.9679  -3.9678
    -3.9661  -3.9570  -3.9564  -3.9552  -3.9435  -3.9431  -3.9420  -3.9418
    -3.9285  -3.9282  -3.9245  -3.9240  -3.9221  -3.8911  -3.8908  -3.8861
    -3.8843  -3.8841  -3.8742  -3.8740  -3.8598  -3.8590  -3.8561  -3.8556
    -3.8507  -3.8504  -3.8417  -3.8384  -3.8375  -3.8371  -3.8337  -3.8335
    -3.7887  -3.7849  -3.7848  -3.7807  -3.7803  -3.7788  -3.7619  -3.7617
    -3.7461  -3.7455  -3.7198  -3.7195  -3.6914  -3.6833  -3.6829  -3.6633
    -3.6259  -3.6253  -3.6075  -3.6073  -3.5839  -3.4930  -3.4558  -3.4551
    -3.3646  -3.3631  -3.2802  -3.2538  -3.2538  -3.1855  -3.1850  -3.1518
    -3.1257  -3.1034  -3.0691  -3.0687  -2.9774  -2.9765  -2.9613  -2.9610
     2.9160   3.0048   3.0054   3.0308   3.1855   3.1864   3.2264   3.2268
     3.4623   3.4627   3.4953   3.5495   3.5503   3.5532   3.5541   3.6122
     3.7051   3.7061   3.7283   3.7290   3.7697   3.8878   3.9008   3.9017
     3.9291   4.2379   4.2392   4.6821   4.7769   4.7778   4.8904   4.8906
     4.9939   4.9944   5.0374   5.0489   5.0495   5.1479   5.1485   5.1751
     5.1757   5.1903   5.2677   5.3489   5.3493   5.3635   5.3640   5.3895
     5.5067   5.6317   5.6322   5.6788   5.6798   5.7566   5.7569   5.7671
     5.7674   5.8073   5.9022   5.9026   5.9447   5.9452   6.1446   6.1618
     6.1758   6.1768   6.2335   6.3352   6.3358   6.4186   6.4190   6.4772
     6.5140   6.5146   6.5151   6.5179   6.5184   6.5515   6.7050   6.7060
     6.7114   6.8655   6.8669   6.8805   6.8814   6.8855   6.8860   6.9155
     6.9159   7.0384   7.0420   7.0483   7.0490   7.1025   7.1030   7.1480
     7.1886   7.2025   7.2030   7.2142   7.2151   7.3475   7.3483   7.3531
     7.3534   7.3588   7.3591   7.3699   7.4098   7.4582   7.4592   7.5676
     7.5750   7.5760   7.6013   7.6017   7.6093   7.6519   7.7015   7.7016
     7.7145   7.7159   7.8183   7.8193   7.8245   7.8247   7.8268   7.8689
     7.8691   7.8781   7.8792   7.8961   7.8963   7.9205   7.9403   7.9420
     7.9422   7.9533   7.9554   7.9558   7.9992   8.0336   8.0340   8.0895
    10.8384  11.1913  11.1931  11.9933  11.9937  12.8853  12.8865  12.9121
    13.0028  13.0040  13.2679  13.2711  13.5428  13.5591  13.5604  13.6364
    13.6385  13.6713  13.6739  13.8478

          k = 0.0283-0.0525 0.0363 ( 63474 PWs)   bands (ev):

    -9.0678  -9.0183  -9.0086  -8.8760  -8.8756  -8.7305  -8.7258  -8.7256
    -8.7066  -8.7063  -8.7023  -8.5841  -8.5840  -8.4947  -8.4916  -8.4576
    -8.4509  -8.4506  -8.4491  -8.4481  -8.4392  -8.4310  -8.4213  -8.3868
    -8.3866  -8.3714  -8.3703  -8.3682  -8.3638  -8.3595  -8.3594  -8.3367
    -8.3362  -8.3121  -8.3007  -8.2918  -8.2913  -8.2746  -8.2742  -8.2585
    -8.2453  -8.2449  -8.2427  -8.2400  -8.2388  -8.2360  -8.2305  -8.2302
    -4.3030  -4.3017  -4.2816  -4.2814  -4.2809  -4.2807  -4.2779  -4.2757
    -4.2605  -4.2549  -4.2471  -4.2435  -4.2433  -4.2422  -4.2421  -4.2346
    -4.2329  -4.2274  -4.2272  -4.2230  -4.2229  -4.2226  -4.2192  -4.2130
    -4.1940  -4.1935  -4.1927  -4.1791  -4.1789  -4.1777  -4.1680  -4.1659
    -4.1639  -4.1638  -4.1605  -4.1601  -4.1600  -4.1536  -4.1534  -4.1527
    -4.1482  -4.1434  -4.1352  -4.1350  -4.1320  -4.1223  -4.1220  -4.1197
    -4.1193  -4.1103  -4.1098  -4.1081  -4.1078  -4.1001  -4.0954  -4.0949
    -4.0855  -4.0848  -4.0845  -4.0843  -4.0803  -4.0740  -4.0684  -4.0620
    -4.0596  -4.0588  -4.0471  -4.0307  -4.0305  -4.0236  -4.0194  -4.0147
    -4.0084  -4.0007  -4.0005  -3.9981  -3.9980  -3.9918  -3.9915  -3.9864
    -3.9860  -3.9758  -3.9748  -3.9747  -3.9727  -3.9675  -3.9607  -3.9597
    -3.9567  -3.9534  -3.9527  -3.9523  -3.9486  -3.9428  -3.9426  -3.9390
    -3.9333  -3.9225  -3.9108  -3.9102  -3.8985  -3.8862  -3.8856  -3.8841
    -3.8825  -3.8823  -3.8771  -3.8708  -3.8705  -3.8684  -3.8656  -3.8653
    -3.8628  -3.8538  -3.8500  -3.8499  -3.8439  -3.8423  -3.8421  -3.8183
    -3.8181  -3.8152  -3.8108  -3.7801  -3.7799  -3.7772  -3.7748  -3.7746
    -3.7644  -3.7623  -3.7162  -3.7152  -3.7079  -3.6831  -3.6792  -3.6672
    -3.6669  -3.6302  -3.6300  -3.5237  -3.4978  -3.4975  -3.4429  -3.3763
    -3.3760  -3.3744  -3.3617  -3.3046  -3.2775  -3.1756  -3.1754  -3.1358
    -3.0765  -3.0762  -3.0413  -3.0411  -3.0206  -3.0145  -2.9662  -2.9597
     2.8907   2.8953   2.9242   3.1480   3.1483   3.2109   3.2869   3.2895
     3.3217   3.3222   3.4386   3.4389   3.4770   3.6938   3.7582   3.7585
     3.7805   3.7816   3.8030   3.8039   3.8097   3.8112   3.9014   3.9652
     4.1184   4.1189   4.2774   4.5347   4.5356   4.6884   4.7063   4.7520
     4.8356   4.8938   5.0233   5.0238   5.1379   5.1384   5.1547   5.1775
     5.2325   5.3393   5.3540   5.3544   5.3552   5.3559   5.4490   5.5407
     5.5696   5.5946   5.6023   5.6027   5.6407   5.6412   5.6712   5.6873
     5.8731   6.0033   6.1126   6.1150   6.1231   6.1240   6.1372   6.1377
     6.2684   6.3070   6.3079   6.3086   6.3092   6.3314   6.3477   6.3581
     6.3985   6.4864   6.5091   6.5098   6.5395   6.6156   6.6604   6.6625
     6.6630   6.6906   6.7189   6.7196   6.8085   6.8366   6.8858   6.8862
     6.9136   6.9144   6.9157   6.9856   6.9864   7.0064   7.0686   7.1388
     7.1732   7.1737   7.2595   7.2598   7.2635   7.3286   7.3461   7.3536
     7.4098   7.4130   7.4135   7.5393   7.5429   7.5433   7.5760   7.5804
     7.6110   7.6172   7.6692   7.6696   7.6761   7.6966   7.6989   7.7243
     7.7249   7.7881   7.7889   7.7914   7.8174   7.8229   7.8397   7.8470
     7.8478   7.8487   7.8496   7.9127   7.9316   7.9351   7.9352   7.9381
     7.9407   7.9410   7.9464   7.9506   7.9519   7.9524   7.9942   8.0461
    10.7249  11.0775  11.2567  12.1371  12.1379  12.8117  12.9569  12.9578
    13.2299  13.2666  13.2676  13.3634  13.3649  13.4057  13.4424  13.4440
    13.4692  13.5080  13.7179  13.7184

          k = 0.0283-0.0525-0.0363 ( 63474 PWs)   bands (ev):

    -9.0678  -9.0184  -9.0086  -8.8759  -8.8758  -8.7305  -8.7258  -8.7256
    -8.7065  -8.7063  -8.7023  -8.5842  -8.5839  -8.4948  -8.4917  -8.4574
    -8.4510  -8.4507  -8.4487  -8.4484  -8.4389  -8.4309  -8.4213  -8.3868
    -8.3868  -8.3716  -8.3702  -8.3680  -8.3639  -8.3595  -8.3593  -8.3364
    -8.3363  -8.3123  -8.3008  -8.2918  -8.2915  -8.2743  -8.2742  -8.2584
    -8.2451  -8.2450  -8.2427  -8.2400  -8.2388  -8.2361  -8.2305  -8.2302
    -4.3030  -4.3017  -4.2815  -4.2814  -4.2809  -4.2808  -4.2779  -4.2758
    -4.2605  -4.2550  -4.2472  -4.2435  -4.2432  -4.2422  -4.2422  -4.2346
    -4.2329  -4.2273  -4.2272  -4.2230  -4.2229  -4.2224  -4.2193  -4.2130
    -4.1939  -4.1936  -4.1926  -4.1792  -4.1789  -4.1777  -4.1679  -4.1659
    -4.1639  -4.1638  -4.1605  -4.1602  -4.1601  -4.1537  -4.1533  -4.1526
    -4.1481  -4.1433  -4.1353  -4.1350  -4.1320  -4.1223  -4.1220  -4.1197
    -4.1193  -4.1102  -4.1098  -4.1081  -4.1079  -4.1001  -4.0953  -4.0949
    -4.0855  -4.0848  -4.0845  -4.0842  -4.0804  -4.0740  -4.0683  -4.0620
    -4.0594  -4.0591  -4.0471  -4.0307  -4.0305  -4.0236  -4.0193  -4.0148
    -4.0085  -4.0007  -4.0005  -3.9981  -3.9980  -3.9918  -3.9915  -3.9865
    -3.9860  -3.9758  -3.9750  -3.9746  -3.9726  -3.9676  -3.9607  -3.9597
    -3.9566  -3.9535  -3.9527  -3.9522  -3.9486  -3.9428  -3.9426  -3.9389
    -3.9333  -3.9225  -3.9107  -3.9103  -3.8985  -3.8862  -3.8856  -3.8840
    -3.8825  -3.8822  -3.8770  -3.8707  -3.8704  -3.8685  -3.8657  -3.8653
    -3.8628  -3.8538  -3.8500  -3.8499  -3.8439  -3.8423  -3.8421  -3.8184
    -3.8180  -3.8151  -3.8108  -3.7801  -3.7799  -3.7771  -3.7749  -3.7747
    -3.7644  -3.7623  -3.7162  -3.7151  -3.7079  -3.6830  -3.6794  -3.6671
    -3.6668  -3.6302  -3.6299  -3.5236  -3.4980  -3.4977  -3.4430  -3.3767
    -3.3760  -3.3742  -3.3619  -3.3046  -3.2773  -3.1756  -3.1754  -3.1355
    -3.0764  -3.0762  -3.0414  -3.0410  -3.0206  -3.0148  -2.9663  -2.9596
     2.8905   2.8956   2.9245   3.1479   3.1482   3.2105   3.2871   3.2897
     3.3216   3.3220   3.4386   3.4395   3.4768   3.6934   3.7581   3.7586
     3.7807   3.7816   3.8033   3.8039   3.8097   3.8102   3.9014   3.9656
     4.1187   4.1192   4.2766   4.5353   4.5357   4.6881   4.7062   4.7523
     4.8359   4.8934   5.0235   5.0240   5.1378   5.1382   5.1551   5.1777
     5.2325   5.3394   5.3543   5.3544   5.3552   5.3556   5.4495   5.5406
     5.5693   5.5946   5.6024   5.6026   5.6405   5.6408   5.6714   5.6873
     5.8728   6.0036   6.1126   6.1150   6.1237   6.1243   6.1364   6.1373
     6.2681   6.3071   6.3079   6.3085   6.3096   6.3317   6.3483   6.3577
     6.3988   6.4865   6.5091   6.5096   6.5395   6.6154   6.6601   6.6620
     6.6627   6.6898   6.7192   6.7195   6.8086   6.8367   6.8859   6.8862
     6.9134   6.9137   6.9163   6.9859   6.9866   7.0066   7.0688   7.1386
     7.1732   7.1739   7.2595   7.2598   7.2634   7.3286   7.3463   7.3535
     7.4102   7.4133   7.4136   7.5392   7.5430   7.5434   7.5761   7.5799
     7.6110   7.6175   7.6690   7.6694   7.6761   7.6965   7.6988   7.7243
     7.7244   7.7882   7.7886   7.7915   7.8175   7.8229   7.8401   7.8473
     7.8476   7.8488   7.8494   7.9129   7.9315   7.9350   7.9352   7.9382
     7.9408   7.9411   7.9463   7.9508   7.9521   7.9523   7.9943   8.0461
    10.7250  11.0774  11.2567  12.1369  12.1379  12.8121  12.9563  12.9579
    13.2295  13.2664  13.2678  13.3639  13.3653  13.4060  13.4424  13.4442
    13.4689  13.5078  13.7170  13.7186

     the Fermi energy is     8.5455 ev

!    total energy              =   -6637.03745184 Ry
     Harris-Foulkes estimate   =   -6637.03745183 Ry
     estimated scf accuracy    <          4.7E-09 Ry

     The total energy is the sum of the following terms:

     one-electron contribution =   -1622.06364924 Ry
     hartree contribution      =    1436.05866136 Ry
     xc contribution           =   -1885.86801546 Ry
     ewald contribution        =   -4108.20355750 Ry
     one-center paw contrib.   =    -456.96089100 Ry
     smearing contrib. (-TS)   =      -0.00000000 Ry

     total magnetization       =     0.00 Bohr mag/cell
     absolute magnetization    =     0.00 Bohr mag/cell

     convergence has been achieved in  14 iterations

     Forces acting on atoms (cartesian axes, Ry/au):

     atom    1 type  1   force =     0.00013712    0.00005583    0.00004896
     atom    2 type  1   force =     0.00009095    0.00003283    0.00005629
     atom    3 type  1   force =     0.00001863    0.00001313    0.00001083
     atom    4 type  1   force =     0.00014483    0.00008005    0.00004005
     atom    5 type  1   force =    -0.00035939   -0.00050813    0.00011634
     atom    6 type  1   force =     0.00021367   -0.00001102    0.00006113
     atom    7 type  1   force =     0.00020264    0.00028407    0.00013538
     atom    8 type  1   force =     0.00004639    0.00005570    0.00000745
     atom    9 type  1   force =    -0.00001226   -0.00006335    0.00016630
     atom   10 type  1   force =    -0.00013055   -0.00010006   -0.00005010
     atom   11 type  1   force =    -0.00012595    0.00002692   -0.00020576
     atom   12 type  1   force =    -0.00008991   -0.00003446   -0.00002528
     atom   13 type  1   force =    -0.00041336   -0.00038769   -0.00008107
     atom   14 type  1   force =     0.00004339   -0.00006626   -0.00014824
     atom   15 type  1   force =    -0.00006648    0.00002762   -0.00006207
     atom   16 type  1   force =    -0.00013176   -0.00001701   -0.00003800
     atom   17 type  1   force =    -0.00054909   -0.00019989    0.00052818
     atom   18 type  1   force =     0.00020553    0.00003985    0.00014314
     atom   19 type  1   force =     0.00017433    0.00024666    0.00006403
     atom   20 type  1   force =     0.00005889    0.00013243    0.00003257
     atom   21 type  1   force =     0.00014521    0.00005679    0.00007195
     atom   22 type  1   force =     0.00002334   -0.00007780    0.00009535
     atom   23 type  1   force =     0.00002594    0.00010602   -0.00009650
     atom   24 type  1   force =     0.00014718    0.00010134    0.00002215
     atom   25 type  1   force =     0.00007167   -0.00006279   -0.00004604
     atom   26 type  1   force =    -0.00017886   -0.00048886    0.00002720
     atom   27 type  1   force =    -0.00026504    0.00007306    0.00000710
     atom   28 type  1   force =    -0.00004444    0.00000152   -0.00002651
     atom   29 type  1   force =    -0.00011426   -0.00011184   -0.00008795
     atom   30 type  1   force =    -0.00006933   -0.00000276    0.00006260
     atom   31 type  1   force =    -0.00009835   -0.00003985   -0.00000950
     atom   32 type  1   force =    -0.00009543   -0.00000417   -0.00012524
     atom   33 type  2   force =     0.00212161    0.00250728   -0.00150811
     atom   34 type  2   force =    -0.00012680    0.00037060   -0.00053037
     atom   35 type  2   force =    -0.00006980    0.00028672   -0.00050914
     atom   36 type  2   force =     0.00004795    0.00033548   -0.00052712
     atom   37 type  2   force =    -0.00003111    0.00037652   -0.00056982
     atom   38 type  2   force =     0.00000285    0.00038991   -0.00051640
     atom   39 type  2   force =     0.00000821    0.00032401   -0.00045238
     atom   40 type  2   force =    -0.00001419    0.00034798   -0.00052278
     atom   41 type  2   force =    -0.00040916    0.00011070   -0.00024081
     atom   42 type  2   force =    -0.00031271    0.00057058    0.00000890
     atom   43 type  2   force =    -0.00061496    0.00023870    0.00010306
     atom   44 type  2   force =    -0.00029937    0.00059909   -0.00000973
     atom   45 type  2   force =    -0.00028272    0.00058814    0.00000958
     atom   46 type  2   force =    -0.00031896    0.00055787    0.00002851
     atom   47 type  2   force =    -0.00029216    0.00055645    0.00000811
     atom   48 type  2   force =    -0.00028395    0.00053501   -0.00001747
     atom   49 type  2   force =     0.00025744   -0.00011415   -0.00066204
     atom   50 type  2   force =     0.00027394   -0.00016679   -0.00049077
     atom   51 type  2   force =     0.00028901   -0.00025389   -0.00050668
     atom   52 type  2   force =     0.00033969   -0.00023954   -0.00055525
     atom   53 type  2   force =     0.00025772   -0.00037220   -0.00082463
     atom   54 type  2   force =     0.00028874   -0.00017085   -0.00051165
     atom   55 type  2   force =     0.00027318   -0.00024569   -0.00048143
     atom   56 type  2   force =     0.00033972   -0.00018979   -0.00052979
     atom   57 type  2   force =    -0.00022770    0.00025511    0.00049334
     atom   58 type  2   force =    -0.00034806    0.00016660    0.00049819
     atom   59 type  2   force =    -0.00036041    0.00016577    0.00054314
     atom   60 type  2   force =    -0.00022744    0.00007619    0.00065097
     atom   61 type  2   force =    -0.00033172    0.00019955    0.00049697
     atom   62 type  2   force =    -0.00027106    0.00032693    0.00082922
     atom   63 type  2   force =    -0.00028174    0.00015812    0.00054912
     atom   64 type  2   force =    -0.00033210    0.00013977    0.00052125
     atom   65 type  2   force =     0.00001468   -0.00034322    0.00049167
     atom   66 type  2   force =     0.00001587   -0.00033266    0.00050954
     atom   67 type  2   force =    -0.00001987   -0.00038746    0.00056565
     atom   68 type  2   force =     0.00001108   -0.00036967    0.00053750
     atom   69 type  2   force =    -0.00032720   -0.00019357    0.00043941
     atom   70 type  2   force =    -0.00049342   -0.00025720    0.00058080
     atom   71 type  2   force =     0.00000089   -0.00042175    0.00055367
     atom   72 type  2   force =     0.00001199   -0.00041215    0.00051991
     atom   73 type  2   force =     0.00033697   -0.00053921    0.00018799
     atom   74 type  2   force =     0.00027583   -0.00055725   -0.00001530
     atom   75 type  2   force =     0.00026527   -0.00059377   -0.00006093
     atom   76 type  2   force =     0.00032227   -0.00056911    0.00003783
     atom   77 type  2   force =     0.00024820   -0.00058898   -0.00004507
     atom   78 type  2   force =     0.00040611   -0.00058447   -0.00004683
     atom   79 type  2   force =     0.00059534   -0.00084243    0.00027962
     atom   80 type  2   force =     0.00026680   -0.00059514   -0.00000417

     Total force =     0.006064     Total SCF correction =     0.000148


     Computing stress (Cartesian axis) and pressure

          total   stress  (Ry/bohr**3)                   (kbar)     P=       -4.83
  -0.00002395   0.00000905   0.00000615           -3.52        1.33        0.90
   0.00000905  -0.00003623   0.00000342            1.33       -5.33        0.50
   0.00000615   0.00000342  -0.00003842            0.90        0.50       -5.65

 
     init_run     :     41.85s CPU     42.56s WALL (       1 calls)
     electrons    :   2449.14s CPU   2491.61s WALL (       1 calls)
     forces       :     18.22s CPU     18.46s WALL (       1 calls)
     stress       :    260.67s CPU    262.33s WALL (       1 calls)

     Called by init_run:
     wfcinit      :     38.87s CPU     39.42s WALL (       1 calls)
     potinit      :      0.94s CPU      0.99s WALL (       1 calls)
     hinit0       :      0.88s CPU      0.90s WALL (       1 calls)

     Called by electrons:
     c_bands      :   2288.32s CPU   2327.27s WALL (      14 calls)
     sum_band     :    149.23s CPU    151.90s WALL (      14 calls)
     v_of_rho     :      4.05s CPU      4.26s WALL (      15 calls)
     newd         :      4.68s CPU      5.39s WALL (      15 calls)
     PAW_pot      :      2.23s CPU      2.25s WALL (      15 calls)
     mix_rho      :      0.86s CPU      0.87s WALL (      14 calls)

     Called by c_bands:
     init_us_2    :     13.03s CPU     13.16s WALL (     868 calls)
     cegterg      :   2244.77s CPU   2283.21s WALL (     392 calls)

     Called by sum_band:
     sum_band:bec :      1.84s CPU      1.85s WALL (     392 calls)
     addusdens    :      7.36s CPU      8.17s WALL (      14 calls)

     Called by *egterg:
     h_psi        :    697.06s CPU    710.39s WALL (    1928 calls)
     s_psi        :    117.47s CPU    118.37s WALL (    1928 calls)
     g_psi        :      2.15s CPU      2.16s WALL (    1508 calls)
     cdiaghg      :   1131.45s CPU   1138.12s WALL (    1900 calls)

     Called by h_psi:
     h_psi:calbec :    118.25s CPU    119.10s WALL (    1928 calls)
     vloc_psi     :    453.66s CPU    461.98s WALL (    1928 calls)
     add_vuspsi   :    118.37s CPU    119.07s WALL (    1928 calls)

     General routines
     calbec       :    174.03s CPU    175.20s WALL (    2460 calls)
     fft          :      3.85s CPU      3.92s WALL (     413 calls)
     ffts         :      0.09s CPU      0.09s WALL (      58 calls)
     fftw         :    477.89s CPU    486.79s WALL (  950566 calls)
     interpolate  :      0.35s CPU      0.36s WALL (      30 calls)
 
     Parallel routines
     fft_scatt_xy :     53.50s CPU     54.36s WALL (  951037 calls)
     fft_scatt_yz :    221.02s CPU    226.10s WALL (  951037 calls)
 
     PWSCF        :  46m10.67s CPU  46m55.99s WALL

 
   This run was terminated on:  16:25:37   7Jul2021            

=------------------------------------------------------------------------------=
   JOB DONE.
=------------------------------------------------------------------------------=
# python dir           : /gpfs/nobackup/projects/quantumchemistry/rom_cq/SOAPML/venv/SOAPML/lib/python3.6/site-packages/espresso
# espresso dir         : /software/app/qe_foundation/qe/6.5/rt_intel_impi/2017.5/2020-02-13_09-05-31/bin
# pseudo dir           : /gpfs/nobackup/projects/quantumchemistry/rom_cq/SOAPML/data/In2O3/espresso_calculations/psp_copy/
# ase-espresso version : 0.3.3


