320
Lattice="17.824769516617565 1.3970555327708405e-09 -9.725691729144033e-16 -5.941589840189678 16.80535386391769 -2.4197734073127072e-09 -5.941589838213945 -8.402676930561784 14.553863367352896" Properties=species:S:1:pos:R:3:spacegroup_kinds:I:1:forces:R:3 spacegroup="P 1" unit_cell=conventional occupancy="_JSON {\"0\": {\"In\": 1}, \"1\": {\"In\": 1}, \"2\": {\"In\": 1}, \"3\": {\"In\": 1}, \"4\": {\"In\": 1}, \"5\": {\"In\": 1}, \"6\": {\"In\": 1}, \"7\": {\"In\": 1}, \"8\": {\"In\": 1}, \"9\": {\"In\": 1}, \"10\": {\"In\": 1}, \"11\": {\"In\": 1}, \"12\": {\"In\": 1}, \"13\": {\"In\": 1}, \"14\": {\"In\": 1}, \"15\": {\"In\": 1}, \"16\": {\"O\": 1}, \"17\": {\"O\": 1}, \"18\": {\"O\": 1}, \"19\": {\"O\": 1}, \"20\": {\"O\": 1}, \"21\": {\"O\": 1}, \"22\": {\"O\": 1}, \"23\": {\"O\": 1}, \"24\": {\"O\": 1}, \"25\": {\"O\": 1}, \"26\": {\"O\": 1}, \"27\": {\"O\": 1}, \"28\": {\"O\": 1}, \"29\": {\"O\": 1}, \"30\": {\"O\": 1}, \"31\": {\"O\": 1}, \"32\": {\"O\": 1}, \"33\": {\"O\": 1}, \"34\": {\"O\": 1}, \"35\": {\"O\": 1}, \"36\": {\"O\": 1}, \"37\": {\"O\": 1}, \"38\": {\"O\": 1}, \"39\": {\"O\": 1}}" n_minim_iter=6 energy=-361215.2708285801 stress="0.00023761491255413163 -2.0330756278567466e-06 6.488092907740152e-06 -2.0330756278567466e-06 0.00022303285904096048 -6.006921478177005e-06 6.488092907740152e-06 -6.006921478177005e-06 0.000226446891173591" free_energy=-45151.90889834615 pbc="T T T"
In      -4.25531468       3.00896187       5.70372269        0      -0.00153633      -0.00053236       0.00070256
In       4.65707008       3.00896187       5.70372269        0      -0.00103767       0.00075475      -0.00106431
In      -7.22610960      11.41163880       5.70372269        0       0.00016759      -0.00009655       0.00019985
In       1.68627516      11.41163880       5.70372269        0       0.00024066      -0.00020989       0.00022175
In      -7.22610960      -1.19237660      12.98065437        0       0.00009345      -0.00004929       0.00022181
In       1.68627516      -1.19237659      12.98065437        0       0.00016788      -0.00012803       0.00017790
In     -10.19690452       7.21030034      12.98065437        0       0.00018838      -0.00011350       0.00025125
In      -1.28451976       7.21030034      12.98065437        0       0.00016879      -0.00013033       0.00017524
In       7.22610960       1.19237660       1.57320898        1      -0.00030338       0.00016663      -0.00005834
In      16.13849436       1.19237660       1.57320898        1      -0.00045973      -0.00000861      -0.00093551
In       4.25531468       9.59505353       1.57320898        1      -0.00019036       0.00010383      -0.00019032
In      13.16769944       9.59505353       1.57320898        1      -0.00021784       0.00019813      -0.00030207
In       4.25531468      -3.00896187       8.85014066        1      -0.00015535       0.00012230      -0.00020369
In      13.16769944      -3.00896186       8.85014066        1      -0.00018897       0.00007889      -0.00015564
In       1.28451976       5.39371507       8.85014066        1      -0.00017284       0.00042835      -0.00002775
In      10.19690452       5.39371507       8.85014066        1      -0.00016494       0.00009735      -0.00022572
In       1.28451976      -0.90829263       5.21167483        2      -0.00026101       0.00025796      -0.00045248
In      10.19690452      -0.90829263       5.21167483        2      -0.00013019       0.00013116      -0.00019511
In      -1.68627516       7.49438430       5.21167483        2      -0.00020967       0.00086679      -0.00012418
In       7.22610960       7.49438430       5.21167483        2      -0.00032973      -0.00009054      -0.00013862
In      -1.68627516      -5.10963110      12.48860651        2      -0.00017029       0.00018803      -0.00025786
In       7.22610960      -5.10963109      12.48860651        2      -0.00014393       0.00014049      -0.00014160
In      -4.65707008       3.29304584      12.48860651        2      -0.00018547       0.00009304      -0.00016904
In       4.25531468       3.29304584      12.48860651        2      -0.00014135       0.00011575      -0.00022827
In       7.42698730      -2.10066923       3.63846584        3       0.00004795      -0.00006963       0.00000544
In      16.33937206      -2.10066923       3.63846584        3      -0.00000220      -0.00003092       0.00006044
In       4.45619238       6.30200770       3.63846584        3       0.00007282      -0.00030734       0.00071871
In      13.36857714       6.30200770       3.63846584        3      -0.00064327       0.00028500      -0.00005520
In       4.45619238      -6.30200769      10.91539752        3       0.00000454       0.00000932       0.00000440
In      13.36857714      -6.30200769      10.91539752        3       0.00001946       0.00000840      -0.00004627
In       1.48539746       2.10066924      10.91539752        3       0.00008978       0.00000655       0.00001434
In      10.39778222       2.10066924      10.91539752        3      -0.00000661      -0.00000253       0.00001603
In      -1.28451976       4.05929648       3.39244191        4       0.02335143       0.00126454       0.00409508
In       7.62786500       4.05929648       3.39244191        4       0.00007986      -0.00007542      -0.00014141
In      -4.25531468      12.46197341       3.39244191        4       0.00014547      -0.00016786      -0.00020872
In       4.65707008      12.46197341       3.39244191        4       0.00019941      -0.00015496      -0.00019001
In      -4.25531468      -0.14204199      10.66937359        4       0.00013292      -0.00012032      -0.00020655
In       4.65707008      -0.14204198      10.66937359        4       0.00016174      -0.00007341      -0.00023146
In      -7.22610960       8.26063495      10.66937359        4       0.00016857      -0.00012963      -0.00022227
In       1.68627516       8.26063495      10.66937359        4       0.00011913      -0.00011136      -0.00018227
In       4.65707008      -2.86691988       5.45769876        5       0.00010797       0.00031326      -0.00004274
In      13.56945484      -2.86691988       5.45769876        5       0.00019261       0.00029214       0.00002267
In       1.68627516       5.53575705       5.45769876        5       0.00998477       0.01196313       0.01343732
In      10.59865992       5.53575705       5.45769876        5       0.00005024       0.00026111       0.00004987
In       1.68627516      -7.06825835      12.73463044        5       0.00026977       0.00020124      -0.00011095
In      10.59865992      -7.06825834      12.73463044        5       0.00010262       0.00021591      -0.00000764
In      -1.28451976       1.33441859      12.73463044        5       0.00015920       0.00022441      -0.00003315
In       7.62786500       1.33441859      12.73463044        5       0.00023050       0.00016587       0.00008246
In      -1.28451976       1.33441859       5.45769876        6       0.00000850      -0.00161886       0.00130405
In       7.62786500       1.33441859       5.45769876        6      -0.00001375       0.00028181      -0.00012743
In      -4.25531468       9.73709552       5.45769876        6       0.00008397       0.00035100       0.00007416
In       4.65707008       9.73709552       5.45769876        6       0.00010511       0.00021460       0.00002248
In      -4.25531468      -2.86691988      12.73463044        6       0.00023898       0.00025279       0.00031086
In       4.65707008      -2.86691987      12.73463044        6       0.00012908       0.00022693      -0.00001328
In      -7.22610960       5.53575706      12.73463044        6       0.00017362       0.00027563       0.00002534
In       1.68627516       5.53575706      12.73463044        6       0.00014780       0.00024364      -0.00003551
In      -1.68627516       7.06825835       1.81923292        7      -0.00076359       0.00028829      -0.00045510
In       7.22610960       7.06825835       1.81923292        7      -0.00031529      -0.00033494       0.00003311
In      -4.65707008      15.47093528       1.81923292        7      -0.00007272       0.00001688       0.00016349
In       4.25531468      15.47093528       1.81923292        7      -0.00018370      -0.00022359       0.00000041
In      -4.65707008       2.86691988       9.09616460        7      -0.00023807      -0.00023963       0.00011835
In       4.25531468       2.86691989       9.09616460        7      -0.00022967      -0.00038227       0.00006839
In      -7.62786500      11.26959682       9.09616460        7      -0.00016521      -0.00023618       0.00003380
In       1.28451976      11.26959682       9.09616460        7      -0.00016650      -0.00024637       0.00000732
In       4.25531468       0.14204199       3.88448977        8      -0.00047984       0.00117718       0.00030228
In      13.16769944       0.14204199       3.88448977        8      -0.00007343       0.00014998       0.00024008
In       1.28451976       8.54471892       3.88448977        8       0.00049030      -0.00026056      -0.00023740
In      10.19690452       8.54471892       3.88448977        8      -0.00023734       0.00010835       0.00020378
In       1.28451976      -4.05929648      11.16142145        8      -0.00017766       0.00010092       0.00021078
In      10.19690452      -4.05929647      11.16142145        8      -0.00017608       0.00013847       0.00016927
In      -1.68627516       4.34338046      11.16142145        8      -0.00019374       0.00011025       0.00017870
In       7.22610960       4.34338046      11.16142145        8      -0.00015792       0.00013525       0.00022338
In      -1.48539746       4.20133847      -0.00000000        9      -0.00059328      -0.00015014      -0.00082722
In       7.42698730       4.20133847      -0.00000000        9      -0.00013970       0.00008878       0.00012247
In      -4.45619238      12.60401540      -0.00000000        9      -0.00001655       0.00001749       0.00001769
In       4.45619238      12.60401540      -0.00000000        9       0.00001238      -0.00001740       0.00001567
In      -4.45619238       0.00000000       7.27693168        9      -0.00003562      -0.00009965       0.00002912
In       4.45619238       0.00000001       7.27693168        9      -0.00005255      -0.00007736       0.00007391
In      -7.42698730       8.40267694       7.27693168        9      -0.00000357      -0.00000733      -0.00001995
In       1.48539746       8.40267694       7.27693168        9       0.00026169      -0.00032589      -0.00001823
In       4.25531468       6.44404969       0.24602393       10      -0.00028682      -0.00024085       0.00042135
In      13.16769944       6.44404969       0.24602393       10       0.00000940       0.00011213       0.00020936
In       1.28451976      14.84672662       0.24602393       10      -0.00017318       0.00011615       0.00018646
In      10.19690452      14.84672662       0.24602393       10      -0.00018382       0.00014048       0.00020397
In       1.28451976       2.24271122       7.52295561       10      -0.00010096      -0.00025909       0.00025835
In      10.19690452       2.24271123       7.52295561       10      -0.00017225       0.00014157       0.00020590
In      -1.68627516      10.64538816       7.52295561       10      -0.00020229       0.00014806       0.00020568
In       7.22610960      10.64538816       7.52295561       10      -0.00018275       0.00011342       0.00021388
In      -1.28451976      -2.24271121       7.03090775       11       0.00011833      -0.00013533      -0.00018686
In       7.62786500      -2.24271121       7.03090775       11       0.00016667      -0.00014710      -0.00021142
In      -4.25531468       6.15996572       7.03090775       11       0.00035398      -0.00023133      -0.00026627
In       4.65707008       6.15996572       7.03090775       11       0.00021733      -0.00070706      -0.00114704
In      -4.25531468      -6.44404968      14.30783943       11       0.00014932       0.00046469       0.00090800
In       4.65707008      -6.44404967      14.30783943       11       0.00009972      -0.00013743      -0.00022987
In      -7.22610960       1.95862726      14.30783943       11       0.00012449      -0.00012369      -0.00020629
In       1.68627516       1.95862726      14.30783943       11       0.00018385      -0.00009050      -0.00023894
In       4.25531468       2.86691988       1.81923292       12      -0.00000684      -0.00008883       0.00040809
In      13.16769944       2.86691988       1.81923292       12      -0.00042301      -0.00038778      -0.00008301
In       1.28451976      11.26959681       1.81923292       12      -0.00010437      -0.00022685      -0.00004176
In      10.19690452      11.26959681       1.81923292       12      -0.00016296      -0.00022833      -0.00000154
In       1.28451976      -1.33441859       9.09616460       12      -0.00011976      -0.00024475       0.00000800
In      10.19690452      -1.33441858       9.09616460       12      -0.00015915      -0.00023262      -0.00001596
In      -1.68627516       7.06825835       9.09616460       12      -0.00007948      -0.00028376       0.00005647
In       7.22610960       7.06825835       9.09616460       12      -0.00005449      -0.00017120       0.00011373
In       1.68627516       5.10963110       2.06525685       13       0.00560108       0.00324149      -0.00745513
In      10.59865992       5.10963110       2.06525685       13       0.00009521      -0.00015185       0.00023578
In      -1.28451976      13.51230803       2.06525685       13       0.00018821      -0.00017809       0.00021493
In       7.62786500      13.51230803       2.06525685       13       0.00018044      -0.00010108       0.00015937
In      -1.28451976       0.90829263       9.34218853       13       0.00009841      -0.00016054       0.00030829
In       7.62786500       0.90829264       9.34218853       13       0.00022505      -0.00018833       0.00031392
In      -4.25531468       9.31096957       9.34218853       13       0.00019122      -0.00011930       0.00015463
In       4.65707008       9.31096957       9.34218853       13       0.00019333      -0.00012187       0.00020744
In       1.48539746       8.40267693      -0.00000000       14       0.00008985      -0.00028805       0.00008830
In      10.39778222       8.40267693      -0.00000000       14      -0.00003087       0.00000523       0.00001797
In      -1.48539746      16.80535386      -0.00000000       14      -0.00002890      -0.00016195      -0.00004152
In       7.42698730      16.80535386      -0.00000000       14      -0.00008841      -0.00007507      -0.00006052
In      -1.48539746       4.20133847       7.27693168       14      -0.00050724       0.00003133       0.00207776
In       7.42698730       4.20133847       7.27693168       14      -0.00023363       0.00017222      -0.00019292
In      -4.45619238      12.60401540       7.27693168       14      -0.00000793       0.00001762      -0.00001377
In       4.45619238      12.60401540       7.27693168       14       0.00001802      -0.00003690      -0.00001349
In       1.48539746       2.10066924       3.63846584       15       0.00535827      -0.00880026      -0.00025512
In      10.39778222       2.10066924       3.63846584       15      -0.00004960       0.00000376      -0.00000257
In      -1.48539746      10.50334617       3.63846584       15      -0.00007135      -0.00015510       0.00005062
In       7.42698730      10.50334617       3.63846584       15       0.00006104       0.00011657       0.00000712
In      -1.48539746      -2.10066923      10.91539752       15      -0.00000447      -0.00002221       0.00007035
In       7.42698730      -2.10066922      10.91539752       15       0.00003245      -0.00002162       0.00003796
In      -4.45619238       6.30200771      10.91539752       15       0.00004720      -0.00004967      -0.00004808
In       4.45619238       6.30200771      10.91539752       15      -0.00000739      -0.00000341      -0.00004257
O        0.88534313       4.20169010       3.95988400       16      -0.07096879      -0.02215003      -0.01260609
O        9.78772789       4.20169010       3.95988400       16      -0.00015794      -0.00369235       0.00078383
O       -2.09545179      12.60436703       3.95988400       16      -0.00018988      -0.00373507       0.00078421
O        6.81693297      12.60436703       3.95988400       16      -0.00022913      -0.00375941       0.00077013
O       -2.09545179       0.00035163      11.23681568       16      -0.00018861      -0.00369330       0.00079927
O        6.81693297       0.00035164      11.23681568       16      -0.00018737      -0.00368402       0.00076190
O       -5.06624671       8.40302857      11.23681568       16      -0.00017370      -0.00368788       0.00078504
O        3.84613805       8.40302857      11.23681568       16      -0.00020151      -0.00365431       0.00082018
O       -2.09545179       3.42918432       5.29668516       17       0.00522321       0.00465930      -0.00042431
O        6.81693297       3.42918432       5.29668516       17       0.00022681       0.00264260       0.00279372
O       -5.06624671      11.83186125       5.29668516       17      -0.00021086       0.00251951       0.00281986
O        3.84613805      11.83186125       5.29668516       17      -0.00019501       0.00255410       0.00280683
O       -5.06624671      -0.77215415      12.57361684       17      -0.00019715       0.00249747       0.00285240
O        3.84613805      -0.77215414      12.57361684       17      -0.00018547       0.00252014       0.00279908
O       -8.03704163       7.63052279      12.57361684       17      -0.00018526       0.00248878       0.00276287
O        0.87534313       7.63052279      12.57361684       17      -0.00019041       0.00251071       0.00281977
O       -0.43588134       2.25569081       0.05230387       18      -0.00107221       0.00358280       0.00257156
O        8.47650342       2.25569081       0.05230387       18      -0.00107400       0.00318773       0.00155227
O       -3.40667626      10.65836774       0.05230387       18      -0.00114448       0.00314876       0.00160853
O        5.50570850      10.65836774       0.05230387       18      -0.00113803       0.00325614       0.00158446
O       -3.40667626      -1.94564766       7.32923555       18      -0.00114211       0.00326559       0.00156715
O        5.50570850      -1.94564765       7.32923555       18      -0.00115587       0.00314690       0.00169740
O       -6.37747118       6.45702928       7.32923555       18      -0.00112837       0.00318620       0.00156633
O        2.53491358       6.45702928       7.32923555       18      -0.00146393       0.00300544       0.00122919
O       -0.87534313      -0.77180251       1.97963747       19       0.00034706      -0.00072725       0.00392207
O        8.03704163      -0.77180251       1.97963747       19       0.00024737      -0.00119441       0.00355867
O       -3.84613805       7.63087442       1.97963747       19       0.00029439      -0.00136609       0.00366278
O        5.06624671       7.63087442       1.97963747       19       0.00022112      -0.00114725       0.00386675
O       -3.84613805      -4.97314098       9.25656915       19       0.00018952      -0.00117514       0.00359209
O        5.06624671      -4.97314097       9.25656915       19       0.00018257      -0.00116575       0.00357897
O       -6.81693297       3.42953596       9.25656915       19       0.00019597      -0.00116230       0.00357884
O        2.09545179       3.42953596       9.25656915       19       0.00003730      -0.00103455       0.00319653
O        3.93154991       5.00333863       1.92733360       20       0.00299881       0.00216358       0.00120848
O       12.84393467       5.00333863       1.92733360       20       0.00245763       0.00229680       0.00216261
O        0.96075499      13.40601556       1.92733360       20       0.00242446       0.00203008       0.00199478
O        9.87313975      13.40601556       1.92733360       20       0.00240237       0.00202347       0.00197994
O        0.96075499       0.80200016       9.20426528       20       0.00250884       0.00203101       0.00202858
O        9.87313975       0.80200017       9.20426528       20       0.00241446       0.00209045       0.00198600
O       -2.01003993       9.20467710       9.20426528       20       0.00247487       0.00215098       0.00199387
O        6.90234483       9.20467710       9.20426528       20       0.00246141       0.00212720       0.00206594
O        2.01003992       2.93321869       1.65821931       21      -0.00036909      -0.00578373      -0.00661993
O       10.92242468       2.93321869       1.65821931       21      -0.00247353      -0.00065578       0.00283506
O       -0.96075500      11.33589562       1.65821931       21      -0.00244975      -0.00065764       0.00279050
O        7.95162976      11.33589562       1.65821931       21      -0.00243152      -0.00065356       0.00281346
O       -0.96075500      -1.26811978       8.93515099       21      -0.00240415      -0.00071551       0.00275877
O        7.95162976      -1.26811977       8.93515099       21      -0.00243798      -0.00066269       0.00281235
O       -3.93154992       7.13455716       8.93515099       21      -0.00245377      -0.00069586       0.00278429
O        4.98083484       7.13455716       8.93515099       21      -0.00249679      -0.00084063       0.00257311
O        2.01003992       6.27145841       0.26911428       22      -0.00269664       0.00239000      -0.00036527
O       10.92242468       6.27145841       0.26911428       22      -0.00229596       0.00271142      -0.00079744
O       -0.96075500      14.67413534       0.26911428       22      -0.00242153       0.00264613      -0.00089173
O        7.95162976      14.67413534       0.26911428       22      -0.00239254       0.00283396      -0.00080980
O       -0.96075500       2.07011994       7.54604596       22      -0.00221165       0.00356484      -0.00209038
O        7.95162976       2.07011995       7.54604596       22      -0.00236016       0.00272697      -0.00075903
O       -3.93154992      10.47279688       7.54604596       22      -0.00241990       0.00276496      -0.00086675
O        4.98083484      10.47279688       7.54604596       22      -0.00244349       0.00281462      -0.00081533
O       -2.27197947       5.96106363       3.69076971       23      -0.00182085      -0.00251890       0.00213459
O        6.64040529       5.96106363       3.69076971       23      -0.00327591       0.00000176       0.00154543
O       -5.24277439      14.36374056       3.69076971       23      -0.00341615       0.00000319       0.00162385
O        3.66961037      14.36374056       3.69076971       23      -0.00342375       0.00001987       0.00160118
O       -5.24277439       1.75972516      10.96770139       23      -0.00342865       0.00006428       0.00159095
O        3.66961037       1.75972517      10.96770139       23      -0.00339373      -0.00000402       0.00157210
O       -8.21356931      10.16240210      10.96770139       23      -0.00341788       0.00003722       0.00160153
O        0.69881545      10.16240210      10.96770139       23      -0.00343135       0.00006385       0.00162294
O        3.40667626       1.94564766       7.22462781       24       0.00107842      -0.00317186      -0.00157202
O       12.31906102       1.94564766       7.22462781       24       0.00118619      -0.00319573      -0.00159810
O        0.43588134      10.34832459       7.22462781       24       0.00110810      -0.00329754      -0.00163587
O        9.34826610      10.34832459       7.22462781       24       0.00119258      -0.00319591      -0.00158798
O        0.43588134      -2.25569081      14.50155949       24       0.00114039      -0.00318113      -0.00160328
O        9.34826610      -2.25569080      14.50155949       24       0.00190861      -0.00324069      -0.00127799
O       -2.53491358       6.14698613      14.50155949       24       0.00118016      -0.00321602      -0.00161583
O        6.37747118       6.14698613      14.50155949       24       0.00115708      -0.00326472      -0.00162876
O        5.24277438      -1.75972516       3.58616197       25       0.00339018       0.00006454      -0.00154797
O       14.15515914      -1.75972516       3.58616197       25       0.00341979       0.00003567      -0.00157790
O        2.27197946       6.64295177       3.58616197       25       0.00806627       0.01216690      -0.00246484
O       11.18436422       6.64295177       3.58616197       25       0.00348830      -0.00005651      -0.00161666
O        2.27197946      -5.96106363      10.86309365       25       0.00340982      -0.00002624      -0.00159550
O       11.18436422      -5.96106362      10.86309365       25       0.00339201      -0.00000669      -0.00165347
O       -0.69881546       2.44161331      10.86309365       25       0.00338025       0.00002049      -0.00154230
O        8.21356930       2.44161331      10.86309365       25       0.00341344      -0.00004704      -0.00159359
O        6.37747118       3.27381112       1.71113223       26       0.00146681       0.00319214      -0.00206800
O       15.28985594       3.27381112       1.71113223       26       0.00029267       0.00292677      -0.00189466
O        3.40667626      11.67648805       1.71113223       26       0.00114237       0.00293519      -0.00196304
O       12.31906102      11.67648805       1.71113223       26       0.00114392       0.00297941      -0.00199680
O        3.40667626      -0.92752735       8.98806391       26       0.00121390       0.00304330      -0.00199298
O       12.31906102      -0.92752734       8.98806391       26       0.00117830       0.00299553      -0.00202010
O        0.43588134       7.47514959       8.98806391       26       0.00126716       0.00304762      -0.00190550
O        9.34826610       7.47514959       8.98806391       26       0.00117166       0.00298662      -0.00198376
O        3.66961037       2.31643775       3.90758013       27      -0.00000409      -0.00124150      -0.00111577
O       12.58199513       2.31643775       3.90758013       27      -0.00330064       0.00139977      -0.00066105
O        0.69881545      10.71911468       3.90758013       27      -0.00341633       0.00142825      -0.00079591
O        9.61120021      10.71911468       3.90758013       27      -0.00342379       0.00136088      -0.00082509
O        0.69881545      -1.88490072      11.18451181       27      -0.00342352       0.00140647      -0.00083943
O        9.61120021      -1.88490071      11.18451181       27      -0.00343510       0.00139196      -0.00086110
O       -2.27197947       6.51777622      11.18451181       27      -0.00338338       0.00136535      -0.00079015
O        6.64040529       6.51777622      11.18451181       27      -0.00339329       0.00141551      -0.00074762
O        0.69881545       4.32651402       6.95551352       28      -0.00517973      -0.00214286      -0.00116093
O        9.61120021       4.32651402       6.95551352       28      -0.00334501      -0.00139152      -0.00077473
O       -2.27197947      12.72919095       6.95551352       28      -0.00338968      -0.00140780      -0.00076941
O        6.64040529      12.72919095       6.95551352       28      -0.00344172      -0.00142811      -0.00077391
O       -2.27197947       0.12517555      14.23244520       28      -0.00343115      -0.00145278      -0.00069786
O        6.64040529       0.12517556      14.23244520       28      -0.00337934      -0.00141702      -0.00074962
O       -5.24277439       8.52785249      14.23244520       28      -0.00340658      -0.00140673      -0.00079378
O        3.66961037       8.52785249      14.23244520       28      -0.00343237      -0.00145171      -0.00079854
O        2.27197946      -0.12517555       0.32141816       29       0.00350742       0.00126619       0.00088712
O       11.18436422      -0.12517555       0.32141816       29       0.00347935       0.00143305       0.00079869
O       -0.69881546       8.27750138       0.32141816       29       0.00361419       0.00123403       0.00067943
O        8.21356930       8.27750138       0.32141816       29       0.00346279       0.00142241       0.00075858
O       -0.69881546      -4.32651402       7.59834984       29       0.00341090       0.00140905       0.00077248
O        8.21356930      -4.32651401       7.59834984       29       0.00341378       0.00140495       0.00077705
O       -3.66961038       4.07616292       7.59834984       29       0.00339963       0.00122546       0.00069075
O        5.24277438       4.07616292       7.59834984       29       0.00359266       0.00122815       0.00085927
O       -3.40667626       0.92752735       5.56579944       30      -0.00105613      -0.00272040       0.00180379
O        5.50570850       0.92752735       5.56579944       30      -0.00140386      -0.00273545       0.00205556
O       -6.37747118       9.33020428       5.56579944       30      -0.00109638      -0.00303024       0.00197928
O        2.53491358       9.33020428       5.56579944       30      -0.00117111      -0.00314844       0.00209017
O       -6.37747118      -3.27381112      12.84273112       30      -0.00113860      -0.00291195       0.00204495
O        2.53491358      -3.27381111      12.84273112       30      -0.00116033      -0.00299815       0.00198243
O       -9.34826610       5.12886582      12.84273112       30      -0.00116056      -0.00298820       0.00197685
O       -0.43588134       5.12886582      12.84273112       30      -0.00116436      -0.00298290       0.00197943
O        5.06624671       0.77215415       1.98024652       31       0.00022244      -0.00266796      -0.00281485
O       13.97863147       0.77215415       1.98024652       31       0.00029326      -0.00268750      -0.00284781