320
Lattice="17.824769516617565 1.3970555327708405e-09 -9.725691729144033e-16 -5.941589840189678 16.80535386391769 -2.4197734073127072e-09 -5.941589838213945 -8.402676930561784 14.553863367352896" Properties=species:S:1:pos:R:3:spacegroup_kinds:I:1:forces:R:3 spacegroup="P 1" unit_cell=conventional occupancy="_JSON {\"0\": {\"In\": 1}, \"1\": {\"In\": 1}, \"2\": {\"In\": 1}, \"3\": {\"In\": 1}, \"4\": {\"In\": 1}, \"5\": {\"In\": 1}, \"6\": {\"In\": 1}, \"7\": {\"In\": 1}, \"8\": {\"In\": 1}, \"9\": {\"In\": 1}, \"10\": {\"In\": 1}, \"11\": {\"In\": 1}, \"12\": {\"In\": 1}, \"13\": {\"In\": 1}, \"14\": {\"In\": 1}, \"15\": {\"In\": 1}, \"16\": {\"O\": 1}, \"17\": {\"O\": 1}, \"18\": {\"O\": 1}, \"19\": {\"O\": 1}, \"20\": {\"O\": 1}, \"21\": {\"O\": 1}, \"22\": {\"O\": 1}, \"23\": {\"O\": 1}, \"24\": {\"O\": 1}, \"25\": {\"O\": 1}, \"26\": {\"O\": 1}, \"27\": {\"O\": 1}, \"28\": {\"O\": 1}, \"29\": {\"O\": 1}, \"30\": {\"O\": 1}, \"31\": {\"O\": 1}, \"32\": {\"O\": 1}, \"33\": {\"O\": 1}, \"34\": {\"O\": 1}, \"35\": {\"O\": 1}, \"36\": {\"O\": 1}, \"37\": {\"O\": 1}, \"38\": {\"O\": 1}, \"39\": {\"O\": 1}}" n_minim_iter=6 energy=-45151.90889834615 stress="0.00023137954365406806 5.1425383874769726e-14 1.3230593974721826e-14 5.1425383874769726e-14 0.00023137954354587027 7.543129506500556e-14 1.3230593974721826e-14 7.543129506500556e-14 0.00023137954378670467" free_energy=-45151.90889834615 pbc="T T T"
In      -4.25531468       3.00896187       5.70372269        0       0.00016368      -0.00011574       0.00020046
In       4.65707008       3.00896187       5.70372269        0       0.00016368      -0.00011574       0.00020046
In      -7.22610960      11.41163880       5.70372269        0       0.00016368      -0.00011574       0.00020046
In       1.68627516      11.41163880       5.70372269        0       0.00016368      -0.00011574       0.00020046
In      -7.22610960      -1.19237660      12.98065437        0       0.00016368      -0.00011574       0.00020046
In       1.68627516      -1.19237659      12.98065437        0       0.00016368      -0.00011574       0.00020046
In     -10.19690452       7.21030034      12.98065437        0       0.00016368      -0.00011574       0.00020046
In      -1.28451976       7.21030034      12.98065437        0       0.00016368      -0.00011574       0.00020046
In       7.22610960       1.19237660       1.57320898        1      -0.00016368       0.00011574      -0.00020046
In      16.13849436       1.19237660       1.57320898        1      -0.00016368       0.00011574      -0.00020046
In       4.25531468       9.59505353       1.57320898        1      -0.00016368       0.00011574      -0.00020046
In      13.16769944       9.59505353       1.57320898        1      -0.00016368       0.00011574      -0.00020046
In       4.25531468      -3.00896187       8.85014066        1      -0.00016368       0.00011574      -0.00020046
In      13.16769944      -3.00896186       8.85014066        1      -0.00016368       0.00011574      -0.00020046
In       1.28451976       5.39371507       8.85014066        1      -0.00016368       0.00011574      -0.00020046
In      10.19690452       5.39371507       8.85014066        1      -0.00016368       0.00011574      -0.00020046
In       1.28451976      -0.90829263       5.21167483        2      -0.00016368       0.00011574      -0.00020046
In      10.19690452      -0.90829263       5.21167483        2      -0.00016368       0.00011574      -0.00020046
In      -1.68627516       7.49438430       5.21167483        2      -0.00016368       0.00011574      -0.00020046
In       7.22610960       7.49438430       5.21167483        2      -0.00016368       0.00011574      -0.00020046
In      -1.68627516      -5.10963110      12.48860651        2      -0.00016368       0.00011574      -0.00020046
In       7.22610960      -5.10963109      12.48860651        2      -0.00016368       0.00011574      -0.00020046
In      -4.65707008       3.29304584      12.48860651        2      -0.00016368       0.00011574      -0.00020046
In       4.25531468       3.29304584      12.48860651        2      -0.00016368       0.00011574      -0.00020046
In       7.42698730      -2.10066923       3.63846584        3      -0.00000000      -0.00000000      -0.00000000
In      -1.48539746      -2.10066923       3.63846584        3      -0.00000000      -0.00000000      -0.00000000
In       4.45619238       6.30200770       3.63846584        3      -0.00000000      -0.00000000      -0.00000000
In      -4.45619238       6.30200770       3.63846584        3      -0.00000000      -0.00000000      -0.00000000
In       4.45619238      -6.30200769      10.91539752        3      -0.00000000      -0.00000000      -0.00000000
In      -4.45619238      -6.30200770      10.91539752        3      -0.00000000      -0.00000000      -0.00000000
In       1.48539746       2.10066924      10.91539752        3      -0.00000000      -0.00000000      -0.00000000
In      -7.42698730       2.10066924      10.91539752        3      -0.00000000      -0.00000000      -0.00000000
In      -1.28451976       4.05929648       3.39244191        4       0.00016368      -0.00011574      -0.00020046
In       7.62786500       4.05929648       3.39244191        4       0.00016368      -0.00011574      -0.00020046
In      -4.25531468      12.46197341       3.39244191        4       0.00016368      -0.00011574      -0.00020046
In       4.65707008      12.46197341       3.39244191        4       0.00016368      -0.00011574      -0.00020046
In      -4.25531468      -0.14204199      10.66937359        4       0.00016368      -0.00011574      -0.00020046
In       4.65707008      -0.14204198      10.66937359        4       0.00016368      -0.00011574      -0.00020046
In      -7.22610960       8.26063495      10.66937359        4       0.00016368      -0.00011574      -0.00020046
In       1.68627516       8.26063495      10.66937359        4       0.00016368      -0.00011574      -0.00020046
In       4.65707008      -2.86691988       5.45769876        5       0.00016368       0.00023147      -0.00000000
In      13.56945484      -2.86691988       5.45769876        5       0.00016368       0.00023147      -0.00000000
In       1.68627516       5.53575705       5.45769876        5       0.00016368       0.00023147      -0.00000000
In      10.59865992       5.53575705       5.45769876        5       0.00016368       0.00023147      -0.00000000
In       1.68627516      -7.06825835      12.73463044        5       0.00016368       0.00023147      -0.00000000
In      10.59865992      -7.06825834      12.73463044        5       0.00016368       0.00023147      -0.00000000
In      -1.28451976       1.33441859      12.73463044        5       0.00016368       0.00023147      -0.00000000
In       7.62786500       1.33441859      12.73463044        5       0.00016368       0.00023147      -0.00000000
In      -1.28451976       1.33441859       5.45769876        6       0.00016368       0.00023147       0.00000000
In       7.62786500       1.33441859       5.45769876        6       0.00016368       0.00023147       0.00000000
In      -4.25531468       9.73709552       5.45769876        6       0.00016368       0.00023147       0.00000000
In       4.65707008       9.73709552       5.45769876        6       0.00016368       0.00023147       0.00000000
In      -4.25531468      -2.86691988      12.73463044        6       0.00016368       0.00023147       0.00000000
In       4.65707008      -2.86691987      12.73463044        6       0.00016368       0.00023147       0.00000000
In      -7.22610960       5.53575706      12.73463044        6       0.00016368       0.00023147       0.00000000
In       1.68627516       5.53575706      12.73463044        6       0.00016368       0.00023147       0.00000000
In      -1.68627516       7.06825835       1.81923292        7      -0.00016368      -0.00023147       0.00000000
In       7.22610960       7.06825835       1.81923292        7      -0.00016368      -0.00023147       0.00000000
In      -4.65707008      15.47093528       1.81923292        7      -0.00016368      -0.00023147       0.00000000
In       4.25531468      15.47093528       1.81923292        7      -0.00016368      -0.00023147       0.00000000
In      -4.65707008       2.86691988       9.09616460        7      -0.00016368      -0.00023147       0.00000000
In       4.25531468       2.86691989       9.09616460        7      -0.00016368      -0.00023147       0.00000000
In      -7.62786500      11.26959682       9.09616460        7      -0.00016368      -0.00023147       0.00000000
In       1.28451976      11.26959682       9.09616460        7      -0.00016368      -0.00023147       0.00000000
In       4.25531468       0.14204199       3.88448977        8      -0.00016368       0.00011574       0.00020046
In      13.16769944       0.14204199       3.88448977        8      -0.00016368       0.00011574       0.00020046
In       1.28451976       8.54471892       3.88448977        8      -0.00016368       0.00011574       0.00020046
In      10.19690452       8.54471892       3.88448977        8      -0.00016368       0.00011574       0.00020046
In       1.28451976      -4.05929648      11.16142145        8      -0.00016368       0.00011574       0.00020046
In      10.19690452      -4.05929647      11.16142145        8      -0.00016368       0.00011574       0.00020046
In      -1.68627516       4.34338046      11.16142145        8      -0.00016368       0.00011574       0.00020046
In       7.22610960       4.34338046      11.16142145        8      -0.00016368       0.00011574       0.00020046
In      -1.48539746       4.20133847       0.00000000        9       0.00000000       0.00000000       0.00000000
In       7.42698730       4.20133847      -0.00000000        9       0.00000000       0.00000000       0.00000000
In      -4.45619238      12.60401540      -0.00000000        9       0.00000000       0.00000000       0.00000000
In       4.45619238      12.60401540      -0.00000000        9       0.00000000       0.00000000       0.00000000
In      -4.45619238       0.00000000       7.27693168        9       0.00000000       0.00000000       0.00000000
In       4.45619238       0.00000001       7.27693168        9       0.00000000       0.00000000       0.00000000
In      -7.42698730       8.40267694       7.27693168        9       0.00000000       0.00000000       0.00000000
In       1.48539746       8.40267694       7.27693168        9       0.00000000       0.00000000       0.00000000
In       4.25531468       6.44404969       0.24602393       10      -0.00016368       0.00011574       0.00020046
In      13.16769944       6.44404969       0.24602393       10      -0.00016368       0.00011574       0.00020046
In       1.28451976      14.84672662       0.24602393       10      -0.00016368       0.00011574       0.00020046
In      10.19690452      14.84672662       0.24602393       10      -0.00016368       0.00011574       0.00020046
In       1.28451976       2.24271122       7.52295561       10      -0.00016368       0.00011574       0.00020046
In      10.19690452       2.24271123       7.52295561       10      -0.00016368       0.00011574       0.00020046
In      -1.68627516      10.64538816       7.52295561       10      -0.00016368       0.00011574       0.00020046
In       7.22610960      10.64538816       7.52295561       10      -0.00016368       0.00011574       0.00020046
In      -1.28451976      -2.24271121       7.03090775       11       0.00016368      -0.00011574      -0.00020046
In       7.62786500      -2.24271121       7.03090775       11       0.00016368      -0.00011574      -0.00020046
In      -4.25531468       6.15996572       7.03090775       11       0.00016368      -0.00011574      -0.00020046
In       4.65707008       6.15996572       7.03090775       11       0.00016368      -0.00011574      -0.00020046
In      -4.25531468      -6.44404968      14.30783943       11       0.00016368      -0.00011574      -0.00020046
In       4.65707008      -6.44404967      14.30783943       11       0.00016368      -0.00011574      -0.00020046
In      -7.22610960       1.95862726      14.30783943       11       0.00016368      -0.00011574      -0.00020046
In       1.68627516       1.95862726      14.30783943       11       0.00016368      -0.00011574      -0.00020046
In       4.25531468       2.86691988       1.81923292       12      -0.00016368      -0.00023147       0.00000000
In      13.16769944       2.86691988       1.81923292       12      -0.00016368      -0.00023147       0.00000000
In       1.28451976      11.26959681       1.81923292       12      -0.00016368      -0.00023147       0.00000000
In      10.19690452      11.26959681       1.81923292       12      -0.00016368      -0.00023147       0.00000000
In       1.28451976      -1.33441859       9.09616460       12      -0.00016368      -0.00023147       0.00000000
In      10.19690452      -1.33441858       9.09616460       12      -0.00016368      -0.00023147       0.00000000
In      -1.68627516       7.06825835       9.09616460       12      -0.00016368      -0.00023147       0.00000000
In       7.22610960       7.06825835       9.09616460       12      -0.00016368      -0.00023147       0.00000000
In       1.68627516       5.10963110       2.06525685       13       0.00016368      -0.00011574       0.00020046
In      10.59865992       5.10963110       2.06525685       13       0.00016368      -0.00011574       0.00020046
In      -1.28451976      13.51230803       2.06525685       13       0.00016368      -0.00011574       0.00020046
In       7.62786500      13.51230803       2.06525685       13       0.00016368      -0.00011574       0.00020046
In      -1.28451976       0.90829263       9.34218853       13       0.00016368      -0.00011574       0.00020046
In       7.62786500       0.90829264       9.34218853       13       0.00016368      -0.00011574       0.00020046
In      -4.25531468       9.31096957       9.34218853       13       0.00016368      -0.00011574       0.00020046
In       4.65707008       9.31096957       9.34218853       13       0.00016368      -0.00011574       0.00020046
In       1.48539746       8.40267693      -0.00000000       14      -0.00000000      -0.00000000       0.00000000
In      10.39778222       8.40267693      -0.00000000       14      -0.00000000      -0.00000000       0.00000000
In       4.45619238       0.00000000       0.00000000       14      -0.00000000      -0.00000000       0.00000000
In      13.36857714       0.00000000      -0.00000000       14      -0.00000000      -0.00000000       0.00000000
In      -1.48539746       4.20133847       7.27693168       14      -0.00000000      -0.00000000       0.00000000
In       7.42698730       4.20133847       7.27693168       14      -0.00000000      -0.00000000       0.00000000
In       1.48539746      -4.20133847       7.27693168       14      -0.00000000      -0.00000000       0.00000000
In      10.39778222      -4.20133846       7.27693168       14      -0.00000000      -0.00000000       0.00000000
In       1.48539746       2.10066924       3.63846584       15       0.00000000      -0.00000000      -0.00000000
In      10.39778222       2.10066924       3.63846584       15       0.00000000      -0.00000000      -0.00000000
In      -1.48539746      10.50334617       3.63846584       15       0.00000000      -0.00000000      -0.00000000
In       7.42698730      10.50334617       3.63846584       15       0.00000000      -0.00000000      -0.00000000
In      -1.48539746      -2.10066923      10.91539752       15       0.00000000      -0.00000000      -0.00000000
In       7.42698730      -2.10066922      10.91539752       15       0.00000000      -0.00000000      -0.00000000
In      -4.45619238       6.30200771      10.91539752       15       0.00000000      -0.00000000      -0.00000000
In       4.45619238       6.30200771      10.91539752       15       0.00000000      -0.00000000      -0.00000000
O        0.87534313       4.20169010       3.95988400       16      -0.00018322      -0.00368558       0.00077577
O        9.78772789       4.20169010       3.95988400       16      -0.00018322      -0.00368558       0.00077577
O       -2.09545179      12.60436703       3.95988400       16      -0.00018322      -0.00368558       0.00077577
O        6.81693297      12.60436703       3.95988400       16      -0.00018322      -0.00368558       0.00077577
O       -2.09545179       0.00035163      11.23681568       16      -0.00018322      -0.00368558       0.00077577
O        6.81693297       0.00035164      11.23681568       16      -0.00018322      -0.00368558       0.00077577
O       -5.06624671       8.40302857      11.23681568       16      -0.00018322      -0.00368558       0.00077577
O        3.84613805       8.40302857      11.23681568       16      -0.00018322      -0.00368558       0.00077577
O       -2.09545179       3.42918432       5.29668516       17      -0.00018322       0.00251463       0.00280393
O        6.81693297       3.42918432       5.29668516       17      -0.00018322       0.00251463       0.00280393
O       -5.06624671      11.83186125       5.29668516       17      -0.00018322       0.00251463       0.00280393
O        3.84613805      11.83186125       5.29668516       17      -0.00018322       0.00251463       0.00280393
O       -5.06624671      -0.77215415      12.57361684       17      -0.00018322       0.00251463       0.00280393
O        3.84613805      -0.77215414      12.57361684       17      -0.00018322       0.00251463       0.00280393
O       -8.03704163       7.63052279      12.57361684       17      -0.00018322       0.00251463       0.00280393
O        0.87534313       7.63052279      12.57361684       17      -0.00018322       0.00251463       0.00280393
O       -0.43588134       2.25569081       0.05230387       18      -0.00116506       0.00320889       0.00160142
O        8.47650342       2.25569081       0.05230387       18      -0.00116506       0.00320889       0.00160142
O       -3.40667626      10.65836774       0.05230387       18      -0.00116506       0.00320889       0.00160142
O        5.50570850      10.65836774       0.05230387       18      -0.00116506       0.00320889       0.00160142
O       -3.40667626      -1.94564766       7.32923555       18      -0.00116506       0.00320889       0.00160142
O        5.50570850      -1.94564765       7.32923555       18      -0.00116506       0.00320889       0.00160142
O       -6.37747118       6.45702928       7.32923555       18      -0.00116506       0.00320889       0.00160142
O        2.53491358       6.45702928       7.32923555       18      -0.00116506       0.00320889       0.00160142
O       -0.87534313      -0.77180251       1.97963747       19       0.00018322      -0.00117096       0.00357969
O        8.03704163      -0.77180251       1.97963747       19       0.00018322      -0.00117096       0.00357969
O       -3.84613805       7.63087442       1.97963747       19       0.00018322      -0.00117096       0.00357969
O        5.06624671       7.63087442       1.97963747       19       0.00018322      -0.00117096       0.00357969
O       -3.84613805      -4.97314098       9.25656915       19       0.00018322      -0.00117096       0.00357969
O        5.06624671      -4.97314097       9.25656915       19       0.00018322      -0.00117096       0.00357969
O       -6.81693297       3.42953596       9.25656915       19       0.00018322      -0.00117096       0.00357969
O        2.09545179       3.42953596       9.25656915       19       0.00018322      -0.00117096       0.00357969
O        3.93154991       5.00333863       1.92733360       20       0.00243189       0.00209554       0.00197827
O       12.84393467       5.00333863       1.92733360       20       0.00243189       0.00209554       0.00197827
O        0.96075499      13.40601556       1.92733360       20       0.00243189       0.00209554       0.00197827
O        9.87313975      13.40601556       1.92733360       20       0.00243189       0.00209554       0.00197827
O        0.96075499       0.80200016       9.20426528       20       0.00243189       0.00209554       0.00197827
O        9.87313975       0.80200017       9.20426528       20       0.00243189       0.00209554       0.00197827
O       -2.01003993       9.20467710       9.20426528       20       0.00243189       0.00209554       0.00197827
O        6.90234483       9.20467710       9.20426528       20       0.00243189       0.00209554       0.00197827
O        2.01003992       2.93321869       1.65821931       21      -0.00243189      -0.00066546       0.00280393
O       10.92242468       2.93321869       1.65821931       21      -0.00243189      -0.00066546       0.00280393
O       -0.96075500      11.33589562       1.65821931       21      -0.00243189      -0.00066546       0.00280393
O        7.95162976      11.33589562       1.65821931       21      -0.00243189      -0.00066546       0.00280393
O       -0.96075500      -1.26811978       8.93515099       21      -0.00243189      -0.00066546       0.00280393
O        7.95162976      -1.26811977       8.93515099       21      -0.00243189      -0.00066546       0.00280393
O       -3.93154992       7.13455716       8.93515099       21      -0.00243189      -0.00066546       0.00280393
O        4.98083484       7.13455716       8.93515099       21      -0.00243189      -0.00066546       0.00280393
O        2.01003992       6.27145841       0.26911428       22      -0.00243189       0.00276100      -0.00082566
O       10.92242468       6.27145841       0.26911428       22      -0.00243189       0.00276100      -0.00082566
O       -0.96075500      14.67413534       0.26911428       22      -0.00243189       0.00276100      -0.00082566
O        7.95162976      14.67413534       0.26911428       22      -0.00243189       0.00276100      -0.00082566
O       -0.96075500       2.07011994       7.54604596       22      -0.00243189       0.00276100      -0.00082566
O        7.95162976       2.07011995       7.54604596       22      -0.00243189       0.00276100      -0.00082566
O       -3.93154992      10.47279688       7.54604596       22      -0.00243189       0.00276100      -0.00082566
O        4.98083484      10.47279688       7.54604596       22      -0.00243189       0.00276100      -0.00082566
O       -2.27197947       5.96106363       3.69076971       23      -0.00341373       0.00002880       0.00160142
O        6.64040529       5.96106363       3.69076971       23      -0.00341373       0.00002880       0.00160142
O       -5.24277439      14.36374056       3.69076971       23      -0.00341373       0.00002880       0.00160142
O        3.66961037      14.36374056       3.69076971       23      -0.00341373       0.00002880       0.00160142
O       -5.24277439       1.75972516      10.96770139       23      -0.00341373       0.00002880       0.00160142
O        3.66961037       1.75972517      10.96770139       23      -0.00341373       0.00002880       0.00160142
O       -8.21356931      10.16240210      10.96770139       23      -0.00341373       0.00002880       0.00160142
O        0.69881545      10.16240210      10.96770139       23      -0.00341373       0.00002880       0.00160142
O        3.40667626       1.94564766       7.22462781       24       0.00116506      -0.00320889      -0.00160142
O       12.31906102       1.94564766       7.22462781       24       0.00116506      -0.00320889      -0.00160142
O        0.43588134      10.34832459       7.22462781       24       0.00116506      -0.00320889      -0.00160142
O        9.34826610      10.34832459       7.22462781       24       0.00116506      -0.00320889      -0.00160142
O        0.43588134      -2.25569081      14.50155949       24       0.00116506      -0.00320889      -0.00160142
O        9.34826610      -2.25569080      14.50155949       24       0.00116506      -0.00320889      -0.00160142
O       -2.53491358       6.14698613      14.50155949       24       0.00116506      -0.00320889      -0.00160142
O        6.37747118       6.14698613      14.50155949       24       0.00116506      -0.00320889      -0.00160142
O        5.24277438      -1.75972516       3.58616197       25       0.00341373      -0.00002880      -0.00160142
O       14.15515914      -1.75972516       3.58616197       25       0.00341373      -0.00002880      -0.00160142
O        2.27197946       6.64295177       3.58616197       25       0.00341373      -0.00002880      -0.00160142
O       11.18436422       6.64295177       3.58616197       25       0.00341373      -0.00002880      -0.00160142
O        2.27197946      -5.96106363      10.86309365       25       0.00341373      -0.00002880      -0.00160142
O       11.18436422      -5.96106362      10.86309365       25       0.00341373      -0.00002880      -0.00160142
O       -0.69881546       2.44161331      10.86309365       25       0.00341373      -0.00002880      -0.00160142
O        8.21356930       2.44161331      10.86309365       25       0.00341373      -0.00002880      -0.00160142
O        6.37747118       3.27381112       1.71113223       26       0.00116506       0.00299132      -0.00197827
O       15.28985594       3.27381112       1.71113223       26       0.00116506       0.00299132      -0.00197827
O        3.40667626      11.67648805       1.71113223       26       0.00116506       0.00299132      -0.00197827
O       12.31906102      11.67648805       1.71113223       26       0.00116506       0.00299132      -0.00197827
O        3.40667626      -0.92752735       8.98806391       26       0.00116506       0.00299132      -0.00197827
O       12.31906102      -0.92752734       8.98806391       26       0.00116506       0.00299132      -0.00197827
O        0.43588134       7.47514959       8.98806391       26       0.00116506       0.00299132      -0.00197827
O        9.34826610       7.47514959       8.98806391       26       0.00116506       0.00299132      -0.00197827
O        3.66961037       2.31643775       3.90758013       27      -0.00341373       0.00137247      -0.00082566
O       12.58199513       2.31643775       3.90758013       27      -0.00341373       0.00137247      -0.00082566
O        0.69881545      10.71911468       3.90758013       27      -0.00341373       0.00137247      -0.00082566
O        9.61120021      10.71911468       3.90758013       27      -0.00341373       0.00137247      -0.00082566
O        0.69881545      -1.88490072      11.18451181       27      -0.00341373       0.00137247      -0.00082566
O        9.61120021      -1.88490071      11.18451181       27      -0.00341373       0.00137247      -0.00082566
O       -2.27197947       6.51777622      11.18451181       27      -0.00341373       0.00137247      -0.00082566
O        6.64040529       6.51777622      11.18451181       27      -0.00341373       0.00137247      -0.00082566
O        0.69881545       4.32651402       6.95551352       28      -0.00341373      -0.00140127      -0.00077577
O        9.61120021       4.32651402       6.95551352       28      -0.00341373      -0.00140127      -0.00077577
O       -2.27197947      12.72919095       6.95551352       28      -0.00341373      -0.00140127      -0.00077577
O        6.64040529      12.72919095       6.95551352       28      -0.00341373      -0.00140127      -0.00077577
O       -2.27197947       0.12517555      14.23244520       28      -0.00341373      -0.00140127      -0.00077577
O        6.64040529       0.12517556      14.23244520       28      -0.00341373      -0.00140127      -0.00077577
O       -5.24277439       8.52785249      14.23244520       28      -0.00341373      -0.00140127      -0.00077577
O        3.66961037       8.52785249      14.23244520       28      -0.00341373      -0.00140127      -0.00077577
O        2.27197946      -0.12517555       0.32141816       29       0.00341373       0.00140127       0.00077577
O       11.18436422      -0.12517555       0.32141816       29       0.00341373       0.00140127       0.00077577
O       -0.69881546       8.27750138       0.32141816       29       0.00341373       0.00140127       0.00077577
O        8.21356930       8.27750138       0.32141816       29       0.00341373       0.00140127       0.00077577
O       -0.69881546      -4.32651402       7.59834984       29       0.00341373       0.00140127       0.00077577
O        8.21356930      -4.32651401       7.59834984       29       0.00341373       0.00140127       0.00077577
O       -3.66961038       4.07616292       7.59834984       29       0.00341373       0.00140127       0.00077577
O        5.24277438       4.07616292       7.59834984       29       0.00341373       0.00140127       0.00077577
O       -3.40667626       0.92752735       5.56579944       30      -0.00116506      -0.00299132       0.00197827
O        5.50570850       0.92752735       5.56579944       30      -0.00116506      -0.00299132       0.00197827
O       -6.37747118       9.33020428       5.56579944       30      -0.00116506      -0.00299132       0.00197827
O        2.53491358       9.33020428       5.56579944       30      -0.00116506      -0.00299132       0.00197827
O       -6.37747118      -3.27381112      12.84273112       30      -0.00116506      -0.00299132       0.00197827
O        2.53491358      -3.27381111      12.84273112       30      -0.00116506      -0.00299132       0.00197827
O       -9.34826610       5.12886582      12.84273112       30      -0.00116506      -0.00299132       0.00197827
O       -0.43588134       5.12886582      12.84273112       30      -0.00116506      -0.00299132       0.00197827
O        5.06624671       0.77215415       1.98024652       31       0.00018322      -0.00251463      -0.00280393
O       13.97863147       0.77215415       1.98024652       31       0.00018322      -0.00251463      -0.00280393