10
Lattice="6.146279557698532 0.08420721808970578 0.05814390081346233 3.4429955180028378 5.092114012860831 0.058143900813466105 3.4429955180028395 1.8585399477240552 4.741184988575039" Properties=species:S:1:pos:R:3:spacegroup_kinds:I:1:forces:R:3 spacegroup="P 1" unit_cell=conventional occupancy="_JSON {\"0\": {\"In\": 1}, \"1\": {\"In\": 1}, \"2\": {\"In\": 1}, \"3\": {\"In\": 1}, \"4\": {\"O\": 1}, \"5\": {\"O\": 1}, \"6\": {\"O\": 1}, \"7\": {\"O\": 1}, \"8\": {\"O\": 1}, \"9\": {\"O\": 1}}" n_minim_iter=1 energy=-11287.169353766452 stress="0.06980702945025201 -0.00013608676474401074 -9.396599931563218e-05 -0.00013608676474401074 0.06998567379340477 -5.0723145245932817e-05 -9.396599931563218e-05 -5.0723145245932817e-05 0.07002411024397628" free_energy=-11287.169353766452 pbc="T T T"
In      11.11321967       5.99895138       4.14219163        0      -0.05010525      -0.02704697      -0.01867556
In       8.43518624       4.55334040       3.14401756        1       0.05010525       0.02704697       0.01867556
In       4.59708437       2.48152079       1.71345523        2      -0.05010525      -0.02704697      -0.01867556
In       1.91905094       1.03590981       0.71528117        3       0.05010525       0.02704697       0.01867556
O        6.33120743       2.44485588       0.31071013        4      -0.00000000       0.00600052      -0.00869029
O        7.51428707       5.34431004       1.27251210        5      -0.00501647       0.00929314      -0.00000000
O        8.59112331       2.37669173       2.68130263        6       0.00501647      -0.00329262      -0.00869029
O        4.44114729       4.65816946       2.17617017        7      -0.00501647       0.00329262       0.00869029
O        6.70106317       4.59000531       4.54676266        8       0.00000000      -0.00600052       0.00869029
O        5.51798353       1.69055115       3.58496069        9       0.00501647      -0.00929314      -0.00000000
10
Lattice="6.154909324188446 0.09290844013200793 0.0641519723643428 3.455005124408226 5.094553990050803 0.06415197236434657 3.455005124408228 1.8650227715163454 4.741337985719459" Properties=species:S:1:pos:R:3:spacegroup_kinds:I:1:forces:R:3 spacegroup="P 1" unit_cell=conventional occupancy="_JSON {\"0\": {\"In\": 1}, \"1\": {\"In\": 1}, \"2\": {\"In\": 1}, \"3\": {\"In\": 1}, \"4\": {\"O\": 1}, \"5\": {\"O\": 1}, \"6\": {\"O\": 1}, \"7\": {\"O\": 1}, \"8\": {\"O\": 1}, \"9\": {\"O\": 1}}" n_minim_iter=2 energy=-11287.170034841312 stress="0.06999428139342277 0.0004977275992078033 0.00034367391300766796 0.0004977275992078033 0.06934090249859812 0.0001855162726357282 0.00034367391300766796 0.0001855162726357282 0.06920032393558158" free_energy=-11287.170034841312 pbc="T T T"
In      11.13747305       6.01204343       4.15123151        0      -0.03293554      -0.01777871      -0.01227595
In       8.45990632       4.56668438       3.15323139        1       0.03293554       0.01777871       0.01227595
In       4.60501326       2.48580083       1.71641054        2      -0.03293554      -0.01777871      -0.01227595
In       1.92744654       1.04044178       0.71841043        3       0.03293554       0.01777871       0.01227595
O        6.34368456       2.45323535       0.31730266        4       0.00000000      -0.00728350       0.01054836
O        7.53308430       5.35370255       1.28156246        5       0.00608904      -0.01128011      -0.00000000
O        8.60928994       2.38889671       2.68797165        6      -0.00608904       0.00399661       0.01054836
O        4.45562964       4.66358851       2.18167028        7       0.00608904      -0.00399661      -0.01054836
O        6.72123502       4.59924987       4.55233927        8       0.00000000       0.00728350      -0.01054836
O        5.53183528       1.69878266       3.58807948        9      -0.00608904       0.01128011      -0.00000000
10
Lattice="6.152789843482068 0.0907731811769234 0.06267760606045614 3.452057031910877 5.093953756848578 0.06267760606045991 3.4520570319108783 1.8634313817956047 4.741299067191664" Properties=species:S:1:pos:R:3:spacegroup_kinds:I:1:forces:R:3 spacegroup="P 1" unit_cell=conventional occupancy="_JSON {\"0\": {\"In\": 1}, \"1\": {\"In\": 1}, \"2\": {\"In\": 1}, \"3\": {\"In\": 1}, \"4\": {\"O\": 1}, \"5\": {\"O\": 1}, \"6\": {\"O\": 1}, \"7\": {\"O\": 1}, \"8\": {\"O\": 1}, \"9\": {\"O\": 1}}" n_minim_iter=3 energy=-11287.170427519583 stress="0.06948074818614608 0.0001821307867880593 0.00012575874926761904 0.0001821307867880593 0.06924166075687418 6.788497239061545e-05 0.00012575874926761904 6.788497239061545e-05 0.06919021959891043" free_energy=-11287.170427519583 pbc="T T T"
In      11.12802601       6.00694389       4.14771034        0      -0.01146324      -0.00618790      -0.00427266
In       8.45732986       4.56529360       3.15227108        1       0.01146324       0.00618790       0.00427266
In       4.59957406       2.48286473       1.71438321        2      -0.01146324      -0.00618790      -0.00427266
In       1.92887791       1.04121444       0.71894394        3       0.01146324       0.00618790       0.00427266
O        6.34062090       2.45141483       0.31534233        4       0.00000000      -0.00921096       0.01333983
O        7.52827169       5.35176236       1.27934118        5       0.00770041      -0.01426522      -0.00000000
O        8.60502715       2.38577122       2.68599186        6      -0.00770041       0.00505426       0.01333983
O        4.45187677       4.66238711       2.18066242        7       0.00770041      -0.00505426      -0.01333983
O        6.71628301       4.59674350       4.55131196        8      -0.00000000       0.00921096      -0.01333983
O        5.52863223       1.69639597       3.58731311        9      -0.00770041       0.01426522      -0.00000000
10
Lattice="6.1513078445330125 0.08927946570123305 0.061646216514140095 3.449995073127326 5.093534432651502 0.061646216514143856 3.449995073127328 1.862318329876207 4.741272372562461" Properties=species:S:1:pos:R:3:spacegroup_kinds:I:1:forces:R:3 spacegroup="P 1" unit_cell=conventional occupancy="_JSON {\"0\": {\"In\": 1}, \"1\": {\"In\": 1}, \"2\": {\"In\": 1}, \"3\": {\"In\": 1}, \"4\": {\"O\": 1}, \"5\": {\"O\": 1}, \"6\": {\"O\": 1}, \"7\": {\"O\": 1}, \"8\": {\"O\": 1}, \"9\": {\"O\": 1}}" n_minim_iter=4 energy=-11287.170498715817 stress="0.06919732187943395 -2.376643467395998e-05 -1.6410389724960895e-05 -2.376643467395998e-05 0.06922852064589159 -8.858380449800685e-06 -1.6410389724960895e-05 -8.858380449800685e-06 0.06923523325565245" free_energy=-11287.170498715817 pbc="T T T"
In      11.12208559       6.00373723       4.14549619        0      -0.00167108      -0.00090205      -0.00062285
In       8.45486141       4.56396112       3.15135102        1       0.00167108       0.00090205       0.00062285
In       4.59643660       2.48117112       1.71321379        2      -0.00167108      -0.00090205      -0.00062285
In       1.92921241       1.04139501       0.71906862        3       0.00167108       0.00090205       0.00062285
O        6.33847843       2.44995933       0.31423493        4      -0.00000000      -0.00791457       0.01146232
O        7.52505821       5.35012346       1.27778742        5       0.00661662      -0.01225746      -0.00000000
O        8.60189371       2.38368505       2.68487112        6      -0.00661662       0.00434290       0.01146232
O        4.44940429       4.66144719       2.17969369        7       0.00661662      -0.00434290      -0.01146232
O        6.71281958       4.59517291       4.55032988        8       0.00000000       0.00791457      -0.01146232
O        5.52623979       1.69500878       3.58677739        9      -0.00661662       0.01225746      -0.00000000
10
Lattice="6.151397864211407 0.08937021314256581 0.06170887634719985 3.4501203342047972 5.093559894447931 0.061708876347203616 3.4501203342048 1.8623859462048256 4.741273981866814" Properties=species:S:1:pos:R:3:spacegroup_kinds:I:1:forces:R:3 spacegroup="P 1" unit_cell=conventional occupancy="_JSON {\"0\": {\"In\": 1}, \"1\": {\"In\": 1}, \"2\": {\"In\": 1}, \"3\": {\"In\": 1}, \"4\": {\"O\": 1}, \"5\": {\"O\": 1}, \"6\": {\"O\": 1}, \"7\": {\"O\": 1}, \"8\": {\"O\": 1}, \"9\": {\"O\": 1}}" n_minim_iter=5 energy=-11287.170538290653 stress="0.06905494958872631 -0.00011612288381471035 -8.018121977480137e-05 -0.00011612288381471035 0.06920738686999765 -4.3282077199214696e-05 -8.018121977480137e-05 -4.3282077199214696e-05 0.06924018470561796" free_energy=-11287.170538290653 pbc="T T T"
In      11.12136786       6.00334980       4.14522867        0       0.00462714       0.00249774       0.00172466
In       8.45608995       4.56462430       3.15180893        1      -0.00462714      -0.00249774      -0.00172466
In       4.59554859       2.48069177       1.71288281        2       0.00462714       0.00249774       0.00172466
In       1.93027069       1.04196627       0.71946306        3      -0.00462714      -0.00249774      -0.00172466
O        6.33860857       2.44957124       0.31499232        4       0.00000000      -0.00291248       0.00421801
O        7.52565178       5.34948503       1.27788181        5       0.00243485      -0.00451062      -0.00000000
O        8.60168569       2.38407325       2.68562931        6      -0.00243485       0.00159814       0.00421801
O        4.44995285       4.66124281       2.17906243        7       0.00243485      -0.00159814      -0.00421801
O        6.71302997       4.59574483       4.54969942        8       0.00000000       0.00291248      -0.00421801
O        5.52598676       1.69583104       3.58680993        9      -0.00243485       0.00451062       0.00000000
