10
Lattice="5.820369676589331 -0.004543047280911568 -0.0031369103086963937 3.1899659821465596 4.868350936835476 -0.0031369103086950722 3.189965982146558 1.721953798284121 4.553649723130676" Properties=species:S:1:pos:R:3:spacegroup_kinds:I:1:forces:R:3 spacegroup="P 1" unit_cell=conventional occupancy="_JSON {\"0\": {\"In\": 1}, \"1\": {\"In\": 1}, \"2\": {\"In\": 1}, \"3\": {\"In\": 1}, \"4\": {\"O\": 1}, \"5\": {\"O\": 1}, \"6\": {\"O\": 1}, \"7\": {\"O\": 1}, \"8\": {\"O\": 1}, \"9\": {\"O\": 1}}" n_minim_iter=6 energy=-11287.638184051346 stress="-0.02528669703075462 2.6959213732745167e-05 1.8614958471160392e-05 2.6959213732745167e-05 -0.025322087033052405 1.004841440547128e-05 1.8614958471160392e-05 1.004841440547128e-05 -0.025329701414470357" free_energy=-11287.638184051346 pbc="T T T"
In      10.46405768       5.64853167       3.90023174        0      -0.00084779      -0.00045764      -0.00031599
In       7.83639479       4.23011087       2.92083212        1       0.00084779       0.00045764       0.00031599
In       4.36390686       2.35565083       1.62654379        2      -0.00084779      -0.00045764      -0.00031599
In       1.73624397       0.93723003       0.64714416        3       0.00084779       0.00045764       0.00031599
O        5.96026025       2.28970147       0.20037949        4       0.00000000       0.00036319      -0.00052599
O        7.01557480       5.07809477       1.13370707        5      -0.00030363       0.00056247      -0.00000000
O        8.09491169       2.15092798       2.47720436        6       0.00030363      -0.00019929      -0.00052599
O        4.10538996       4.43483372       2.07017155        7      -0.00030363       0.00019929       0.00052599
O        6.24004140       4.29606022       4.34699641        8       0.00000000      -0.00036319       0.00052599
O        5.18472685       1.50766693       3.41366884        9       0.00030363      -0.00056247      -0.00000000
