10
Lattice="5.412664808842035 -0.10119311103994491 -0.06987242121031415 2.885449479405188 4.580541636138595 -0.06987242121032458 2.8854494794051906 1.5575748201162092 4.308155581613201" Properties=species:S:1:pos:R:3:spacegroup_kinds:I:1:forces:R:3 spacegroup="P 1" unit_cell=conventional occupancy="_JSON {\"0\": {\"In\": 1}, \"1\": {\"In\": 1}, \"2\": {\"In\": 1}, \"3\": {\"In\": 1}, \"4\": {\"O\": 1}, \"5\": {\"O\": 1}, \"6\": {\"O\": 1}, \"7\": {\"O\": 1}, \"8\": {\"O\": 1}, \"9\": {\"O\": 1}}" n_minim_iter=1 energy=-11285.025723563118 stress="-0.27145001241485067 0.004053032813471329 0.002798562205471102 0.004053032813471329 -0.2767705252934001 0.0015106727913159828 0.002798562205471102 0.0015106727913159828 -0.2779152669808524" free_energy=-11285.025723563118 pbc="T T T"
In       9.66065161       5.21485052       3.60078100        0       0.21729172       0.11729476       0.08099039
In       7.11469405       3.84053451       2.65183511        1      -0.21729172      -0.11729476      -0.08099039
In       4.06886973       2.19638884       1.51657563        2       0.21729172       0.11729476       0.08099039
In       1.52291216       0.82207284       0.56762974        3      -0.21729172      -0.11729476      -0.08099039
O        5.50222335       2.10586087       0.06981708        4      -0.00000000       0.02025944      -0.02934085
O        6.40386344       4.75127906       0.97223027        5      -0.01693699       0.03137624      -0.00000000
O        7.48603275       1.88227433       2.22389487        6       0.01693699      -0.01111680      -0.02934085
O        3.69753103       4.15464903       1.94451588        7      -0.01693699       0.01111680       0.02934085
O        5.68134043       3.93106248       4.09859367        8       0.00000000      -0.02025944       0.02934085
O        4.77970034       1.28564429       3.19618048        9       0.01693699      -0.03137624       0.00000000
10
Lattice="5.380669831184792 -0.13540666638571294 -0.09349640040864245 2.8392904333644995 4.572567400545201 -0.09349640040865298 2.839290433364502 1.5326580200312598 4.30906876285955" Properties=species:S:1:pos:R:3:spacegroup_kinds:I:1:forces:R:3 spacegroup="P 1" unit_cell=conventional occupancy="_JSON {\"0\": {\"In\": 1}, \"1\": {\"In\": 1}, \"2\": {\"In\": 1}, \"3\": {\"In\": 1}, \"4\": {\"O\": 1}, \"5\": {\"O\": 1}, \"6\": {\"O\": 1}, \"7\": {\"O\": 1}, \"8\": {\"O\": 1}, \"9\": {\"O\": 1}}" n_minim_iter=2 energy=-11285.031243172161 stress="-0.2739526233290555 -0.004145215389734382 -0.002862212978478435 -0.004145215389734382 -0.2685111001806603 -0.0015450316831030508 -0.002862212978478435 -0.0015450316831030508 -0.26734032237868877" free_energy=-11285.031243172161 pbc="T T T"
In       9.55633643       5.15854085       3.56189997        0       0.40571346       0.21900542       0.15122016
In       7.03253963       3.79618729       2.62121398        1      -0.40571346      -0.21900542      -0.15122016
In       4.02671108       2.17363147       1.50086199        2       0.40571346       0.21900542       0.15122016
In       1.50291428       0.81127792       0.56017600        3      -0.40571346      -0.21900542      -0.15122016
O        5.45514759       2.07589645       0.04074641        4      -0.00000000      -0.05506852       0.07975328
O        6.33043227       4.71947768       0.93702259        5       0.04603755      -0.08528581      -0.00000000
O        7.41915335       1.83378284       2.19528079        6      -0.04603755       0.03021730       0.07975328
O        3.64009736       4.13603593       1.92679518        7       0.04603755      -0.03021730      -0.07975328
O        5.60410311       3.89392232       4.08132956        8      -0.00000000       0.05506852      -0.07975328
O        4.72881843       1.25034108       3.18505337        9      -0.04603755       0.08528581       0.00000000
10
Lattice="5.378326933694877 -0.13792659989857214 -0.09523637908923636 2.8358981573491757 4.571991469131461 -0.09523637908924695 2.835898157349176 1.5308268586326401 4.309146677777611" Properties=species:S:1:pos:R:3:spacegroup_kinds:I:1:forces:R:3 spacegroup="P 1" unit_cell=conventional occupancy="_JSON {\"0\": {\"In\": 1}, \"1\": {\"In\": 1}, \"2\": {\"In\": 1}, \"3\": {\"In\": 1}, \"4\": {\"O\": 1}, \"5\": {\"O\": 1}, \"6\": {\"O\": 1}, \"7\": {\"O\": 1}, \"8\": {\"O\": 1}, \"9\": {\"O\": 1}}" n_minim_iter=3 energy=-11285.050150451085 stress="-0.25903967786637305 0.0030906674777620483 0.0021340624622202577 0.0030906674777620483 -0.26309687080630156 0.0011519737143735045 0.0021340624622202577 0.0011519737143735045 -0.2639698012926263" free_energy=-11285.050150451085 pbc="T T T"
In       9.56513620       5.16329099       3.56517988        0       0.01237028       0.00667752       0.00461073
In       7.01004868       3.78404661       2.61283101        1      -0.01237028      -0.00667752      -0.00461073
In       4.04007458       2.18084513       1.50584292        2       0.01237028       0.00667752       0.00461073
In       1.48498705       0.80160074       0.55349405        3      -0.01237028      -0.00667752      -0.00461073
O        5.45169428       2.07276345       0.03995464        4      -0.00000000       0.11766402      -0.17040756
O        6.32581893       4.71570483       0.93443210        5      -0.09836771       0.18222885       0.00000000
O        7.41346779       1.83072742       2.19452798        6       0.09836771      -0.06456482      -0.17040756
O        3.63665547       4.13416432       1.92414595        7      -0.09836771       0.06456482       0.17040756
O        5.59842897       3.89212829       4.07871928        8       0.00000000      -0.11766402       0.17040756
O        4.72430432       1.24918691       3.18424182        9       0.09836771      -0.18222885       0.00000000
10
Lattice="5.3446306188822055 -0.17439599878884154 -0.12041798655599233 2.7869196539942984 4.563832737827609 -0.12041798655600303 2.7869196539942984 1.5043881065085658 4.310439209100253" Properties=species:S:1:pos:R:3:spacegroup_kinds:I:1:forces:R:3 spacegroup="P 1" unit_cell=conventional occupancy="_JSON {\"0\": {\"In\": 1}, \"1\": {\"In\": 1}, \"2\": {\"In\": 1}, \"3\": {\"In\": 1}, \"4\": {\"O\": 1}, \"5\": {\"O\": 1}, \"6\": {\"O\": 1}, \"7\": {\"O\": 1}, \"8\": {\"O\": 1}, \"9\": {\"O\": 1}}" n_minim_iter=4 energy=-11285.058597013829 stress="-0.25103907120032715 -0.0018424611620605296 -0.0012721935405792847 -0.0018424611620605296 -0.24862042847125712 -0.0006867341250750548 -0.0012721935405792847 -0.0006867341250750548 -0.2481000423331354" free_energy=-11285.058597013829 pbc="T T T"
In       9.46587339       5.10970861       3.52818199        0       0.04377322       0.02362892       0.01631544
In       6.91183151       3.73102867       2.57622286        1      -0.04377322      -0.02362892      -0.01631544
In       4.00663843       2.16279619       1.49338038        2       0.04377322       0.02362892       0.01631544
In       1.45259654       0.78411624       0.54142125        3      -0.04377322      -0.02362892      -0.01631544
O        5.40193280       2.04335049       0.00555439        4      -0.00000000       0.04952462      -0.07172430
O        6.24606020       4.68582775       0.89698282        5      -0.04140283       0.07669987      -0.00000000
O        7.34472504       1.77789138       2.16077399        6       0.04140283      -0.02717524      -0.07172430
O        3.57374490       4.11593347       1.90882925        7      -0.04140283       0.02717524       0.07172430
O        5.51653714       3.85047436       4.06404885        8       0.00000000      -0.04952462       0.07172430
O        4.67240973       1.20799711       3.17262042        9       0.04140283      -0.07669987      -0.00000000
10
Lattice="5.350865291676978 -0.1676158074551267 -0.11573635971512156 2.796009028916533 4.565324516263813 -0.1157363597151321 2.796009028916532 1.5092945800443234 4.310175485337962" Properties=species:S:1:pos:R:3:spacegroup_kinds:I:1:forces:R:3 spacegroup="P 1" unit_cell=conventional occupancy="_JSON {\"0\": {\"In\": 1}, \"1\": {\"In\": 1}, \"2\": {\"In\": 1}, \"3\": {\"In\": 1}, \"4\": {\"O\": 1}, \"5\": {\"O\": 1}, \"6\": {\"O\": 1}, \"7\": {\"O\": 1}, \"8\": {\"O\": 1}, \"9\": {\"O\": 1}}" n_minim_iter=5 energy=-11285.061010577461 stress="-0.24793194527492537 0.0003862950534668944 0.00026673130786292664 0.0003862950534668944 -0.24843904401034847 0.00014398240917854065 0.00026673130786292664 0.00014398240917854065 -0.24854814948225265" free_energy=-11285.061010577461 pbc="T T T"
In       9.49152970       5.12355797       3.53774478        0      -0.02527400      -0.01364298      -0.00942029
In       6.92279533       3.73694697       2.58030937        1       0.02527400       0.01364298       0.00942029
In       4.02008803       2.17005633       1.49839340        2      -0.02527400      -0.01364298      -0.00942029
In       1.45135366       0.78344533       0.54095799        3       0.02527400       0.01364298       0.00942029
O        5.41115349       2.05204793       0.00725513        4      -0.00000000       0.01702665      -0.02465893
O        6.25814293       4.69637551       0.90393933        5      -0.01423436       0.02636954      -0.00000000
O        7.36017308       1.78592490       2.16234287        6       0.01423436      -0.00934289      -0.02465893
O        3.58271028       4.12107840       1.91635990        7      -0.01423436       0.00934289       0.02465893
O        5.53172987       3.85495537       4.07144764        8       0.00000000      -0.01702665       0.02465893
O        4.68474043       1.21062779       3.17476344        9       0.01423436      -0.02636954       0.00000000
10
Lattice="5.351742492861819 -0.16666304935603915 -0.11507849363583192 2.7972868788907266 4.565535061644938 -0.11507849363584247 2.7972868788907252 1.5099843675307771 4.310139286452284" Properties=species:S:1:pos:R:3:spacegroup_kinds:I:1:forces:R:3 spacegroup="P 1" unit_cell=conventional occupancy="_JSON {\"0\": {\"In\": 1}, \"1\": {\"In\": 1}, \"2\": {\"In\": 1}, \"3\": {\"In\": 1}, \"4\": {\"O\": 1}, \"5\": {\"O\": 1}, \"6\": {\"O\": 1}, \"7\": {\"O\": 1}, \"8\": {\"O\": 1}, \"9\": {\"O\": 1}}" n_minim_iter=6 energy=-11285.06112360326 stress="-0.24877938414658973 8.051822944512152e-05 5.5596706095885037e-05 8.051822944512152e-05 -0.24888508234879927 3.0011278887036533e-05 5.5596706095885037e-05 3.0011278887036533e-05 -0.24890782397743416" free_energy=-11285.06112360326 pbc="T T T"
In       9.49353495       5.12464041       3.53849219        0      -0.00576128      -0.00310996      -0.00214738
In       6.92593943       3.73864417       2.58148126        1       0.00576128       0.00310996       0.00214738
In       4.02037683       2.17021222       1.49850104        2      -0.00576128      -0.00310996      -0.00214738
In       1.45278131       0.78421598       0.54149011        3       0.00576128       0.00310996       0.00214738
O        5.41245031       2.05313338       0.00769280        4       0.00000000       0.00363490      -0.00526427
O        6.25995679       4.69764623       0.90491708        5      -0.00303880       0.00562945       0.00000000
O        7.36223071       1.78712944       2.16276244        6       0.00303880      -0.00199455      -0.00526427
O        3.58408555       4.12172695       1.91721986        7      -0.00303880       0.00199455       0.00526427
O        5.53386595       3.85572301       4.07228951        8      -0.00000000      -0.00363490       0.00526427
O        4.68635946       1.21121016       3.17506522        9       0.00303880      -0.00562945       0.00000000
