10
Lattice="5.187466473649505 -0.2223398457376554 -0.15352253916853822 2.66059895904758 4.458750565052412 -0.1535225391685582 2.660598959047572 1.4361997930021615 4.223902925727409" Properties=species:S:1:pos:R:3:spacegroup_kinds:I:1:forces:R:3 spacegroup="P 1" unit_cell=conventional occupancy="_JSON {\"0\": {\"In\": 1}, \"1\": {\"In\": 1}, \"2\": {\"In\": 1}, \"3\": {\"In\": 1}, \"4\": {\"O\": 1}, \"5\": {\"O\": 1}, \"6\": {\"O\": 1}, \"7\": {\"O\": 1}, \"8\": {\"O\": 1}, \"9\": {\"O\": 1}}" n_minim_iter=1 energy=-11283.020471060207 stress="-0.38549919663058313 0.0067256961732957594 0.004643998698092044 0.0067256961732957594 -0.3943281784725923 0.002506845290273529 0.004643998698092044 0.002506845290273529 -0.3962277892415237" free_energy=-11283.020471060207 pbc="T T T"
In       9.14578066       4.93692153       3.40887494        0       0.10964012       0.05918409       0.04086578
In       6.61721592       3.57199423       2.46641182        1      -0.10964012      -0.05918409      -0.04086578
In       3.89144846       2.10061628       1.45044602        2       0.10964012       0.05918409       0.04086578
In       1.36288372       0.73568898       0.50798290        3      -0.10964012      -0.05918409      -0.04086578
O        5.22089933       1.96091267      -0.04460441        4       0.00000000      -0.00785965       0.01138278
O        6.00451010       4.54911361       0.82569192        5       0.00657071      -0.01217241       0.00000000
O        7.09788752       1.66625695       2.06734706        6      -0.00657071       0.00431276       0.01138278
O        3.41077686       4.00635357       1.84951079        7       0.00657071      -0.00431276      -0.01138278
O        5.28776505       3.71169784       3.96146225        8      -0.00000000       0.00785965      -0.01138278
O        4.50415428       1.12349691       3.09116592        9      -0.00657071       0.01217241       0.00000000
10
Lattice="5.16554385715933 -0.24672866673586177 -0.170362677356768 2.62818036451486 4.453805827245309 -0.17036267735678803 2.628180364514852 1.418700132409202 4.225245522208454" Properties=species:S:1:pos:R:3:spacegroup_kinds:I:1:forces:R:3 spacegroup="P 1" unit_cell=conventional occupancy="_JSON {\"0\": {\"In\": 1}, \"1\": {\"In\": 1}, \"2\": {\"In\": 1}, \"3\": {\"In\": 1}, \"4\": {\"O\": 1}, \"5\": {\"O\": 1}, \"6\": {\"O\": 1}, \"7\": {\"O\": 1}, \"8\": {\"O\": 1}, \"9\": {\"O\": 1}}" n_minim_iter=2 energy=-11283.028846201029 stress="-0.3857924185836148 0.00016371816311120825 0.00011304509215502406 0.00016371816311120825 -0.38600733532448345 6.102209983357004e-05 0.00011304509215502406 6.102209983357004e-05 -0.38605357600728546" free_energy=-11283.028846201029 pbc="T T T"
In       9.07101191       4.89656113       3.38100665        0       0.30231411       0.16319012       0.11268049
In       6.56184496       3.54210481       2.44577360        1      -0.30231411      -0.16319012      -0.11268049
In       3.86005961       2.08367248       1.43874657        2       0.30231411       0.16319012       0.11268049
In       1.35089267       0.72921617       0.50351351        3      -0.30231411      -0.16319012      -0.11268049
O        5.18824807       1.93967257      -0.06496505        4      -0.00000000      -0.11632593       0.16846966
O        5.95342358       4.52686218       0.80076736        5       0.09724906      -0.18015651      -0.00000000
O        7.05125292       1.63214336       2.04765771        6      -0.09724906       0.06383058       0.16846966
O        3.37065165       3.99363393       1.83686245        7       0.09724906      -0.06383058      -0.16846966
O        5.23365650       3.68610472       3.94948521        8       0.00000000       0.11632593      -0.16846966
O        4.46848099       1.09891511       3.08375280        9      -0.09724906       0.18015651      -0.00000000
10
Lattice="5.131267794537279 -0.2852829029475467 -0.19698383569788563 2.577140806477082 4.446306419665692 -0.1969838356979057 2.5771408064770736 1.3911488164021402 4.227664648444759" Properties=species:S:1:pos:R:3:spacegroup_kinds:I:1:forces:R:3 spacegroup="P 1" unit_cell=conventional occupancy="_JSON {\"0\": {\"In\": 1}, \"1\": {\"In\": 1}, \"2\": {\"In\": 1}, \"3\": {\"In\": 1}, \"4\": {\"O\": 1}, \"5\": {\"O\": 1}, \"6\": {\"O\": 1}, \"7\": {\"O\": 1}, \"8\": {\"O\": 1}, \"9\": {\"O\": 1}}" n_minim_iter=3 energy=-11283.042224374647 stress="-0.3770739920621308 -0.005139118977853597 -0.003548489439883074 -0.005139118977853597 -0.37032774795858564 -0.0019154859010508973 -0.003548489439883074 -0.0019154859010508973 -0.3688762512658772" free_energy=-11283.042224374647 pbc="T T T"
In       8.96307591       4.83829693       3.34077604        0       0.19090515       0.10305121       0.07115541
In       6.46524819       3.48996157       2.40976942        1      -0.19090515      -0.10305121      -0.07115541
In       3.82030121       2.06221076       1.42392755        2       0.19090515       0.10305121       0.07115541
In       1.32247348       0.71387540       0.49292093        3      -0.19090515      -0.10305121      -0.07115541
O        5.13702124       1.90236114      -0.09151283        4       0.00000000      -0.03896136       0.05642600
O        5.87637022       4.48600239       0.76144041        5       0.03257189      -0.06034031       0.00000000
O        6.97481307       1.58048800       2.02231949        6      -0.03257189       0.02137895       0.05642600
O        3.31073632       3.97168433       1.81137748        7       0.03257189      -0.02137895      -0.05642600
O        5.14852815       3.64981119       3.92520981        8      -0.00000000       0.03896136      -0.05642600
O        4.40917918       1.06616994       3.07225657        9      -0.03257189       0.06034031       0.00000000
10
Lattice="5.140622432493392 -0.27470834149915024 -0.18968224961121002 2.591114286774566 4.448324450758543 -0.1896822496112301 2.5911142867745585 1.3986917455769872 4.2269647710725815" Properties=species:S:1:pos:R:3:spacegroup_kinds:I:1:forces:R:3 spacegroup="P 1" unit_cell=conventional occupancy="_JSON {\"0\": {\"In\": 1}, \"1\": {\"In\": 1}, \"2\": {\"In\": 1}, \"3\": {\"In\": 1}, \"4\": {\"O\": 1}, \"5\": {\"O\": 1}, \"6\": {\"O\": 1}, \"7\": {\"O\": 1}, \"8\": {\"O\": 1}, \"9\": {\"O\": 1}}" n_minim_iter=4 energy=-11283.046176222959 stress="-0.3748082167303153 -5.6983437282933984e-05 -3.934626330237347e-05 -5.6983437282933984e-05 -0.3747334132115892 -2.1239239956410967e-05 -3.934626330237347e-05 -2.1239239956410967e-05 -0.3747173187651683" free_energy=-11283.046176222959 pbc="T T T"
In       8.99750536       4.85688206       3.35360881        0       0.06170261       0.03330727       0.02299820
In       6.48677114       3.50157973       2.41779160        1      -0.06170261      -0.03330727      -0.02299820
In       3.83607986       2.07072813       1.42980867        2       0.06170261       0.03330727       0.02299820
In       1.32534564       0.71542580       0.49399146        3      -0.06170261      -0.03330727      -0.02299820
O        5.15102396       1.91138514      -0.08250759        4       0.00000000       0.03103494      -0.04494652
O        5.89844411       4.49532362       0.77221782        5      -0.02594536       0.04806449       0.00000000
O        6.99471810       1.59529241       2.03097479        6       0.02594536      -0.01702955      -0.04494652
O        3.32813290       3.97701544       1.81662547        7      -0.02594536       0.01702955       0.04494652
O        5.17182703       3.66092271       3.93010786        8      -0.00000000      -0.03103494       0.04494652
O        4.42440688       1.07698424       3.07538245        9       0.02594536      -0.04806449       0.00000000
10
Lattice="5.139243870514438 -0.2762641786119546 -0.19075653327502184 2.589057152117837 4.448025687883552 -0.19075653327504188 2.58905715211783 1.3975812977366147 4.227066014539622" Properties=species:S:1:pos:R:3:spacegroup_kinds:I:1:forces:R:3 spacegroup="P 1" unit_cell=conventional occupancy="_JSON {\"0\": {\"In\": 1}, \"1\": {\"In\": 1}, \"2\": {\"In\": 1}, \"3\": {\"In\": 1}, \"4\": {\"O\": 1}, \"5\": {\"O\": 1}, \"6\": {\"O\": 1}, \"7\": {\"O\": 1}, \"8\": {\"O\": 1}, \"9\": {\"O\": 1}}" n_minim_iter=5 energy=-11283.047212904374 stress="-0.3733416304683138 0.0006882892930395363 0.0004752540851471699 0.0006882892930395363 -0.37424516424595267 0.0002565436682514594 0.0004752540851471699 0.0002565436682514594 -0.3744395652000448" free_energy=-11283.047212904374 pbc="T T T"
In       8.99742217       4.85683715       3.35357780        0      -0.02393731      -0.01292143      -0.00892207
In       6.47861508       3.49717706       2.41475162        1       0.02393731       0.01292143       0.00892207
In       3.83874308       2.07216575       1.43080133        2      -0.02393731      -0.01292143      -0.00892207
In       1.31993599       0.71250566       0.49197514        3       0.02393731       0.01292143       0.00892207
O        5.14896147       1.91077769      -0.08487698        4       0.00000000       0.03971534      -0.05751796
O        5.89459085       4.49506707       0.77063170        5      -0.03320222       0.06150801      -0.00000000
O        6.99238925       1.59271772       2.02865603        6       0.03320222      -0.02179267      -0.05751796
O        3.32496891       3.97662508       1.81689692        7      -0.03320222       0.02179267       0.05751796
O        5.16839669       3.65856512       3.93042993        8      -0.00000000      -0.03971534       0.05751796
O        4.42276732       1.07427573       3.07492124        9       0.03320222      -0.06150801       0.00000000
10
Lattice="5.139969933887548 -0.27544464039304384 -0.190190653650992 2.5901406969889966 4.448182981959112 -0.19019065365101206 2.5901406969889904 1.3981661987095246 4.2270126101672565" Properties=species:S:1:pos:R:3:spacegroup_kinds:I:1:forces:R:3 spacegroup="P 1" unit_cell=conventional occupancy="_JSON {\"0\": {\"In\": 1}, \"1\": {\"In\": 1}, \"2\": {\"In\": 1}, \"3\": {\"In\": 1}, \"4\": {\"O\": 1}, \"5\": {\"O\": 1}, \"6\": {\"O\": 1}, \"7\": {\"O\": 1}, \"8\": {\"O\": 1}, \"9\": {\"O\": 1}}" n_minim_iter=6 energy=-11283.047573635622 stress="-0.3740580824584226 0.0003196870205182874 0.00022073939503727748 0.0003196870205182874 -0.3744777432374212 0.00011915582924998515 0.00022073939503727748 0.00011915582924998515 -0.374568035885038" free_energy=-11283.047573635622 pbc="T T T"
In       9.00009901       4.85828211       3.35457553        0      -0.00915012      -0.00493926      -0.00341049
In       6.48027797       3.49807470       2.41537142        1       0.00915012       0.00493926       0.00341049
In       3.83997334       2.07282984       1.43125988        2      -0.00915012      -0.00493926      -0.00341049
In       1.32015231       0.71262242       0.49205577        3       0.00915012       0.00493926       0.00341049
O        5.15004779       1.91230752      -0.08538113        4      -0.00000000       0.01445779      -0.02093857
O        5.89560897       4.49707591       0.77146717        5      -0.01208678       0.02239109      -0.00000000
O        6.99462731       1.59341001       2.02812517        6       0.01208678      -0.00793330      -0.02093857
O        3.32562400       3.97749453       1.81850613        7      -0.01208678       0.00793330       0.02093857
O        5.17020352       3.65859702       3.93201243        8       0.00000000      -0.01445779       0.02093857
O        4.42464234       1.07382863       3.07516413        9       0.01208678      -0.02239109       0.00000000
10
Lattice="5.139998876852955 -0.2754119762023048 -0.19016809948628302 2.590183886052706 4.448189254867455 -0.19016809948630312 2.5901838860526993 1.398189512303687 4.227010485066779" Properties=species:S:1:pos:R:3:spacegroup_kinds:I:1:forces:R:3 spacegroup="P 1" unit_cell=conventional occupancy="_JSON {\"0\": {\"In\": 1}, \"1\": {\"In\": 1}, \"2\": {\"In\": 1}, \"3\": {\"In\": 1}, \"4\": {\"O\": 1}, \"5\": {\"O\": 1}, \"6\": {\"O\": 1}, \"7\": {\"O\": 1}, \"8\": {\"O\": 1}, \"9\": {\"O\": 1}}" n_minim_iter=7 energy=-11283.047626981432 stress="-0.37444962613396926 -3.940956935433517e-06 -2.721176559330175e-06 -3.940956935433517e-06 -0.3744444527464806 -1.4688993242381193e-06 -2.721176559330175e-06 -1.4688993242381193e-06 -0.374443339657885" free_energy=-11283.047626981432 pbc="T T T"
In       9.00032933       4.85840644       3.35466138        0       0.00000024       0.00000013       0.00000009
In       6.48022063       3.49804374       2.41535005        1      -0.00000024      -0.00000013      -0.00000009
In       3.84014600       2.07292305       1.43132423        2       0.00000024       0.00000013       0.00000009
In       1.32003731       0.71256035       0.49201291        3      -0.00000024      -0.00000013      -0.00000009
O        5.15009109       1.91276263      -0.08597205        4      -0.00000000      -0.00003321       0.00004809
O        5.89532005       4.49776639       0.77150047        5       0.00002776      -0.00005143      -0.00000000
O        6.99504603       1.59322133       2.02753319        6      -0.00002776       0.00001822       0.00004809
O        3.32532061       3.97774546       1.81914109        7       0.00002776      -0.00001822      -0.00004809
O        5.17027554       3.65820416       3.93264633        8       0.00000000       0.00003321      -0.00004809
O        4.42504659       1.07320040       3.07517381        9      -0.00002776       0.00005143       0.00000000
