10
Lattice="5.139998876852955 -0.2754119762023048 -0.19016809948628302 2.590183886052706 4.448189254867455 -0.19016809948630312 2.5901838860526993 1.398189512303687 4.227010485066779" Properties=species:S:1:pos:R:3:spacegroup_kinds:I:1:forces:R:3 spacegroup="P 1" unit_cell=conventional occupancy="_JSON {\"0\": {\"In\": 1}, \"1\": {\"In\": 1}, \"2\": {\"In\": 1}, \"3\": {\"In\": 1}, \"4\": {\"O\": 1}, \"5\": {\"O\": 1}, \"6\": {\"O\": 1}, \"7\": {\"O\": 1}, \"8\": {\"O\": 1}, \"9\": {\"O\": 1}}" n_minim_iter=7 energy=-11283.047626981432 stress="-0.37444962613396926 -3.940956935433517e-06 -2.721176559330175e-06 -3.940956935433517e-06 -0.3744444527464806 -1.4688993242381193e-06 -2.721176559330175e-06 -1.4688993242381193e-06 -0.374443339657885" free_energy=-11283.047626981432 pbc="T T T"
In       9.00032933       4.85840644       3.35466138        0       0.00000024       0.00000013       0.00000009
In       6.48022063       3.49804374       2.41535005        1      -0.00000024      -0.00000013      -0.00000009
In       3.84014600       2.07292305       1.43132423        2       0.00000024       0.00000013       0.00000009
In       1.32003731       0.71256035       0.49201291        3      -0.00000024      -0.00000013      -0.00000009
O        5.15009109       1.91276263      -0.08597205        4      -0.00000000      -0.00003321       0.00004809
O        5.89532005       4.49776639       0.77150047        5       0.00002776      -0.00005143      -0.00000000
O        6.99504603       1.59322133       2.02753319        6      -0.00002776       0.00001822       0.00004809
O        3.32532061       3.97774546       1.81914109        7       0.00002776      -0.00001822      -0.00004809
O        5.17027554       3.65820416       3.93264633        8       0.00000000       0.00003321      -0.00004809
O        4.42504659       1.07320040       3.07517381        9      -0.00002776       0.00005143       0.00000000
