10
Lattice="5.570625108506121 -0.04965174875916717 -0.034283834813223946 3.0152145824342598 4.684315362734396 -0.034283834813235714 3.0152145824342633 1.627622436077082 4.3925881897188415" Properties=species:S:1:pos:R:3:spacegroup_kinds:I:1:forces:R:3 spacegroup="P 1" unit_cell=conventional occupancy="_JSON {\"0\": {\"In\": 1}, \"1\": {\"In\": 1}, \"2\": {\"In\": 1}, \"3\": {\"In\": 1}, \"4\": {\"O\": 1}, \"5\": {\"O\": 1}, \"6\": {\"O\": 1}, \"7\": {\"O\": 1}, \"8\": {\"O\": 1}, \"9\": {\"O\": 1}}" n_minim_iter=1 energy=-11286.43974546691 stress="-0.1702610612208781 0.002211734105688572 0.0015271713214836593 0.002211734105688572 -0.17316445735562397 0.0008243719445314584 0.0015271713214836593 0.0008243719445314584 -0.17378914122895053" free_energy=-11286.43974546691 pbc="T T T"
In       9.98258939       5.38863355       3.72077574        0       0.12461072       0.06726526       0.04644572
In       7.41899203       4.00479553       2.76525504        1      -0.12461072      -0.06726526      -0.04644572
In       4.18206225       2.25749053       1.55876548        2       0.12461072       0.06726526       0.04644572
In       1.61846490       0.87365251       0.60324478        3      -0.12461072      -0.06726526      -0.04644572
O        5.68557613       2.18479076       0.13112141        4      -0.00000000       0.04791778      -0.06939719
O        6.65475849       4.88035006       1.04672130        5      -0.04005951       0.07421132       0.00000000
O        7.73160834       2.00115524       2.32741550        6       0.04005951      -0.02629354      -0.06939719
O        3.86944594       4.26113082       1.99660502        7      -0.04005951       0.02629354       0.06939719
O        5.91547816       4.07749531       4.19289912        8      -0.00000000      -0.04791778       0.06939719
O        4.94629579       1.38193600       3.27729923        9       0.04005951      -0.07421132       0.00000000
10
Lattice="5.551207952057774 -0.07003678702934368 -0.04835941728879221 2.987517970882145 4.679268238964624 -0.048359417288804045 2.9875179708821475 1.6126717169381675 4.392855542675093" Properties=species:S:1:pos:R:3:spacegroup_kinds:I:1:forces:R:3 spacegroup="P 1" unit_cell=conventional occupancy="_JSON {\"0\": {\"In\": 1}, \"1\": {\"In\": 1}, \"2\": {\"In\": 1}, \"3\": {\"In\": 1}, \"4\": {\"O\": 1}, \"5\": {\"O\": 1}, \"6\": {\"O\": 1}, \"7\": {\"O\": 1}, \"8\": {\"O\": 1}, \"9\": {\"O\": 1}}" n_minim_iter=2 energy=-11286.441582941014 stress="-0.17325041427890184 -0.0025478143800499098 -0.0017592300283624204 -0.0025478143800499098 -0.16990583754936361 -0.0009496379718011298 -0.0017592300283624204 -0.0009496379718011298 -0.16918623090791193" free_energy=-11286.441582941014 pbc="T T T"
In       9.91998449       5.35483923       3.69744124        0       0.20452843       0.11040510       0.07623317
In       7.36938136       3.97801554       2.74676383        1      -0.20452843      -0.11040510      -0.07623317
In       4.15686254       2.24388764       1.54937289        2       0.20452843       0.11040510       0.07623317
In       1.60625942       0.86706395       0.59869547        3      -0.20452843      -0.11040510      -0.07623317
O        5.65716495       2.16727596       0.11309601        4       0.00000000       0.01662627      -0.02407908
O        6.61018040       4.86183355       1.02567476        5      -0.01389964       0.02574946      -0.00000000
O        7.69166748       1.97186979       2.30952378        6       0.01389964      -0.00912320      -0.02407908
O        3.83457643       4.25003339       1.98661294        7      -0.01389964       0.00912320       0.02407908
O        5.86907895       4.05462722       4.18304071        8      -0.00000000      -0.01662627       0.02407908
O        4.91606350       1.36006963       3.27046195        9       0.01389964      -0.02574946       0.00000000
10
Lattice="5.560683749877939 -0.0600732307935901 -0.04147972171561836 3.001047130839889 4.6817228322159625 -0.04147972171563016 3.001047130839892 1.619974800578311 4.392713385880885" Properties=species:S:1:pos:R:3:spacegroup_kinds:I:1:forces:R:3 spacegroup="P 1" unit_cell=conventional occupancy="_JSON {\"0\": {\"In\": 1}, \"1\": {\"In\": 1}, \"2\": {\"In\": 1}, \"3\": {\"In\": 1}, \"4\": {\"O\": 1}, \"5\": {\"O\": 1}, \"6\": {\"O\": 1}, \"7\": {\"O\": 1}, \"8\": {\"O\": 1}, \"9\": {\"O\": 1}}" n_minim_iter=3 energy=-11286.447893109636 stress="-0.1668721005248352 0.0019926023195666713 0.0013758639025035638 0.0019926023195666713 -0.16948783713410806 0.0007426957171292936 0.0013758639025035638 0.0007426957171292936 -0.17005062925706088" free_energy=-11286.447893109636 pbc="T T T"
In       9.95974077       5.37629979       3.71225946        0       0.01255919       0.00677949       0.00468114
In       7.38442626       3.98613682       2.75237146        1      -0.01255919      -0.00677949      -0.00468114
In       4.17835176       2.25548759       1.55738249        2       0.01255919       0.00677949       0.00468114
In       1.60303725       0.86532462       0.59749449        3      -0.01255919      -0.00677949      -0.00468114
O        5.67103638       2.17774265       0.11913696        4       0.00000000       0.05062957      -0.07332455
O        6.63035276       4.87383186       1.03595877        5      -0.04232658       0.07841113       0.00000000
O        7.71276713       1.98512910       2.31549365        6       0.04232658      -0.02778155      -0.07332455
O        3.85001089       4.25649531       1.99426029        7      -0.04232658       0.02778155       0.07332455
O        5.89174164       4.06388177       4.19061699        8       0.00000000      -0.05062957       0.07332455
O        4.93242526       1.36779256       3.27379518        9       0.04232658      -0.07841113      -0.00000000
10
Lattice="5.552667433018944 -0.06850025084063482 -0.04729846064185231 2.9896033718833905 4.679645241350876 -0.04729846064186415 2.989603371883394 1.6137974230413474 4.392832185124091" Properties=species:S:1:pos:R:3:spacegroup_kinds:I:1:forces:R:3 spacegroup="P 1" unit_cell=conventional occupancy="_JSON {\"0\": {\"In\": 1}, \"1\": {\"In\": 1}, \"2\": {\"In\": 1}, \"3\": {\"In\": 1}, \"4\": {\"O\": 1}, \"5\": {\"O\": 1}, \"6\": {\"O\": 1}, \"7\": {\"O\": 1}, \"8\": {\"O\": 1}, \"9\": {\"O\": 1}}" n_minim_iter=4 energy=-11286.450288991235 stress="-0.16616380293472846 0.000756271335955136 0.0005221947312804842 0.000756271335955136 -0.1671565783626927 0.0002818823793804709 0.0005221947312804842 0.0002818823793804709 -0.16737018021695915" free_energy=-11286.450288991235 pbc="T T T"
In       9.93748872       5.36428807       3.70396553        0      -0.00440455      -0.00237759      -0.00164169
In       7.36032256       3.97312556       2.74338737        1       0.00440455       0.00237759       0.00164169
In       4.17155163       2.25181686       1.55484790        2      -0.00440455      -0.00237759      -0.00164169
In       1.59438547       0.86065436       0.59426974        3       0.00440455       0.00237759       0.00164169
O        5.65930227       2.17167890       0.10998759        4       0.00000000       0.03309818      -0.04793462
O        6.61095701       4.86800250       1.02726036        5      -0.02767024       0.05125987       0.00000000
O        7.69725089       1.97238322       2.30640368        6       0.02767024      -0.01816169      -0.04793462
O        3.83462330       4.25255920       1.99183159        7      -0.02767024       0.01816169       0.04793461
O        5.87257192       4.05326352       4.18824768        8      -0.00000000      -0.03309818       0.04793462
O        4.92091717       1.35693993       3.27097491        9       0.02767024      -0.05125987      -0.00000000
10
Lattice="5.547520344164541 -0.07392223508861631 -0.051042264575512246 2.982246245923527 4.678317410611959 -0.051042264575524104 2.9822462459235317 1.6098260230132768 4.392916944677786" Properties=species:S:1:pos:R:3:spacegroup_kinds:I:1:forces:R:3 spacegroup="P 1" unit_cell=conventional occupancy="_JSON {\"0\": {\"In\": 1}, \"1\": {\"In\": 1}, \"2\": {\"In\": 1}, \"3\": {\"In\": 1}, \"4\": {\"O\": 1}, \"5\": {\"O\": 1}, \"6\": {\"O\": 1}, \"7\": {\"O\": 1}, \"8\": {\"O\": 1}, \"9\": {\"O\": 1}}" n_minim_iter=5 energy=-11286.450887426714 stress="-0.16555292597010624 -0.00020167568890311447 -0.00013925422810215105 -0.00020167568890311447 -0.16528818148244875 -7.516987690468909e-05 -0.00013925422810215105 -7.516987690468909e-05 -0.16523122004878205" free_energy=-11286.450887426714 pbc="T T T"
In       9.92341324       5.35669008       3.69871923        0      -0.00851490      -0.00459637      -0.00317373
In       7.34460603       3.96464173       2.73752940        1       0.00851490       0.00459637       0.00317373
In       4.16740682       2.24957948       1.55330302        2      -0.00851490      -0.00459637      -0.00317373
In       1.58859961       0.85753113       0.59211319        3       0.00851490       0.00459637       0.00317373
O        5.65176339       2.16825070       0.10342192        4      -0.00000000       0.01021731      -0.01479727
O        6.59809842       4.86498757       1.02166584        5      -0.00854172       0.01582377       0.00000000
O        7.68767460       1.96392904       2.29988039        6       0.00854172      -0.00560646      -0.01479727
O        3.82433824       4.25029217       1.99095203        7      -0.00854172       0.00560646       0.01479727
O        5.86024946       4.04597051       4.18741050        8       0.00000000      -0.01021731       0.01479727
O        4.91391443       1.34923364       3.26916658        9       0.00854172      -0.01582377       0.00000000
10
Lattice="5.549072762273648 -0.07228597914502555 -0.04991245283908562 2.984466009780377 4.678717390509272 -0.0499124528390975 2.98446600978038 1.6110242586139025 4.392890678284606" Properties=species:S:1:pos:R:3:spacegroup_kinds:I:1:forces:R:3 spacegroup="P 1" unit_cell=conventional occupancy="_JSON {\"0\": {\"In\": 1}, \"1\": {\"In\": 1}, \"2\": {\"In\": 1}, \"3\": {\"In\": 1}, \"4\": {\"O\": 1}, \"5\": {\"O\": 1}, \"6\": {\"O\": 1}, \"7\": {\"O\": 1}, \"8\": {\"O\": 1}, \"9\": {\"O\": 1}}" n_minim_iter=6 energy=-11286.450949746188 stress="-0.16539150319911047 3.6852601872303826e-05 2.544620338701964e-05 3.6852601872303826e-05 -0.16543988048645958 1.3735941962781167e-05 2.544620338701964e-05 1.3735941962781167e-05 -0.16545028916397514" free_energy=-11286.450949746188 pbc="T T T"
In       9.92836305       5.35936200       3.70056415        0      -0.00256522      -0.00138471      -0.00095612
In       7.34864413       3.96682151       2.73903451        1       0.00256522       0.00138471       0.00095612
In       4.16936066       2.25063417       1.55403127        2      -0.00256522      -0.00138471      -0.00095612
In       1.58964174       0.85809368       0.59250163        3       0.00256522       0.00138471       0.00095612
O        5.65403758       2.17013976       0.10416526        4       0.00000000       0.00030929      -0.00044793
O        6.60126320       4.86722056       1.02335399        5      -0.00025856       0.00047900       0.00000000
O        7.69127798       1.96601096       2.30061060        6       0.00025856      -0.00016971      -0.00044792
O        3.82672681       4.25144472       1.99245518        7      -0.00025856       0.00016971       0.00044792
O        5.86396721       4.04731592       4.18890052        8      -0.00000000      -0.00030929       0.00044792
O        4.91674159       1.35023512       3.26971178        9       0.00025856      -0.00047900       0.00000000
