10
Lattice="5.242656429460334 -0.22470534078685117 -0.1551558802601447 2.6889053278166237 4.50618764207386 -0.15515588026015797 2.6889053278166184 1.451479661029049 4.268841436078115" Properties=species:S:1:pos:R:3:spacegroup_kinds:I:1:forces:R:3 spacegroup="P 1" unit_cell=conventional occupancy="_JSON {\"0\": {\"In\": 1}, \"1\": {\"In\": 1}, \"2\": {\"In\": 1}, \"3\": {\"In\": 1}, \"4\": {\"O\": 1}, \"5\": {\"O\": 1}, \"6\": {\"O\": 1}, \"7\": {\"O\": 1}, \"8\": {\"O\": 1}, \"9\": {\"O\": 1}}" n_minim_iter=7 energy=-11284.163394070136 stress="-0.299978295151597 0.00013245260966096174 9.145666623468542e-05 0.00013245260966096174 -0.30015216885023405 4.936859887461252e-05 9.145666623468542e-05 4.936859887461252e-05 -0.3001895788677811" free_energy=-11284.163394070136 pbc="T T T"
In       9.24308350       4.98944592       3.44514229        0      -0.00413653      -0.00223291      -0.00154179
In       6.68761711       3.60999702       2.49265222        1       0.00413653       0.00223291       0.00154179
In       3.93284996       2.12296494       1.46587746        2      -0.00413653      -0.00223291      -0.00154179
In       1.37738357       0.74351604       0.51338738        3       0.00413653       0.00223291       0.00154179
O        5.27644498       1.98177501      -0.04507896        4       0.00000000       0.00180253      -0.00261052
O        6.06839266       4.59751206       0.83447654        5      -0.00150692       0.00279161      -0.00000000
O        7.17340263       1.68398441       2.08934176        6       0.00150692      -0.00098909      -0.00261052
O        3.44706445       4.04897755       1.86918791        7      -0.00150692       0.00098909       0.00261052
O        5.34402209       3.75118696       4.00360863        8      -0.00000000      -0.00180253       0.00261052
O        4.55207441       1.13544990       3.12405313        9       0.00150692      -0.00279161      -0.00000000
