10
Lattice="6.36625092154864 0.0826965939001309 0.05710083603780936 3.562435721449555 5.276840082217934 0.05710083603781652 3.5624357214495563 1.9230141500020563 4.914297339159471" Properties=species:S:1:pos:R:3:spacegroup_kinds:I:1:forces:R:3 spacegroup="P 1" unit_cell=conventional occupancy="_JSON {\"0\": {\"In\": 1}, \"1\": {\"In\": 1}, \"2\": {\"In\": 1}, \"3\": {\"In\": 1}, \"4\": {\"O\": 1}, \"5\": {\"O\": 1}, \"6\": {\"O\": 1}, \"7\": {\"O\": 1}, \"8\": {\"O\": 1}, \"9\": {\"O\": 1}}" n_minim_iter=1 energy=-11285.599607365586 stress="0.11525365055918711 -0.001121391346787893 -0.0007743049673083318 -0.001121391346787893 0.11672572773656222 -0.00041797228739979674 -0.0007743049673083318 -0.00041797228739979674 0.11704245436582497" free_energy=-11285.599607365586 pbc="T T T"
In      11.46903864       6.19102360       4.27481479        0      -0.02155827      -0.01163722      -0.00803534
In       8.76764492       4.73280266       3.26793373        1       0.02155827       0.01163722       0.00803534
In       4.72347746       2.54974818       1.76056529        2      -0.02155827      -0.01163722      -0.00803534
In       2.02208373       1.09152724       0.75368422        3       0.02155827       0.01163722       0.00803534
O        6.55590606       2.54852305       0.29139421        4      -0.00000000       0.08155506      -0.11811256
O        7.76317553       5.56366096       1.31422559        5      -0.06818044       0.12630610      -0.00000000
O        8.91107230       2.44677521       2.74854287        6       0.06818044      -0.04475104      -0.11811256
O        4.58005007       4.83577562       2.27995614        7      -0.06818044       0.04475104       0.11811256
O        6.93521632       4.73402779       4.73710481        8      -0.00000000      -0.08155506       0.11811256
O        5.72794684       1.71888988       3.71427342        9       0.06818044      -0.12630610       0.00000000
10
Lattice="6.382662752391096 0.09924763806657284 0.06852909945992706 3.5852780070024943 5.2814785351193745 0.06852909945993423 3.585278007002497 1.935344488503944 4.914585787756369" Properties=species:S:1:pos:R:3:spacegroup_kinds:I:1:forces:R:3 spacegroup="P 1" unit_cell=conventional occupancy="_JSON {\"0\": {\"In\": 1}, \"1\": {\"In\": 1}, \"2\": {\"In\": 1}, \"3\": {\"In\": 1}, \"4\": {\"O\": 1}, \"5\": {\"O\": 1}, \"6\": {\"O\": 1}, \"7\": {\"O\": 1}, \"8\": {\"O\": 1}, \"9\": {\"O\": 1}}" n_minim_iter=2 energy=-11285.600809008158 stress="0.11640156048768192 0.0014331316369073502 0.0009895572580881488 0.0014331316369073502 0.11452025439167152 0.0005341661604813106 0.0009895572580881488 0.0005341661604813106 0.11411547959588313" free_energy=-11285.600809008158 pbc="T T T"
In      11.52151848       6.21935238       4.29437542        0      -0.01220796      -0.00658990      -0.00455023
In       8.80830968       4.75475362       3.28309056        1       0.01220796       0.00658990       0.00455023
In       4.74490910       2.56131705       1.76855343        2      -0.01220796      -0.00658990      -0.00455023
In       2.03170029       1.09671829       0.75726857        3       0.01220796       0.00658990       0.00455023
O        6.57963607       2.56476638       0.30349148        4       0.00000000       0.05358713      -0.07760786
O        7.79867125       5.58199736       1.33144010        5      -0.04479911       0.08299156       0.00000000
O        8.94587890       2.46982202       2.76078437        6       0.04479911      -0.02940443      -0.07760786
O        4.60733987       4.84624865       2.29085962        7      -0.04479911       0.02940443       0.07760786
O        6.97358270       4.75130430       4.74815251        8      -0.00000000      -0.05358713       0.07760786
O        5.75454753       1.73407331       3.72020389        9       0.04479911      -0.08299156      -0.00000000
10
Lattice="6.363674732142778 0.0800924614493445 0.05530271917373781 3.558845042331607 5.276115319396004 0.05530271917374502 3.5588450423316105 1.9210758899766591 4.9142566761681845" Properties=species:S:1:pos:R:3:spacegroup_kinds:I:1:forces:R:3 spacegroup="P 1" unit_cell=conventional occupancy="_JSON {\"0\": {\"In\": 1}, \"1\": {\"In\": 1}, \"2\": {\"In\": 1}, \"3\": {\"In\": 1}, \"4\": {\"O\": 1}, \"5\": {\"O\": 1}, \"6\": {\"O\": 1}, \"7\": {\"O\": 1}, \"8\": {\"O\": 1}, \"9\": {\"O\": 1}}" n_minim_iter=3 energy=-11285.603854396495 stress="0.11373675755171422 -0.0009544499372756535 -0.0006590342701690674 -0.0009544499372756535 0.1149896867582094 -0.0003557487977157591 -0.0006590342701690674 -0.0003557487977157591 0.11525926232938632" free_energy=-11285.603854396495 pbc="T T T"
In      11.45973699       6.18600253       4.27134782        0      -0.02217090      -0.01196792      -0.00826368
In       8.76231025       4.72992299       3.26594536        1       0.02217090       0.01196792       0.00826368
In       4.71905458       2.54736070       1.75891676        2      -0.02217090      -0.01196792      -0.00826368
In       2.02162784       1.09128115       0.75351430        3       0.02217090       0.01196792       0.00826368
O        6.55217858       2.55015220       0.28343372        4      -0.00000000       0.03774228      -0.05466046
O        7.75410135       5.56725871       1.31151825        5      -0.03155273       0.05845229       0.00000000
O        8.90910084       2.44085625       2.74056205        6       0.03155273      -0.02071001      -0.05466046
O        4.57226399       4.83642743       2.28430007        7      -0.03155273       0.02071001       0.05466046
O        6.92918625       4.72713148       4.74142840        8       0.00000000      -0.03774228       0.05466046
O        5.72726348       1.71002497       3.71334387        9       0.03155273      -0.05845229      -0.00000000
10
Lattice="6.365752180586782 0.08219257302038188 0.05675281670282995 3.5617406874200674 5.276699699554777 0.05675281670283717 3.5617406874200714 1.9226389684190202 4.914289368627147" Properties=species:S:1:pos:R:3:spacegroup_kinds:I:1:forces:R:3 spacegroup="P 1" unit_cell=conventional occupancy="_JSON {\"0\": {\"In\": 1}, \"1\": {\"In\": 1}, \"2\": {\"In\": 1}, \"3\": {\"In\": 1}, \"4\": {\"O\": 1}, \"5\": {\"O\": 1}, \"6\": {\"O\": 1}, \"7\": {\"O\": 1}, \"8\": {\"O\": 1}, \"9\": {\"O\": 1}}" n_minim_iter=4 energy=-11285.604981617409 stress="0.1133425310623045 -0.0003914167270589602 -0.000270267750306362 -0.0003914167270589602 0.11385635313751433 -0.00014589139158807584 -0.000270267750306362 -0.00014589139158807584 0.11396690517735097" free_energy=-11285.604981617409 pbc="T T T"
In      11.46580046       6.18927561       4.27360784        0      -0.01857107      -0.01002473      -0.00692193
In       8.76804989       4.73302126       3.26808467        1       0.01857107       0.01002473       0.00692193
In       4.72118368       2.54850999       1.75971034        2      -0.01857107      -0.01002473      -0.00692193
In       2.02343311       1.09225564       0.75418717        3       0.01857107       0.01002473       0.00692193
O        6.55518448       2.55387631       0.28255717        4      -0.00000000       0.01470995      -0.02130376
O        7.75720731       5.57215963       1.31370157        5      -0.01229759       0.02278162       0.00000000
O        8.91490235       2.44286511       2.73970185        6       0.01229759      -0.00807167      -0.02130376
O        4.57433122       4.83866614       2.28809315        7      -0.01229759       0.00807167       0.02130376
O        6.93404908       4.72765494       4.74523784        8       0.00000000      -0.01470995       0.02130376
O        5.73202626       1.70937162       3.71409344        9       0.01229759      -0.02278162       0.00000000
10
Lattice="6.367193196137686 0.08364867403391102 0.057758233991581046 3.563748711839841 5.277105401303777 0.05775823399158826 3.563748711839844 1.9237229063970505 4.914312526637536" Properties=species:S:1:pos:R:3:spacegroup_kinds:I:1:forces:R:3 spacegroup="P 1" unit_cell=conventional occupancy="_JSON {\"0\": {\"In\": 1}, \"1\": {\"In\": 1}, \"2\": {\"In\": 1}, \"3\": {\"In\": 1}, \"4\": {\"O\": 1}, \"5\": {\"O\": 1}, \"6\": {\"O\": 1}, \"7\": {\"O\": 1}, \"8\": {\"O\": 1}, \"9\": {\"O\": 1}}" n_minim_iter=5 energy=-11285.605233198046 stress="0.11305896538155126 1.3783437828765295e-05 9.51727021251385e-06 1.3783437828765295e-05 0.11304087153326044 5.137452044430544e-06 9.51727021251385e-06 5.137452044430544e-06 0.11303697852858856" free_energy=-11285.605233198046 pbc="T T T"
In      11.46975943       6.19141268       4.27508345        0      -0.01372719      -0.00740998      -0.00511649
In       8.77227651       4.73530281       3.26966005        1       0.01372719       0.00740998       0.00511649
In       4.72241412       2.54917419       1.76016895        2      -0.01372719      -0.00740998      -0.00511649
In       2.02493120       1.09306432       0.75474555        3       0.01372719       0.00740998       0.00511649
O        6.55726926       2.55648155       0.28191627        4      -0.00000000      -0.00164845       0.00238738
O        7.75934242       5.57559369       1.31521549        5       0.00137812      -0.00255300       0.00000000
O        8.91894481       2.44424561       2.73907253        6      -0.00137812       0.00090454       0.00238738
O        4.57574582       4.84023138       2.29075647        7       0.00137812      -0.00090454      -0.00238738
O        6.93742137       4.72799544       4.74791273        8      -0.00000000       0.00164845      -0.00238738
O        5.73534821       1.70888331       3.71461351        9      -0.00137812       0.00255300       0.00000000
10
Lattice="6.367140441588044 0.08359537637402056 0.057721432706363894 3.5636752071565985 5.27709054382758 0.05772143270637111 3.5636752071566016 1.9236832283348992 4.914311671899853" Properties=species:S:1:pos:R:3:spacegroup_kinds:I:1:forces:R:3 spacegroup="P 1" unit_cell=conventional occupancy="_JSON {\"0\": {\"In\": 1}, \"1\": {\"In\": 1}, \"2\": {\"In\": 1}, \"3\": {\"In\": 1}, \"4\": {\"O\": 1}, \"5\": {\"O\": 1}, \"6\": {\"O\": 1}, \"7\": {\"O\": 1}, \"8\": {\"O\": 1}, \"9\": {\"O\": 1}}" n_minim_iter=6 energy=-11285.60528586381 stress="0.11300900849909283 4.6554245368858046e-05 3.214505211742039e-05 4.6554245368858046e-05 0.11294789563046373 1.7352001722909747e-05 3.214505211742039e-05 1.7352001722909747e-05 0.11293474681288214" free_energy=-11285.60528586381 pbc="T T T"
In      11.46846895       6.19071608       4.27460246        0      -0.00377196      -0.00203611      -0.00140591
In       8.77326734       4.73583766       3.27002935        1       0.00377196       0.00203611       0.00140591
In       4.72122353       2.54853150       1.75972519        2      -0.00377196      -0.00203611      -0.00140591
In       2.02602191       1.09365309       0.75515209        3       0.00377196       0.00203611       0.00140591
O        6.55719294       2.55653249       0.28172784        4       0.00000000      -0.00229315       0.00332107
O        7.75914195       5.57569456       1.31516007        5       0.00191709      -0.00355146       0.00000000
O        8.91891914       2.44411480       2.73888368        6      -0.00191709       0.00125830       0.00332107
O        4.57557173       4.84025436       2.29087086        7       0.00191709      -0.00125830      -0.00332107
O        6.93729793       4.72783667       4.74802670        8      -0.00000000       0.00229315      -0.00332107
O        5.73534892       1.70867460       3.71459447        9      -0.00191709       0.00355146       0.00000000
