10
Lattice="6.099359563352225 0.08356438982919459 0.05770003693258528 3.4167120844683665 5.053241397573599 0.05770003693259084 3.4167120844683674 1.8443520665805122 4.7049913252750875" Properties=species:S:1:pos:R:3:spacegroup_kinds:I:1:forces:R:3 spacegroup="P 1" unit_cell=conventional occupancy="_JSON {\"0\": {\"In\": 1}, \"1\": {\"In\": 1}, \"2\": {\"In\": 1}, \"3\": {\"In\": 1}, \"4\": {\"O\": 1}, \"5\": {\"O\": 1}, \"6\": {\"O\": 1}, \"7\": {\"O\": 1}, \"8\": {\"O\": 1}, \"9\": {\"O\": 1}}" n_minim_iter=4 energy=-11287.37601134781 stress="0.055216430505344055 0.0003472695322347225 0.00023978473266223198 0.0003472695322347225 0.05476056150365968 0.00012943656134286038 0.00023978473266223198 0.00012943656134286038 0.054662478431661554" free_energy=-11287.37601134781 pbc="T T T"
In      11.02838262       5.95315607       4.11057061        0      -0.00012449      -0.00006720      -0.00004640
In       8.37079299       4.51858072       3.12001649        1       0.00012449       0.00006720       0.00004640
In       4.56199075       2.46257714       1.70037491        2      -0.00012449      -0.00006720      -0.00004640
In       1.90440112       1.02800180       0.70982079        3       0.00012449       0.00006720       0.00004640
O        6.28287572       2.42619213       0.30833821        4       0.00000000       0.00302619      -0.00438270
O        7.45692387       5.30351219       1.26279789        5      -0.00252991       0.00468673       0.00000000
O        8.52553966       2.35854834       2.66083387        6       0.00252991      -0.00166054      -0.00438270
O        4.40724408       4.62260953       2.15955753        7      -0.00252991       0.00166054       0.00438270
O        6.64990802       4.55496574       4.51205320        8      -0.00000000      -0.00302619       0.00438270
O        5.47585988       1.67764568       3.55759351        9       0.00252991      -0.00468673      -0.00000000
