10
Lattice="5.880035616727005 0.006082168207242809 0.00419965168064398 3.231588720072759 4.912401672404927 0.004199651680645425 3.231588720072758 1.7444218847991901 4.592243473070065" Properties=species:S:1:pos:R:3:spacegroup_kinds:I:1:forces:R:3 spacegroup="P 1" unit_cell=conventional occupancy="_JSON {\"0\": {\"In\": 1}, \"1\": {\"In\": 1}, \"2\": {\"In\": 1}, \"3\": {\"In\": 1}, \"4\": {\"O\": 1}, \"5\": {\"O\": 1}, \"6\": {\"O\": 1}, \"7\": {\"O\": 1}, \"8\": {\"O\": 1}, \"9\": {\"O\": 1}}" n_minim_iter=1 energy=-11287.67967570382 stress="-1.8134409142903672e-05 -1.3583616779877112e-07 -9.379288878946844e-08 -1.3583616779877112e-07 -1.7956093361147242e-05 -5.062954962793278e-08 -9.379288878946844e-08 -5.062954962793278e-08 -1.7917727841044573e-05" free_energy=-11287.67967570382 pbc="T T T"
In      10.57954254       5.71087077       3.94327601        0      -0.00109807      -0.00059274      -0.00040928
In       7.93527705       4.28348783       2.95768816        1       0.00109807       0.00059274       0.00040928
In       4.40793601       2.37941790       1.64295463        2      -0.00109807      -0.00059274      -0.00040928
In       1.76367052       0.95203497       0.65736677        3       0.00109807       0.00059274       0.00040928
O        6.02582108       2.31401447       0.21777815        4       0.00000000      -0.00038379       0.00055582
O        7.10218577       5.12427640       1.15436035        5       0.00032085      -0.00059438      -0.00000000
O        8.18104510       2.18691737       2.51389988        6      -0.00032085       0.00021059       0.00055582
O        4.16216796       4.47598837       2.08674290        7       0.00032085      -0.00021059      -0.00055582
O        6.31739199       4.34889127       4.38286463        8       0.00000000       0.00038379      -0.00055582
O        5.24102729       1.53862933       3.44628243        9      -0.00032085       0.00059438      -0.00000000
