10
Lattice="6.322645094667426 0.08213016109663157 0.05670972214649145 3.53803471098684 5.2406962075983845 0.05670972214649979 3.5380347109868424 1.9098424068288054 4.880636711946547" Properties=species:S:1:pos:R:3:spacegroup_kinds:I:1:forces:R:3 spacegroup="P 1" unit_cell=conventional occupancy="_JSON {\"0\": {\"In\": 1}, \"1\": {\"In\": 1}, \"2\": {\"In\": 1}, \"3\": {\"In\": 1}, \"4\": {\"O\": 1}, \"5\": {\"O\": 1}, \"6\": {\"O\": 1}, \"7\": {\"O\": 1}, \"8\": {\"O\": 1}, \"9\": {\"O\": 1}}" n_minim_iter=5 energy=-11285.968922279077 stress="0.1066529670309536 -1.6996193341788503e-05 -1.1735632847409998e-05 -1.6996193341788503e-05 0.10667527834054986 -6.334930927985843e-06 -1.1735632847409998e-05 -6.334930927985843e-06 0.10668007875881794" free_energy=-11285.968922279077 pbc="T T T"
In      11.39048112       6.14861799       4.24553432        0       0.00020911       0.00011288       0.00007794
In       8.70759067       4.70038518       3.24554992        1      -0.00020911      -0.00011288      -0.00007794
In       4.69112386       2.53228361       1.74850624        2       0.00020911       0.00011288       0.00007794
In       2.00823341       1.08405079       0.74852184        3      -0.00020911      -0.00011288      -0.00007794
O        6.51100118       2.53106686       0.28939829        4      -0.00000000      -0.00003258       0.00004718
O        7.71000143       5.52555250       1.30522376        5       0.00002724      -0.00005046      -0.00000000
O        8.85003565       2.43001595       2.72971665        6      -0.00002724       0.00001788       0.00004718
O        4.54867888       4.80265283       2.26433951        7       0.00002724      -0.00001788      -0.00004718
O        6.88771335       4.70160193       4.70465787        8       0.00000000       0.00003258      -0.00004718
O        5.68871310       1.70711629       3.68883240        9      -0.00002724       0.00005046      -0.00000000
