10
Lattice="5.830621216494106 0.006031055133503676 0.004164358821465467 3.2044312283821412 4.871119034310961 0.004164358821466799 3.2044312283821403 1.729762184278794 4.553651367216204" Properties=species:S:1:pos:R:3:spacegroup_kinds:I:1:forces:R:3 spacegroup="P 1" unit_cell=conventional occupancy="_JSON {\"0\": {\"In\": 1}, \"1\": {\"In\": 1}, \"2\": {\"In\": 1}, \"3\": {\"In\": 1}, \"4\": {\"O\": 1}, \"5\": {\"O\": 1}, \"6\": {\"O\": 1}, \"7\": {\"O\": 1}, \"8\": {\"O\": 1}, \"9\": {\"O\": 1}}" n_minim_iter=1 energy=-11287.635575548426 stress="-0.026600870621480546 0.00049889885307881 0.0003444826474924407 0.00049889885307881 -0.027255787049923336 0.00018595283044495767 0.0003444826474924407 0.00018595283044495767 -0.02739669642240172" free_energy=-11287.635575548426 pbc="T T T"
In      10.49063462       5.66287799       3.91013767        0       0.00502237       0.00271109       0.00187197
In       7.86859090       4.24749043       2.93283246        1      -0.00502237      -0.00271109      -0.00187197
In       4.37089278       2.35942185       1.62914763        2       0.00502237       0.00271109       0.00187197
In       1.74884906       0.94403430       0.65184242        3      -0.00502237      -0.00271109      -0.00187197
O        5.97518153       2.29456805       0.21594799        4       0.00000000       0.05043099      -0.07303695
O        7.04250072       5.08121322       1.14465938        5      -0.04216056       0.07810357       0.00000000
O        8.11229357       2.16853904       2.49277368        6       0.04216056      -0.02767258      -0.07303695
O        4.12719011       4.43837324       2.06920641        7      -0.04216056       0.02767258       0.07303695
O        6.26430215       4.31234423       4.34603210        8       0.00000000      -0.05043099       0.07303695
O        5.19698297       1.52569906       3.41732071        9       0.04216056      -0.07810357       0.00000000
10
Lattice="5.825416492188799 0.0006664250755838956 0.00046015715010362136 3.197090424980112 4.869711548550707 0.0004601571501049531 3.19709042498011 1.7257995952194345 4.553647607684764" Properties=species:S:1:pos:R:3:spacegroup_kinds:I:1:forces:R:3 spacegroup="P 1" unit_cell=conventional occupancy="_JSON {\"0\": {\"In\": 1}, \"1\": {\"In\": 1}, \"2\": {\"In\": 1}, \"3\": {\"In\": 1}, \"4\": {\"O\": 1}, \"5\": {\"O\": 1}, \"6\": {\"O\": 1}, \"7\": {\"O\": 1}, \"8\": {\"O\": 1}, \"9\": {\"O\": 1}}" n_minim_iter=2 energy=-11287.636228919788 stress="-0.027011998212369333 -0.0003278441673276871 -0.00022637179086593365 -0.0003278441673276871 -0.026581629351184625 -0.00012219621348571926 -0.00022637179086593365 -0.00012219621348571926 -0.026489032793773307" free_energy=-11287.636228919788 pbc="T T T"
In      10.47366140       5.65371579       3.90381130        0       0.03012261       0.01626028       0.01122750
In       7.85573463       4.24055058       2.92804058        1      -0.03012261      -0.01626028      -0.01122750
In       4.36386272       2.35562700       1.62652734        2       0.03012261       0.01626028       0.01122750
In       1.74593596       0.94246179       0.65075662        3      -0.03012261      -0.01626028      -0.01122750
O        5.96760759       2.29044351       0.21044492        4      -0.00000000       0.03887038      -0.05629424
O        7.03021851       5.07706614       1.13910214        5      -0.03249584       0.06019941       0.00000000
O        8.10208708       2.16051055       2.48726872        6       0.03249584      -0.02132903      -0.05629424
O        4.11751027       4.43566703       2.06729920        7      -0.03249584       0.02132903       0.05629424
O        6.25198977       4.30573407       4.34412301        8      -0.00000000      -0.03887038       0.05629424
O        5.18937884       1.51911144       3.41546579        9       0.03249584      -0.06019941      -0.00000000
10
Lattice="5.824468143529475 -0.0003119159631226583 -0.0002153735895023039 3.1957521473673256 4.869455561444051 -0.0002153735895009655 3.195752147367324 1.7250771887011855 4.553647571374732" Properties=species:S:1:pos:R:3:spacegroup_kinds:I:1:forces:R:3 spacegroup="P 1" unit_cell=conventional occupancy="_JSON {\"0\": {\"In\": 1}, \"1\": {\"In\": 1}, \"2\": {\"In\": 1}, \"3\": {\"In\": 1}, \"4\": {\"O\": 1}, \"5\": {\"O\": 1}, \"6\": {\"O\": 1}, \"7\": {\"O\": 1}, \"8\": {\"O\": 1}, \"9\": {\"O\": 1}}" n_minim_iter=3 energy=-11287.637226160216 stress="-0.026515326878249642 -0.00038915563657744627 -0.00026870649828420823 -0.00038915563657744627 -0.02600447299083194 -0.00014504862364676826 -0.00026870649828420823 -0.00014504862364676826 -0.02589455957553944" free_energy=-11287.637226160216 pbc="T T T"
In      10.47131961       5.65245168       3.90293846        0       0.04196811       0.02265452       0.01564263
In       7.85263905       4.23887958       2.92688678        1      -0.04196811      -0.02265452      -0.01564263
In       4.36333339       2.35534127       1.62633005        2       0.04196811       0.02265452       0.01564263
In       1.74465284       0.94176916       0.65027837        3      -0.04196811      -0.02265452      -0.01564263
O        5.96622719       2.29132009       0.20708296        4      -0.00000000       0.01465293      -0.02122118
O        7.02661824       5.07883257       1.13808883        5      -0.01224992       0.02269331      -0.00000000
O        8.10158828       2.15815315       2.48390675        6       0.01224992      -0.00804038      -0.02122118
O        4.11438417       4.43606770       2.06931008        7      -0.01224992       0.00804038       0.02122118
O        6.24974526       4.30290076       4.34613387        8      -0.00000000      -0.01465293       0.02122118
O        5.18935421       1.51538827       3.41512799        9       0.01224992      -0.02269331      -0.00000000
10
Lattice="5.825442091430666 0.0006928302513480845 0.00047838955292399534 3.1971265467019427 4.86971846054775 0.0004783895529253301 3.197126546701941 1.7258190938399394 4.55364761144224" Properties=species:S:1:pos:R:3:spacegroup_kinds:I:1:forces:R:3 spacegroup="P 1" unit_cell=conventional occupancy="_JSON {\"0\": {\"In\": 1}, \"1\": {\"In\": 1}, \"2\": {\"In\": 1}, \"3\": {\"In\": 1}, \"4\": {\"O\": 1}, \"5\": {\"O\": 1}, \"6\": {\"O\": 1}, \"7\": {\"O\": 1}, \"8\": {\"O\": 1}, \"9\": {\"O\": 1}}" n_minim_iter=4 energy=-11287.637693843524 stress="-0.025711448256980775 -3.168254204569218e-05 -2.1876349258153233e-05 -3.168254204569218e-05 -0.02566985782840253 -1.18089234558343e-05 -2.1876349258153233e-05 -1.18089234558343e-05 -0.02566090938833293" free_energy=-11287.637693843524 pbc="T T T"
In      10.47584329       5.65489358       3.90462455        0       0.03802665       0.02052691       0.01417354
In       7.85369950       4.23945201       2.92728204        1      -0.03802665      -0.02052691      -0.01417354
In       4.36599569       2.35677839       1.62732236        2       0.03802665       0.02052691       0.01417354
In       1.74385191       0.94133682       0.64997984        3      -0.03802665      -0.02052691      -0.01417354
O        5.96764485       2.29382692       0.20560135        4       0.00000000      -0.00521899       0.00755843
O        7.02746736       5.08229508       1.13912949        5       0.00436310      -0.00808277      -0.00000000
O        8.10494888       2.15870464       2.48242515        6      -0.00436310       0.00286377       0.00755843
O        4.11474631       4.43752576       2.07217924        7       0.00436310      -0.00286377      -0.00755843
O        6.25205035       4.30240347       4.34900305        8      -0.00000000       0.00521899      -0.00755843
O        5.19222784       1.51393532       3.41547491        9      -0.00436310       0.00808277       0.00000000
10
Lattice="5.824504940161391 -0.0002739506720242508 -0.00018915908948606685 3.195804077655747 4.869465491227175 -0.00018915908948473106 3.1958040776557453 1.7251052208362911 4.5536475690458165" Properties=species:S:1:pos:R:3:spacegroup_kinds:I:1:forces:R:3 spacegroup="P 1" unit_cell=conventional occupancy="_JSON {\"0\": {\"In\": 1}, \"1\": {\"In\": 1}, \"2\": {\"In\": 1}, \"3\": {\"In\": 1}, \"4\": {\"O\": 1}, \"5\": {\"O\": 1}, \"6\": {\"O\": 1}, \"7\": {\"O\": 1}, \"8\": {\"O\": 1}, \"9\": {\"O\": 1}}" n_minim_iter=5 energy=-11287.637964365425 stress="-0.024945011360771655 0.0003424112170828093 0.00023643013374743713 0.0003424112170828093 -0.025394502731384952 0.00012762573988836935 0.00023643013374743713 0.00012762573988836935 -0.02549121361747751" free_energy=-11287.637964365425 pbc="T T T"
In      10.47578726       5.65486333       3.90460367        0       0.01443864       0.00779402       0.00538166
In       7.84838239       4.23658182       2.92530021        1      -0.01443864      -0.00779402      -0.00538166
In       4.36773071       2.35771495       1.62796904        2       0.01443864       0.00779402       0.00538166
In       1.74032585       0.93943344       0.64866559        3      -0.01443864      -0.00779402      -0.00538166
O        5.96628075       2.29410469       0.20313135        4      -0.00000000      -0.01329041       0.01924791
O        7.02440157       5.08312927       1.13812816        5       0.01111085      -0.02058316      -0.00000000
O        8.10396401       2.15669799       2.47995513        6      -0.01111085       0.00729274       0.01924791
O        4.11214910       4.43759878       2.07331413        7       0.01111085      -0.00729274      -0.01924791
O        6.24983236       4.30019209       4.35013791        8      -0.00000000       0.01329041      -0.01924791
O        5.19171154       1.51116750       3.41514110        9      -0.01111085       0.02058316       0.00000000
10
Lattice="5.820369676589331 -0.004543047280911568 -0.0031369103086963937 3.1899659821465596 4.868350936835476 -0.0031369103086950722 3.189965982146558 1.721953798284121 4.553649723130676" Properties=species:S:1:pos:R:3:spacegroup_kinds:I:1:forces:R:3 spacegroup="P 1" unit_cell=conventional occupancy="_JSON {\"0\": {\"In\": 1}, \"1\": {\"In\": 1}, \"2\": {\"In\": 1}, \"3\": {\"In\": 1}, \"4\": {\"O\": 1}, \"5\": {\"O\": 1}, \"6\": {\"O\": 1}, \"7\": {\"O\": 1}, \"8\": {\"O\": 1}, \"9\": {\"O\": 1}}" n_minim_iter=6 energy=-11287.638184051346 stress="-0.02528669703075462 2.6959213732745167e-05 1.8614958471160392e-05 2.6959213732745167e-05 -0.025322087033052405 1.004841440547128e-05 1.8614958471160392e-05 1.004841440547128e-05 -0.025329701414470357" free_energy=-11287.638184051346 pbc="T T T"
In      10.46405768       5.64853167       3.90023174        0      -0.00084779      -0.00045764      -0.00031599
In       7.83639479       4.23011087       2.92083212        1       0.00084779       0.00045764       0.00031599
In       4.36390686       2.35565083       1.62654379        2      -0.00084779      -0.00045764      -0.00031599
In       1.73624397       0.93723003       0.64714416        3       0.00084779       0.00045764       0.00031599
O        5.96026025       2.28970147       0.20037949        4       0.00000000       0.00036319      -0.00052599
O        7.01557480       5.07809477       1.13370707        5      -0.00030363       0.00056247      -0.00000000
O        8.09491169       2.15092798       2.47720436        6       0.00030363      -0.00019929      -0.00052599
O        4.10538996       4.43483372       2.07017155        7      -0.00030363       0.00019929       0.00052599
O        6.24004140       4.29606022       4.34699641        8       0.00000000      -0.00036319       0.00052599
O        5.18472685       1.50766693       3.41366884        9       0.00030363      -0.00056247      -0.00000000
