10
Lattice="5.187466473649515 -0.22233984573766327 -0.15352253916855085 2.6605989590475847 4.458750565052408 -0.15352253916856398 2.6605989590475794 1.436199793002156 4.2239029257273994" Properties=species:S:1:pos:R:3:spacegroup_kinds:I:1:forces:R:3 spacegroup="P 1" unit_cell=conventional occupancy="_JSON {\"0\": {\"In\": 1}, \"1\": {\"In\": 1}, \"2\": {\"In\": 1}, \"3\": {\"In\": 1}, \"4\": {\"O\": 1}, \"5\": {\"O\": 1}, \"6\": {\"O\": 1}, \"7\": {\"O\": 1}, \"8\": {\"O\": 1}, \"9\": {\"O\": 1}}" n_minim_iter=7 energy=-11284.163394070136 stress="-0.299978295151597 0.00013245260966096174 9.145666623468542e-05 0.00013245260966096174 -0.30015216885023405 4.936859887461252e-05 9.145666623468542e-05 4.936859887461252e-05 -0.3001895788677811" free_energy=-11284.163394070136 pbc="T T T"
In       9.14578066       4.93692153       3.40887494        0      -0.00413653      -0.00223291      -0.00154179
In       6.61721592       3.57199423       2.46641182        1       0.00413653       0.00223291       0.00154179
In       3.89144846       2.10061628       1.45044602        2      -0.00413653      -0.00223291      -0.00154179
In       1.36288372       0.73568898       0.50798290        3       0.00413653       0.00223291       0.00154179
O        5.22089933       1.96091267      -0.04460441        4       0.00000000       0.00180253      -0.00261052
O        6.00451010       4.54911361       0.82569192        5      -0.00150692       0.00279161      -0.00000000
O        7.09788752       1.66625695       2.06734706        6       0.00150692      -0.00098909      -0.00261052
O        3.41077686       4.00635357       1.84951079        7      -0.00150692       0.00098909       0.00261052
O        5.28776505       3.71169784       3.96146225        8      -0.00000000      -0.00180253       0.00261052
O        4.50415428       1.12349691       3.09116592        9       0.00150692      -0.00279161      -0.00000000
