10
Lattice="5.570625108506125 -0.04965174875917365 -0.03428383481322339 3.015214582434262 4.684315362734388 -0.03428383481323085 3.0152145824342664 1.6276224360770748 4.392588189718846" Properties=species:S:1:pos:R:3:spacegroup_kinds:I:1:forces:R:3 spacegroup="P 1" unit_cell=conventional occupancy="_JSON {\"0\": {\"In\": 1}, \"1\": {\"In\": 1}, \"2\": {\"In\": 1}, \"3\": {\"In\": 1}, \"4\": {\"O\": 1}, \"5\": {\"O\": 1}, \"6\": {\"O\": 1}, \"7\": {\"O\": 1}, \"8\": {\"O\": 1}, \"9\": {\"O\": 1}}" n_minim_iter=4 energy=-11286.927723466682 stress="-0.12352049206721642 -1.2980760293435383e-05 -8.963032627607092e-06 -1.2980760293435383e-05 -0.12350345191276765 -4.838273584979021e-06 -8.963032627607092e-06 -4.838273584979021e-06 -0.12349978561514623" free_energy=-11286.927723466682 pbc="T T T"
In       9.98258939       5.38863355       3.72077574        0       0.00015336       0.00008278       0.00005716
In       7.41899203       4.00479553       2.76525504        1      -0.00015336      -0.00008278      -0.00005716
In       4.18206225       2.25749053       1.55876548        2       0.00015336       0.00008278       0.00005716
In       1.61846490       0.87365251       0.60324478        3      -0.00015336      -0.00008278      -0.00005716
O        5.68557613       2.18479076       0.13112141        4      -0.00000000       0.00002071      -0.00003000
O        6.65475849       4.88035006       1.04672130        5      -0.00001732       0.00003208      -0.00000000
O        7.73160834       2.00115524       2.32741550        6       0.00001732      -0.00001137      -0.00003000
O        3.86944594       4.26113082       1.99660502        7      -0.00001732       0.00001137       0.00003000
O        5.91547816       4.07749531       4.19289912        8       0.00000000      -0.00002071       0.00003000
O        4.94629579       1.38193600       3.27729923        9       0.00001732      -0.00003208      -0.00000000
