10
Lattice="5.644156112515357 -0.02823609099792442 -0.019496624061299705 3.0734662473374685 4.73403640942448 -0.019496624061305645 3.07346624733747 1.6590668703430915 4.433844603032051" Properties=species:S:1:pos:R:3:spacegroup_kinds:I:1:forces:R:3 spacegroup="P 1" unit_cell=conventional occupancy="_JSON {\"0\": {\"In\": 1}, \"1\": {\"In\": 1}, \"2\": {\"In\": 1}, \"3\": {\"In\": 1}, \"4\": {\"O\": 1}, \"5\": {\"O\": 1}, \"6\": {\"O\": 1}, \"7\": {\"O\": 1}, \"8\": {\"O\": 1}, \"9\": {\"O\": 1}}" n_minim_iter=6 energy=-11287.275069654777 stress="-0.08704914544537025 -5.406993664229541e-07 -3.733456992614585e-07 -5.406993664229541e-07 -0.08704843565420593 -2.0153358505918686e-07 -3.733456992614585e-07 -2.0153358505918686e-07 -0.08704828293956014" free_energy=-11287.275069654777 pbc="T T T"
In      10.13006304       5.46824030       3.77574308        0       0.00003731       0.00002014       0.00001391
In       7.55656988       4.07906050       2.81653395        1      -0.00003731      -0.00002014      -0.00001391
In       4.23451873       2.28580670       1.57831741        2       0.00003731       0.00002014       0.00001391
In       1.66102558       0.89662690       0.61910828        3      -0.00003731      -0.00002014      -0.00001391
O        5.76985021       2.21878874       0.15963355        4       0.00000000      -0.00000340       0.00000493
O        6.77012731       4.93791625       1.07921622        5       0.00000284      -0.00000527      -0.00000000
O        7.84303936       2.05452288       2.37655585        6      -0.00000284       0.00000187       0.00000493
O        3.94804926       4.31034432       2.01829551        7       0.00000284      -0.00000187      -0.00000493
O        6.02123840       4.14607846       4.23521781        8      -0.00000000       0.00000340      -0.00000493
O        5.02096130       1.42695094       3.31563514        9      -0.00000284       0.00000527       0.00000000
