10
Lattice="5.830621216494104 0.006031055133501971 0.004164358821465411 3.2044312283821412 4.871119034310959 0.004164358821466844 3.2044312283821403 1.7297621842787911 4.553651367216203" Properties=species:S:1:pos:R:3:spacegroup_kinds:I:1:forces:R:3 spacegroup="P 1" unit_cell=conventional occupancy="_JSON {\"0\": {\"In\": 1}, \"1\": {\"In\": 1}, \"2\": {\"In\": 1}, \"3\": {\"In\": 1}, \"4\": {\"O\": 1}, \"5\": {\"O\": 1}, \"6\": {\"O\": 1}, \"7\": {\"O\": 1}, \"8\": {\"O\": 1}, \"9\": {\"O\": 1}}" n_minim_iter=1 energy=-11287.67967570382 stress="-1.8134409142903672e-05 -1.3583616779877112e-07 -9.379288878946844e-08 -1.3583616779877112e-07 -1.7956093361147242e-05 -5.062954962793278e-08 -9.379288878946844e-08 -5.062954962793278e-08 -1.7917727841044573e-05" free_energy=-11287.67967570382 pbc="T T T"
In      10.49063462       5.66287799       3.91013767        0      -0.00109807      -0.00059274      -0.00040928
In       7.86859090       4.24749043       2.93283246        1       0.00109807       0.00059274       0.00040928
In       4.37089278       2.35942185       1.62914763        2      -0.00109807      -0.00059274      -0.00040928
In       1.74884906       0.94403430       0.65184242        3       0.00109807       0.00059274       0.00040928
O        5.97518153       2.29456805       0.21594799        4       0.00000000      -0.00038379       0.00055582
O        7.04250072       5.08121322       1.14465938        5       0.00032085      -0.00059438      -0.00000000
O        8.11229357       2.16853904       2.49277368        6      -0.00032085       0.00021059       0.00055582
O        4.12719011       4.43837324       2.06920641        7       0.00032085      -0.00021059      -0.00055582
O        6.26430215       4.31234423       4.34603210        8       0.00000000       0.00038379      -0.00055582
O        5.19698297       1.52569906       3.41732071        9      -0.00032085       0.00059438      -0.00000000
