40
Lattice="9.208394296851356 7.217304735660184e-10 1.285938837011522e-14 -3.0694647662975716 8.681757401283585 -1.2500897902471379e-09 -3.0694647652769005 -4.340878699920053 7.518622459838542" Properties=species:S:1:pos:R:3:spacegroup_kinds:I:1:forces:R:3 spacegroup="P 1" unit_cell=conventional occupancy="_JSON {\"0\": {\"In\": 1}, \"1\": {\"In\": 1}, \"2\": {\"In\": 1}, \"3\": {\"In\": 1}, \"4\": {\"In\": 1}, \"5\": {\"In\": 1}, \"6\": {\"In\": 1}, \"7\": {\"In\": 1}, \"8\": {\"In\": 1}, \"9\": {\"In\": 1}, \"10\": {\"In\": 1}, \"11\": {\"In\": 1}, \"12\": {\"In\": 1}, \"13\": {\"In\": 1}, \"14\": {\"In\": 1}, \"15\": {\"In\": 1}, \"16\": {\"O\": 1}, \"17\": {\"O\": 1}, \"18\": {\"O\": 1}, \"19\": {\"O\": 1}, \"20\": {\"O\": 1}, \"21\": {\"O\": 1}, \"22\": {\"O\": 1}, \"23\": {\"O\": 1}, \"24\": {\"O\": 1}, \"25\": {\"O\": 1}, \"26\": {\"O\": 1}, \"27\": {\"O\": 1}, \"28\": {\"O\": 1}, \"29\": {\"O\": 1}, \"30\": {\"O\": 1}, \"31\": {\"O\": 1}, \"32\": {\"O\": 1}, \"33\": {\"O\": 1}, \"34\": {\"O\": 1}, \"35\": {\"O\": 1}, \"36\": {\"O\": 1}, \"37\": {\"O\": 1}, \"38\": {\"O\": 1}, \"39\": {\"O\": 1}}" n_minim_iter=1 energy=-45150.50409160571 stress="0.050426664289288714 -3.4235190988711193e-13 1.1087765691690097e-13 -3.4235190988711193e-13 0.050426664289681386 -8.693702204198708e-14 1.1087765691690097e-13 -8.693702204198708e-14 0.05042666428943193" free_energy=-45150.50409160571 pbc="T T T"
In      -4.37535905       3.09384606       5.91923513        0       0.06193939      -0.04379776       0.07585995
In       7.44482381       1.24703265       1.59938732        1      -0.06193939       0.04379776      -0.07585995
In       1.30589428      -0.92340670       5.35869855        2      -0.06193939       0.04379776      -0.07585995
In      -1.53473238      -2.17043935       3.75931123        3      -0.00000000      -0.00000000       0.00000000
In      -1.30589428       4.17906573       3.47904294        4       0.06193939      -0.04379776      -0.07585995
In       4.83303525      -2.93203308       5.63896684        5       0.06193939       0.08759552       0.00000000
In      -1.30589428       1.40884562       5.63896684        6       0.06193939       0.08759552      -0.00000000
In      -1.76357048       7.27291178       1.87965561        7      -0.06193939      -0.08759552       0.00000000
In       4.37535905       0.16181297       4.03957952        8      -0.06193939       0.04379776       0.07585995
In      -1.53473238       4.34087870      -0.00000000        9       0.00000000       0.00000000      -0.00000000
In       4.37535905       6.67313103       0.28026829       10      -0.06193939       0.04379776       0.07585995
In      -1.30589428      -2.33225232       7.23835417       11       0.06193939      -0.04379776      -0.07585995
In       4.37535905       2.93203308       1.87965561       12      -0.06193939      -0.08759552       0.00000000
In       1.76357048       5.26428541       2.15992390       13       0.06193939      -0.04379776       0.07585995
In       4.60419715       0.00000000      -0.00000000       14       0.00000000       0.00000000      -0.00000000
In       1.53473238       2.17043935       3.75931123       15      -0.00000000       0.00000000       0.00000000
O        0.94168686       4.34492181       4.07679565       16       0.02227877      -0.01752550      -0.06323841
O       -2.12777791       3.52858705       5.47672319       17       0.02227877      -0.04600331       0.04679674
O       -0.44812842       2.34089551       0.01524284       18      -0.05246929       0.00685155      -0.04475057
O       -0.94168686      -0.80824854       2.03489639       19      -0.02227877      -0.06352882      -0.01644167
O        4.03604308       5.15792770       2.01965355       20      -0.05079860       0.03769207       0.02830890
O        2.10288645       3.00033192       1.71741196       21       0.05079860      -0.00567019       0.04679674
O        2.10288645       6.49847449       0.30224158       22       0.05079860       0.04336226      -0.01848784
O       -2.35639359       6.15351907       3.77455407       23      -0.02394946       0.04718467      -0.04475057
O        3.51759318       1.99998320       7.50337962       24       0.05246929      -0.00685155       0.04475057
O        5.42585835      -1.81264037       3.74406839       25       0.02394946      -0.04718467       0.04475057
O        6.58705794       3.35408779       1.73965767       26       0.05246929      -0.03532936      -0.02830890
O        3.78253595       2.36253953       4.06155281       27      -0.02394946      -0.06234746      -0.01848784
O        0.71307118       4.50657751       7.20113803       28      -0.02394946       0.01516279       0.06323841
O        2.35639358      -0.16569880       0.31748443       29       0.02394946      -0.01516279      -0.06323841
O       -3.51759318       0.98679091       5.77896478       30      -0.05246929       0.03532936       0.02830890
O        5.19724267       0.81229165       2.04189926       31      -0.02227877       0.04600331      -0.04679674
O        0.96657831       1.34054679       5.80121049       32      -0.05079860       0.00567019      -0.04679674
O        3.51759318      -1.01319228       5.79420762       33       0.05246929       0.04218090      -0.01644167
O        2.12777791      -0.00404311       3.44182680       34      -0.02227877       0.01752550       0.06323841
O        0.96657831      -2.15759578       7.21638087       35      -0.05079860      -0.04336226       0.01848784
O       -0.71307118       1.97833917       3.45706964       36       0.02394946       0.06234746       0.01848784
O       -0.96657831      -0.81704900       5.49896890       37       0.05079860      -0.03769207      -0.02830890
O       -0.44812842       5.35407099       1.72441483       38      -0.05246929      -0.04218090       0.01644167
O        4.01115162       5.14912724       5.48372606       39       0.02227877       0.06352882       0.01644167
40
Lattice="9.208394296851356 7.217304735660185e-10 1.2859388370115222e-14 -3.069464766297572 8.681757401283585 -1.250089790247138e-09 -3.069464765276901 -4.340878699920053 7.518622459838543" Properties=species:S:1:pos:R:3:spacegroup_kinds:I:1:forces:R:3 spacegroup="P 1" unit_cell=conventional occupancy="_JSON {\"0\": {\"In\": 1}, \"1\": {\"In\": 1}, \"2\": {\"In\": 1}, \"3\": {\"In\": 1}, \"4\": {\"In\": 1}, \"5\": {\"In\": 1}, \"6\": {\"In\": 1}, \"7\": {\"In\": 1}, \"8\": {\"In\": 1}, \"9\": {\"In\": 1}, \"10\": {\"In\": 1}, \"11\": {\"In\": 1}, \"12\": {\"In\": 1}, \"13\": {\"In\": 1}, \"14\": {\"In\": 1}, \"15\": {\"In\": 1}, \"16\": {\"O\": 1}, \"17\": {\"O\": 1}, \"18\": {\"O\": 1}, \"19\": {\"O\": 1}, \"20\": {\"O\": 1}, \"21\": {\"O\": 1}, \"22\": {\"O\": 1}, \"23\": {\"O\": 1}, \"24\": {\"O\": 1}, \"25\": {\"O\": 1}, \"26\": {\"O\": 1}, \"27\": {\"O\": 1}, \"28\": {\"O\": 1}, \"29\": {\"O\": 1}, \"30\": {\"O\": 1}, \"31\": {\"O\": 1}, \"32\": {\"O\": 1}, \"33\": {\"O\": 1}, \"34\": {\"O\": 1}, \"35\": {\"O\": 1}, \"36\": {\"O\": 1}, \"37\": {\"O\": 1}, \"38\": {\"O\": 1}, \"39\": {\"O\": 1}}" n_minim_iter=2 energy=-45150.515650299814 stress="0.04917865119410892 2.7083181444638143e-13 -1.02904371757291e-13 2.7083181444638143e-13 0.04917865119355563 2.1895665241633716e-13 -1.02904371757291e-13 2.1895665241633716e-13 0.04917865119407473" free_energy=-45150.515650299814 pbc="T T T"
In      -4.37093481       3.09071764       5.92465370        0       0.02075505      -0.01467604       0.02541964
In       7.44039957       1.25016106       1.59396876        1      -0.02075505       0.01467604      -0.02541964
In       1.30147004      -0.92027829       5.35327999        2      -0.02075505       0.01467604      -0.02541964
In      -1.53473238      -2.17043935       3.75931123        3       0.00000000      -0.00000000       0.00000000
In      -1.30147004       4.17593732       3.47362437        4       0.02075505      -0.01467604      -0.02541964
In       4.83745949      -2.92577626       5.63896684        5       0.02075505       0.02935208       0.00000000
In      -1.30147004       1.41510244       5.63896684        6       0.02075505       0.02935208       0.00000000
In      -1.76799473       7.26665496       1.87965561        7      -0.02075505      -0.02935208      -0.00000000
In       4.37093481       0.16494139       4.04499808        8      -0.02075505       0.01467604       0.02541964
In      -1.53473238       4.34087870      -0.00000000        9      -0.00000000      -0.00000000       0.00000000
In       4.37093480       6.67625944       0.28568685       10      -0.02075505       0.01467604       0.02541964
In      -1.30147004      -2.33538073       7.23293560       11       0.02075505      -0.01467604      -0.02541964
In       4.37093480       2.92577626       1.87965561       12      -0.02075505      -0.02935208       0.00000000
In       1.76799472       5.26115699       2.16534247       13       0.02075505      -0.01467604       0.02541964
In       4.60419715       0.00000000      -0.00000000       14      -0.00000000      -0.00000000       0.00000000
In       1.53473238       2.17043935       3.75931123       15       0.00000000       0.00000000       0.00000000
O        0.94327820       4.34366999       4.07227863       16       0.02503140       0.00614787      -0.00875197
O       -2.12618657       3.52530110       5.48006582       17       0.02503140      -0.01065336      -0.00094823
O       -0.45187622       2.34138490       0.01204637       18       0.00409598       0.00415021      -0.02658877
O       -0.94327820      -0.81278631       2.03372199       19      -0.02503140      -0.00450549      -0.00970020
O        4.03241461       5.16061999       2.02167561       20      -0.01838789      -0.01084554       0.01688858
O        2.10651492       2.99992690       1.72075459       21       0.01838789      -0.02004871      -0.00094823
O        2.10651492       6.50157179       0.30092102       22       0.01838789       0.00920317       0.01783680
O       -2.35810426       6.15688941       3.77135760       23      -0.00254753      -0.00524513      -0.02658877
O        3.52134098       1.99949380       7.50657608       24      -0.00409598      -0.00415021       0.02658877
O        5.42756902      -1.81601070       3.74726486       25       0.00254753       0.00524513       0.02658877
O        6.59080575       3.35156427       1.73763561       26      -0.00409598      -0.02095145      -0.01688858
O        3.78082527       2.35808614       4.06023225       27      -0.00254753      -0.02040399       0.01783680
O        0.71136050       4.50766056       7.20565506       28      -0.00254753       0.02564912       0.00875197
O        2.35810426      -0.16678186       0.31296740       29       0.00254753      -0.02564912      -0.00875197
O       -3.52134099       0.98931444       5.78098684       30       0.00409598       0.02095145       0.01688858
O        5.19565133       0.81557760       2.03855664       31      -0.02503140       0.01065336       0.00094823
O        0.96294984       1.34095180       5.79786787       32      -0.01838789       0.02004871       0.00094823
O        3.52134098      -1.01017936       5.79303322       33      -0.00409598       0.02510166      -0.00970020
O        2.12618657      -0.00279128       3.44634383       34      -0.02503140      -0.00614787       0.00875197
O        0.96294984      -2.16069309       7.21770143       35      -0.01838789      -0.00920317      -0.01783680
O       -0.71136051       1.98279256       3.45839020       36       0.00254753       0.02040399      -0.01783680
O       -0.96294984      -0.81974129       5.49694684       37       0.01838789       0.01084554      -0.01688858
O       -0.45187622       5.35105807       1.72558924       38       0.00409598      -0.02510166       0.00970020
O        4.01274296       5.15366502       5.48490047       39       0.02503140       0.00450549       0.00970020
40
Lattice="9.20839429685136 7.217304735660189e-10 1.2859388370115229e-14 -3.069464766297574 8.681757401283589 -1.2500897902471385e-09 -3.0694647652769027 -4.340878699920054 7.5186224598385465" Properties=species:S:1:pos:R:3:spacegroup_kinds:I:1:forces:R:3 spacegroup="P 1" unit_cell=conventional occupancy="_JSON {\"0\": {\"In\": 1}, \"1\": {\"In\": 1}, \"2\": {\"In\": 1}, \"3\": {\"In\": 1}, \"4\": {\"In\": 1}, \"5\": {\"In\": 1}, \"6\": {\"In\": 1}, \"7\": {\"In\": 1}, \"8\": {\"In\": 1}, \"9\": {\"In\": 1}, \"10\": {\"In\": 1}, \"11\": {\"In\": 1}, \"12\": {\"In\": 1}, \"13\": {\"In\": 1}, \"14\": {\"In\": 1}, \"15\": {\"In\": 1}, \"16\": {\"O\": 1}, \"17\": {\"O\": 1}, \"18\": {\"O\": 1}, \"19\": {\"O\": 1}, \"20\": {\"O\": 1}, \"21\": {\"O\": 1}, \"22\": {\"O\": 1}, \"23\": {\"O\": 1}, \"24\": {\"O\": 1}, \"25\": {\"O\": 1}, \"26\": {\"O\": 1}, \"27\": {\"O\": 1}, \"28\": {\"O\": 1}, \"29\": {\"O\": 1}, \"30\": {\"O\": 1}, \"31\": {\"O\": 1}, \"32\": {\"O\": 1}, \"33\": {\"O\": 1}, \"34\": {\"O\": 1}, \"35\": {\"O\": 1}, \"36\": {\"O\": 1}, \"37\": {\"O\": 1}, \"38\": {\"O\": 1}, \"39\": {\"O\": 1}}" n_minim_iter=3 energy=-45150.516975500774 stress="0.04864985293033588 1.7112830086186982e-13 -2.82823650102894e-13 1.7112830086186982e-13 0.04864985293079606 -6.865949295236103e-13 -2.82823650102894e-13 -6.865949295236103e-13 0.048649852930408403" free_energy=-45150.516975500774 pbc="T T T"
In      -4.36907152       3.08940010       5.92693575        0       0.00408427      -0.00288802       0.00500219
In       7.43853628       1.25147861       1.59168670        1      -0.00408427       0.00288802      -0.00500219
In       1.29960675      -0.91896074       5.35099793        2      -0.00408427       0.00288802      -0.00500219
In      -1.53473238      -2.17043935       3.75931123        3      -0.00000000       0.00000000      -0.00000000
In      -1.29960675       4.17461977       3.47134232        4       0.00408427      -0.00288802      -0.00500219
In       4.83932278      -2.92314117       5.63896684        5       0.00408427       0.00577604       0.00000000
In      -1.29960675       1.41773753       5.63896684        6       0.00408427       0.00577604       0.00000000
In      -1.76985802       7.26401987       1.87965561        7      -0.00408427      -0.00577604      -0.00000000
In       4.36907152       0.16625893       4.04728014        8      -0.00408427       0.00288802       0.00500219
In      -1.53473238       4.34087870      -0.00000000        9       0.00000000      -0.00000000      -0.00000000
In       4.36907151       6.67757698       0.28796891       10      -0.00408427       0.00288802       0.00500219
In      -1.29960675      -2.33669828       7.23065355       11       0.00408427      -0.00288802      -0.00500219
In       4.36907151       2.92314117       1.87965561       12      -0.00408427      -0.00577604       0.00000000
In       1.76985801       5.25983945       2.16762452       13       0.00408427      -0.00288802       0.00500219
In       4.60419715       0.00000000      -0.00000000       14      -0.00000000      -0.00000000       0.00000000
In       1.53473238       2.17043935       3.75931123       15       0.00000000       0.00000000      -0.00000000
O        0.94429582       4.34338052       4.07062226       16       0.02499757       0.01214246       0.01158132
O       -2.12516895       3.52401139       5.48114469       17       0.02499757       0.00395849      -0.01630634
O       -0.45302589       2.34162769       0.01047087       18       0.02351264       0.00500849      -0.01812499
O       -0.94429582      -0.81436550       2.03314450       19      -0.02499757       0.01610095      -0.00472502
O        4.03085944       5.16128956       2.02267363       20      -0.00460042      -0.02656542       0.01339998
O        2.10807009       2.99939739       1.72183346       21       0.00460042      -0.02488743      -0.01630634
O        2.10807008       6.50277088       0.30084016       22       0.00460042      -0.00167799       0.02970631
O       -2.35871639       6.15789239       3.76978210       23       0.00311550      -0.02383743      -0.01812499
O        3.52249065       1.99925102       7.50815159       24      -0.02351264      -0.00500849       0.01812499
O        5.42818115      -1.81701369       3.74884036       25      -0.00311550       0.02383743       0.01812499
O        6.59195541       3.35032124       1.73663760       26      -0.02351264      -0.01319246      -0.01339998
O        3.78021315       2.35622022       4.06015139       27       0.00311550      -0.00377799       0.02970631
O        0.71074838       4.50852350       7.20731142       28       0.00311550       0.02761542      -0.01158132
O        2.35871638      -0.16764479       0.31131103       29      -0.00311550      -0.02761542       0.01158132
O       -3.52249065       0.99055747       5.78198486       30       0.02351264       0.01319246       0.01339998
O        5.19463371       0.81686732       2.03747777       31      -0.02499757      -0.00395849       0.01630634
O        0.96139468       1.34148132       5.79678900       32      -0.00460042       0.02488743       0.01630634
O        3.52249065      -1.00869354       5.79245573       33      -0.02351264       0.01820095      -0.00472502
O        2.12516894      -0.00250181       3.44800019       34      -0.02499757      -0.01214246      -0.01158132
O        0.96139468      -2.16189217       7.21778229       35      -0.00460042       0.00167799      -0.02970631
O       -0.71074838       1.98465848       3.45847106       36      -0.00311550       0.00377799      -0.02970631
O       -0.96139468      -0.82041086       5.49594883       37       0.00460042       0.02656542      -0.01339998
O       -0.45302589       5.34957225       1.72616673       38       0.02351264      -0.01820095       0.00472502
O        4.01376058       5.15524420       5.48547796       39       0.02499757      -0.01610095       0.00472502
40
Lattice="9.20839429685137 7.217304735660196e-10 1.2859388370115254e-14 -3.0694647662975774 8.681757401283601 -1.25008979024714e-09 -3.0694647652769063 -4.340878699920061 7.5186224598385545" Properties=species:S:1:pos:R:3:spacegroup_kinds:I:1:forces:R:3 spacegroup="P 1" unit_cell=conventional occupancy="_JSON {\"0\": {\"In\": 1}, \"1\": {\"In\": 1}, \"2\": {\"In\": 1}, \"3\": {\"In\": 1}, \"4\": {\"In\": 1}, \"5\": {\"In\": 1}, \"6\": {\"In\": 1}, \"7\": {\"In\": 1}, \"8\": {\"In\": 1}, \"9\": {\"In\": 1}, \"10\": {\"In\": 1}, \"11\": {\"In\": 1}, \"12\": {\"In\": 1}, \"13\": {\"In\": 1}, \"14\": {\"In\": 1}, \"15\": {\"In\": 1}, \"16\": {\"O\": 1}, \"17\": {\"O\": 1}, \"18\": {\"O\": 1}, \"19\": {\"O\": 1}, \"20\": {\"O\": 1}, \"21\": {\"O\": 1}, \"22\": {\"O\": 1}, \"23\": {\"O\": 1}, \"24\": {\"O\": 1}, \"25\": {\"O\": 1}, \"26\": {\"O\": 1}, \"27\": {\"O\": 1}, \"28\": {\"O\": 1}, \"29\": {\"O\": 1}, \"30\": {\"O\": 1}, \"31\": {\"O\": 1}, \"32\": {\"O\": 1}, \"33\": {\"O\": 1}, \"34\": {\"O\": 1}, \"35\": {\"O\": 1}, \"36\": {\"O\": 1}, \"37\": {\"O\": 1}, \"38\": {\"O\": 1}, \"39\": {\"O\": 1}}" n_minim_iter=4 energy=-45150.518056617584 stress="0.04810099781217576 -3.8982193230021737e-13 -2.2946733271998117e-14 -3.8982193230021737e-13 0.04810099781171034 1.3351353042348183e-13 -2.2946733271998117e-14 1.3351353042348183e-13 0.048100997811768256" free_energy=-45150.518056617584 pbc="T T T"
In      -4.36676890       3.08777190       5.92975587        0      -0.01349068       0.00953935      -0.01652264
In       7.43623366       1.25310680       1.58886658        1       0.01349068      -0.00953935       0.01652264
In       1.29730413      -0.91733255       5.34817781        2       0.01349068      -0.00953935       0.01652264
In      -1.53473238      -2.17043935       3.75931123        3      -0.00000000      -0.00000000      -0.00000000
In      -1.29730413       4.17299158       3.46852219        4      -0.01349068       0.00953935       0.01652264
In       4.84162540      -2.91988477       5.63896684        5      -0.01349068      -0.01907870       0.00000000
In      -1.29730413       1.42099393       5.63896684        6      -0.01349068      -0.01907870       0.00000000
In      -1.77216064       7.26076347       1.87965561        7       0.01349068       0.01907870       0.00000000
In       4.36676890       0.16788713       4.05010026        8       0.01349068      -0.00953935      -0.01652264
In      -1.53473238       4.34087870      -0.00000000        9       0.00000000       0.00000000      -0.00000000
In       4.36676890       6.67920518       0.29078903       10       0.01349068      -0.00953935      -0.01652264
In      -1.29730413      -2.33832647       7.22783342       11      -0.01349068       0.00953935       0.01652264
In       4.36676890       2.91988477       1.87965561       12       0.01349068       0.01907870      -0.00000000
In       1.77216063       5.25821125       2.17044464       13      -0.01349068       0.00953935      -0.01652264
In       4.60419715       0.00000000      -0.00000000       14       0.00000000       0.00000000      -0.00000000
In       1.53473238       2.17043935       3.75931123       15      -0.00000000      -0.00000000       0.00000000
O        0.94737098       4.34403187       4.06978625       16       0.02084158       0.00506870       0.02440417
O       -2.12209378       3.52296171       5.48099861       17       0.02084158       0.01860028      -0.01659170
O       -0.45237638       2.34229321       0.00735397       18       0.02926252       0.01264578      -0.00627820
O       -0.94737099      -0.81476383       2.03216241       19      -0.02084158       0.02366898       0.00781247
O        4.02884474       5.15988835       2.02480843       20       0.01058932      -0.02729370       0.01409066
O        2.11008479       2.99684799       1.72168738       21      -0.01058932      -0.02584972      -0.01659170
O        2.11008479       6.50391907       0.30312105       22      -0.01058932      -0.00144398       0.03068237
O       -2.35912734       6.15705819       3.76666520       23      -0.00216838      -0.03180423      -0.00627820
O        3.52184114       1.99858550       7.51126848       24      -0.02926252      -0.01264578       0.00627820
O        5.42859210      -1.81617949       3.75195725       25       0.00216838       0.03180423       0.00627820
O        6.59130591       3.34795469       1.73450279       26      -0.02926252       0.00088581      -0.01409066
O        3.77980219       2.35393801       4.06243228       27      -0.00216838       0.01046503       0.03068237
O        0.71033742       4.51163990       7.20814743       28      -0.00216838       0.02133919      -0.02440417
O        2.35912734      -0.17076120       0.31047503       29       0.00216838      -0.02133919       0.02440417
O       -3.52184115       0.99292402       5.78411966       30       0.02926252      -0.00088581       0.01409066
O        5.19155855       0.81791700       2.03762385       31      -0.02084158      -0.01860028       0.01659170
O        0.95937997       1.34403072       5.79693508       32       0.01058932       0.02584972       0.01659170
O        3.52184114      -1.00566147       5.79147364       33      -0.02926252       0.01175997       0.00781247
O        2.12209378      -0.00315316       3.44883620       34      -0.02084158      -0.00506870      -0.02440417
O        0.95937997      -2.16304036       7.21550141       35       0.01058932       0.00144398      -0.03068237
O       -0.71033743       1.98694069       3.45619018       36       0.00216838      -0.01046503      -0.03068237
O       -0.95937998      -0.81900965       5.49381403       37      -0.01058932       0.02729370      -0.01409066
O       -0.45237638       5.34654018       1.72714882       38       0.02926252      -0.01175997      -0.00781247
O        4.01683575       5.15564253       5.48646005       39       0.02084158      -0.02366898      -0.00781247
40
Lattice="9.208394296851385 7.21730473566021e-10 1.285938837011531e-14 -3.069464766297583 8.681757401283615 -1.2500897902471424e-09 -3.069464765276912 -4.340878699920068 7.518622459838569" Properties=species:S:1:pos:R:3:spacegroup_kinds:I:1:forces:R:3 spacegroup="P 1" unit_cell=conventional occupancy="_JSON {\"0\": {\"In\": 1}, \"1\": {\"In\": 1}, \"2\": {\"In\": 1}, \"3\": {\"In\": 1}, \"4\": {\"In\": 1}, \"5\": {\"In\": 1}, \"6\": {\"In\": 1}, \"7\": {\"In\": 1}, \"8\": {\"In\": 1}, \"9\": {\"In\": 1}, \"10\": {\"In\": 1}, \"11\": {\"In\": 1}, \"12\": {\"In\": 1}, \"13\": {\"In\": 1}, \"14\": {\"In\": 1}, \"15\": {\"In\": 1}, \"16\": {\"O\": 1}, \"17\": {\"O\": 1}, \"18\": {\"O\": 1}, \"19\": {\"O\": 1}, \"20\": {\"O\": 1}, \"21\": {\"O\": 1}, \"22\": {\"O\": 1}, \"23\": {\"O\": 1}, \"24\": {\"O\": 1}, \"25\": {\"O\": 1}, \"26\": {\"O\": 1}, \"27\": {\"O\": 1}, \"28\": {\"O\": 1}, \"29\": {\"O\": 1}, \"30\": {\"O\": 1}, \"31\": {\"O\": 1}, \"32\": {\"O\": 1}, \"33\": {\"O\": 1}, \"34\": {\"O\": 1}, \"35\": {\"O\": 1}, \"36\": {\"O\": 1}, \"37\": {\"O\": 1}, \"38\": {\"O\": 1}, \"39\": {\"O\": 1}}" n_minim_iter=5 energy=-45150.520091534825 stress="0.048331050980130325 9.32684578523455e-14 4.526193913821103e-13 9.32684578523455e-14 0.04833105098064405 4.8865751359851485e-14 4.526193913821103e-13 4.8865751359851485e-14 0.04833105098062429" free_energy=-45150.520091534825 pbc="T T T"
In      -4.36667513       3.08770560       5.92987071        0      -0.00655668       0.00463627      -0.00803026
In       7.43613990       1.25317311       1.58875174        1       0.00655668      -0.00463627       0.00803026
In       1.29721036      -0.91726624       5.34806297        2       0.00655668      -0.00463627       0.00803026
In      -1.53473238      -2.17043935       3.75931123        3      -0.00000000       0.00000000       0.00000000
In      -1.29721037       4.17292527       3.46840735        4      -0.00655668       0.00463627       0.00803026
In       4.84171916      -2.91975216       5.63896684        5      -0.00655668      -0.00927255       0.00000000
In      -1.29721037       1.42112654       5.63896684        6      -0.00655668      -0.00927255      -0.00000000
In      -1.77225440       7.26063087       1.87965561        7       0.00655668       0.00927255       0.00000000
In       4.36667513       0.16795343       4.05021510        8       0.00655668      -0.00463627      -0.00803026
In      -1.53473238       4.34087870      -0.00000000        9      -0.00000000      -0.00000000      -0.00000000
In       4.36667513       6.67927148       0.29090387       10       0.00655668      -0.00463627      -0.00803026
In      -1.29721037      -2.33839278       7.22771858       11      -0.00655668       0.00463627       0.00803026
In       4.36667513       2.91975217       1.87965561       12       0.00655668       0.00927255       0.00000000
In       1.77225440       5.25814495       2.17055948       13      -0.00655668       0.00463627      -0.00803026
In       4.60419715       0.00000000      -0.00000000       14       0.00000000       0.00000000      -0.00000000
In       1.53473238       2.17043935       3.75931123       15      -0.00000000       0.00000000       0.00000000
O        0.95199619       4.34599945       4.07245898       16       0.01107953      -0.02177962      -0.00288201
O       -2.11746858       3.52429256       5.47795827       17       0.01107953       0.00839392       0.02030270
O       -0.44772485       2.34360545       0.00434588       18      -0.00892698       0.02254066      -0.00420017
O       -0.95199619      -0.81146539       2.03179479       19      -0.01107953      -0.01338570       0.01742070
O        4.02855775       5.15485320       2.02744891       20       0.00422068       0.01096073       0.02162087
O        2.11037178       2.99204369       1.71864704       21      -0.00422068      -0.01324386       0.02030270
O        2.11037178       6.50368821       0.30880186       22      -0.00422068       0.02420459       0.00131816
O       -2.35881402       6.15223527       3.76365711       23      -0.02422720       0.00090289      -0.00420017
O        3.51718961       1.99727326       7.51427657       24       0.00892698      -0.02254066       0.00420017
O        5.42827879      -1.81135657       3.75496534       25       0.02422720      -0.00090289       0.00420017
O        6.58665438       3.34600572       1.73186232       26       0.00892698       0.00763287      -0.02162087
O        3.78011551       2.35374439       4.06811309       27      -0.02422720      -0.00408890       0.00131816
O        0.71065074       4.51665645       7.20547471       28      -0.02422720       0.00318601       0.00288201
O        2.35881402      -0.17577774       0.31314775       29       0.02422720      -0.00318601      -0.00288201
O       -3.51718962       0.99487298       5.78676014       30      -0.00892698      -0.00763287       0.02162087
O        5.18693334       0.81658614       2.04066418       31      -0.01107953      -0.00839392      -0.02030270
O        0.95909298       1.34883502       5.79997541       32       0.00422068       0.01324386      -0.02030270
O        3.51718961      -1.00240027       5.79110602       33       0.00892698       0.01490778       0.01742070
O        2.11746858      -0.00512074       3.44616348       34      -0.01107953       0.02177962       0.00288201
O        0.95909298      -2.16280951       7.20982059       35       0.00422068      -0.02420459      -0.00131816
O       -0.71065075       1.98713432       3.45050936       36       0.02422720       0.00408890      -0.00131816
O       -0.95909299      -0.81397449       5.49117355       37      -0.00422068      -0.01096073      -0.02162087
O       -0.44772485       5.34327897       1.72751643       38      -0.00892698      -0.01490778      -0.01742070
O        4.02146095       5.15234410       5.48682766       39       0.01107953       0.01338570      -0.01742070
40