40
Lattice="8.53209527625302 6.687233809681358e-10 6.709741170684937e-15 -2.844031759381487 8.044136569868055 -1.1582715652293433e-09 -2.844031758435772 -4.022068284265298 6.966426621789327" Properties=species:S:1:pos:R:3:spacegroup_kinds:I:1:forces:R:3 spacegroup="P 1" unit_cell=conventional occupancy="_JSON {\"0\": {\"In\": 1}, \"1\": {\"In\": 1}, \"2\": {\"In\": 1}, \"3\": {\"In\": 1}, \"4\": {\"In\": 1}, \"5\": {\"In\": 1}, \"6\": {\"In\": 1}, \"7\": {\"In\": 1}, \"8\": {\"In\": 1}, \"9\": {\"In\": 1}, \"10\": {\"In\": 1}, \"11\": {\"In\": 1}, \"12\": {\"In\": 1}, \"13\": {\"In\": 1}, \"14\": {\"In\": 1}, \"15\": {\"In\": 1}, \"16\": {\"O\": 1}, \"17\": {\"O\": 1}, \"18\": {\"O\": 1}, \"19\": {\"O\": 1}, \"20\": {\"O\": 1}, \"21\": {\"O\": 1}, \"22\": {\"O\": 1}, \"23\": {\"O\": 1}, \"24\": {\"O\": 1}, \"25\": {\"O\": 1}, \"26\": {\"O\": 1}, \"27\": {\"O\": 1}, \"28\": {\"O\": 1}, \"29\": {\"O\": 1}, \"30\": {\"O\": 1}, \"31\": {\"O\": 1}, \"32\": {\"O\": 1}, \"33\": {\"O\": 1}, \"34\": {\"O\": 1}, \"35\": {\"O\": 1}, \"36\": {\"O\": 1}, \"37\": {\"O\": 1}, \"38\": {\"O\": 1}, \"39\": {\"O\": 1}}" n_minim_iter=1 energy=-45149.156118832834 stress="-0.09052989350508565 4.73842466492648e-13 -3.515106153958682e-13 4.73842466492648e-13 -0.09052989350493047 2.7060275821587203e-13 -3.515106153958682e-13 2.7060275821587203e-13 -0.09052989350468138" free_energy=-45149.156118832834 pbc="T T T"
In      -4.05805251       2.86947645       5.47956094        0       0.07911459      -0.05594247       0.09689519
In       6.90208426       1.15259184       1.48686568        1      -0.07911459       0.05594247      -0.09689519
In       1.21402074      -0.85844230       4.97007899        2      -0.07911459       0.05594247      -0.09689519
In      -1.42201588      -2.01103414       3.48321331        3       0.00000000      -0.00000000       0.00000000
In      -1.21402075       3.87499352       3.22847233        4       0.07911459      -0.05594247      -0.09689519
In       4.47404277      -2.72240167       5.22481996        5       0.07911459       0.11188493      -0.00000000
In      -1.21402075       1.29966661       5.22481996        6       0.07911459       0.11188493       0.00000000
In      -1.63001102       6.74446996       1.74160665        7      -0.07911459      -0.11188493       0.00000000
In       4.05805250       0.14707477       3.73795428        8      -0.07911459       0.05594247       0.09689519
In      -1.42201588       4.02206829      -0.00000000        9      -0.00000000      -0.00000000      -0.00000000
In       4.05805250       6.18017720       0.25474097       10      -0.07911459       0.05594247       0.09689519
In      -1.21402075      -2.15810891       6.71168565       11       0.07911459      -0.05594247      -0.09689519
In       4.05805250       2.72240168       1.74160665       12      -0.07911459      -0.11188493       0.00000000
In       1.63001101       4.88051059       1.99634763       13       0.07911459      -0.05594247       0.09689519
In       4.26604764       0.00000000      -0.00000000       14       0.00000000      -0.00000000       0.00000000
In       1.42201588       2.01103414       3.48321331       15      -0.00000000       0.00000000       0.00000000
O        0.83048567       4.02078643       3.82655062       16       0.01474981      -0.02815642       0.08753416
O       -2.01354609       3.31453098       5.05426143       17       0.01474981       0.08988501      -0.01938291
O       -0.39145257       2.16753765       0.07448554       18       0.06311488       0.05568574       0.03985197
O       -0.83048567      -0.70881917       1.91438543       19      -0.01474981       0.06172860       0.06815125
O        3.79615180       4.77389170       1.83989989       20       0.07982780      -0.03872005       0.02829929
O        1.89191171       2.80457995       1.57104812       21      -0.07982780      -0.04386793      -0.01938291
O        1.89191171       5.99138004       0.26885177       22      -0.07982780       0.00514787       0.04768219
O       -2.17405828       5.67965490       3.55769885       23      -0.03146273      -0.07806720       0.03985197
O        3.23548432       1.85453064       6.89194108       24      -0.06311488      -0.05568574      -0.03985197
O        5.01809004      -1.65758661       3.40872777       25       0.03146273       0.07806720      -0.03985197
O        6.07951608       3.15930934       1.64331341       26      -0.06311488       0.06235569      -0.02829929
O        3.51400524       2.25226428       3.75206508       27      -0.03146273       0.07354641       0.04768219
O        0.66997348       4.13428568       6.62308931       28      -0.03146273       0.00452079      -0.08753416
O        2.17405828      -0.11221739       0.34333731       29       0.03146273      -0.00452079       0.08753416
O       -3.23548433       0.86275895       5.32311320       30       0.06311488      -0.06235569       0.02829929
O        4.85757785       0.70753731       1.91216518       31      -0.01474981      -0.08988501       0.01938291
O        0.95212004       1.21748834       5.39537849       32       0.07982780       0.04386793       0.01938291
O        3.23548432      -0.99177169       5.39759874       33      -0.06311488      -0.00666994       0.06815125
O        2.01354609       0.00128186       3.13987600       34      -0.01474981       0.02815642      -0.08753416
O        0.95212004      -1.96931175       6.69757485       35       0.07982780      -0.00514787      -0.04768219
O       -0.66997348       1.76980401       3.21436154       36       0.03146273      -0.07354641      -0.04768219
O       -0.95212005      -0.75182341       5.12652672       37      -0.07982780       0.03872005      -0.02829929
O       -0.39145257       5.01383998       1.56882787       38       0.06311488       0.00666994      -0.06815125
O        3.67451742       4.73088746       5.05204118       39       0.01474981      -0.06172860      -0.06815125
40
Lattice="8.53209527625303 6.687233809681368e-10 6.709741170684936e-15 -2.844031759381491 8.044136569868064 -1.1582715652293445e-09 -2.8440317584357766 -4.022068284265303 6.966426621789333" Properties=species:S:1:pos:R:3:spacegroup_kinds:I:1:forces:R:3 spacegroup="P 1" unit_cell=conventional occupancy="_JSON {\"0\": {\"In\": 1}, \"1\": {\"In\": 1}, \"2\": {\"In\": 1}, \"3\": {\"In\": 1}, \"4\": {\"In\": 1}, \"5\": {\"In\": 1}, \"6\": {\"In\": 1}, \"7\": {\"In\": 1}, \"8\": {\"In\": 1}, \"9\": {\"In\": 1}, \"10\": {\"In\": 1}, \"11\": {\"In\": 1}, \"12\": {\"In\": 1}, \"13\": {\"In\": 1}, \"14\": {\"In\": 1}, \"15\": {\"In\": 1}, \"16\": {\"O\": 1}, \"17\": {\"O\": 1}, \"18\": {\"O\": 1}, \"19\": {\"O\": 1}, \"20\": {\"O\": 1}, \"21\": {\"O\": 1}, \"22\": {\"O\": 1}, \"23\": {\"O\": 1}, \"24\": {\"O\": 1}, \"25\": {\"O\": 1}, \"26\": {\"O\": 1}, \"27\": {\"O\": 1}, \"28\": {\"O\": 1}, \"29\": {\"O\": 1}, \"30\": {\"O\": 1}, \"31\": {\"O\": 1}, \"32\": {\"O\": 1}, \"33\": {\"O\": 1}, \"34\": {\"O\": 1}, \"35\": {\"O\": 1}, \"36\": {\"O\": 1}, \"37\": {\"O\": 1}, \"38\": {\"O\": 1}, \"39\": {\"O\": 1}}" n_minim_iter=2 energy=-45149.19402684882 stress="-0.08360248094687601 2.014022977641764e-14 4.3111527065173233e-13 2.014022977641764e-14 -0.0836024809456342 7.795318009875234e-13 4.3111527065173233e-13 7.795318009875234e-13 -0.08360248094631301" free_energy=-45149.19402684882 pbc="T T T"
In      -4.04392180       2.85948452       5.49686745        0      -0.00055106       0.00038966      -0.00067491
In       6.88795355       1.16258376       1.46955916        1       0.00055106      -0.00038966       0.00067491
In       1.19989003      -0.84845038       4.95277247        2       0.00055106      -0.00038966       0.00067491
In      -1.42201588      -2.01103414       3.48321331        3      -0.00000000      -0.00000000      -0.00000000
In      -1.19989004       3.86500160       3.21116582        4      -0.00055106       0.00038966       0.00067491
In       4.48817348      -2.70241783       5.22481996        5      -0.00055106      -0.00077931       0.00000000
In      -1.19989004       1.31965046       5.22481996        6      -0.00055106      -0.00077931       0.00000000
In      -1.64414173       6.72448612       1.74160665        7       0.00055106       0.00077931       0.00000000
In       4.04392179       0.15706669       3.75526080        8       0.00055106      -0.00038966      -0.00067491
In      -1.42201588       4.02206829      -0.00000000        9       0.00000000       0.00000000      -0.00000000
In       4.04392179       6.19016912       0.27204749       10       0.00055106      -0.00038966      -0.00067491
In      -1.19989004      -2.16810083       6.69437913       11      -0.00055106       0.00038966       0.00067491
In       4.04392179       2.70241783       1.74160665       12       0.00055106       0.00077931      -0.00000000
In       1.64414172       4.87051867       2.01365414       13      -0.00055106       0.00038966      -0.00067491
In       4.26604764       0.00000000      -0.00000000       14      -0.00000000      -0.00000000       0.00000000
In       1.42201588       2.01103414       3.48321331       15       0.00000000       0.00000000       0.00000000
O        0.83312014       4.01575739       3.84218515       16       0.03475187       0.08767985       0.02277563
O       -2.01091162       3.33058540       5.05079944       17       0.03475187      -0.02411565      -0.08732079
O       -0.38017958       2.17748371       0.08160352       18       0.07151285      -0.05010960      -0.04229796
O       -0.83312014      -0.69779378       1.92655797       19      -0.03475187       0.06356420      -0.06454516
O        3.81040990       4.76697589       1.84495445       20      -0.03432041      -0.08798493      -0.02224720
O        1.87765362       2.79674467       1.56758613       21       0.03432041      -0.02472582      -0.08732079
O        1.87765362       5.99229951       0.27736832       22       0.03432041      -0.06325911       0.06507359
O       -2.17967786       5.66571126       3.56481683       23       0.07108140      -0.05071977      -0.04229796
O        3.22421133       1.84458457       6.88482309       24      -0.07151285       0.05010960       0.04229796
O        5.02370961      -1.64364298       3.40160978       25      -0.07108140       0.05071977       0.04229796
O        6.06824309       3.17044673       1.63825886       26      -0.07151285      -0.06168590       0.02224720
O        3.50838566       2.26540045       3.76058163       27       0.07108140      -0.01127122       0.06507359
O        0.66435390       4.13509314       6.60745477       28       0.07108140       0.06199099      -0.02277563
O        2.17967786      -0.11302485       0.35897184       29      -0.07108140      -0.06199099       0.02277563
O       -3.22421133       0.85162156       5.32816776       30       0.07151285       0.06168590      -0.02224720
O        4.85494337       0.69148289       1.91562718       31      -0.03475187       0.02411565       0.08732079
O        0.96637814       1.22532362       5.39884049       32      -0.03432041       0.02472582       0.08732079
O        3.22421133      -0.99296301       5.40977128       33      -0.07151285       0.01157631      -0.06454516
O        2.01091162       0.00631090       3.12424146       34      -0.03475187      -0.08767985      -0.02277563
O        0.96637814      -1.97023122       6.68905830       35      -0.03432041       0.06325911      -0.06507359
O       -0.66435390       1.75666784       3.20584499       36      -0.07108140       0.01127122      -0.06507359
O       -0.96637814      -0.74490760       5.12147217       37       0.03432041       0.08798493       0.02224720
O       -0.38017958       5.01503130       1.55665533       38       0.07151285      -0.01157631       0.06454516
O        3.67715190       4.71986207       5.03986864       39       0.03475187      -0.06356420       0.06454516
40
Lattice="8.532095276253026 6.687233809681366e-10 6.709741170684938e-15 -2.8440317593814903 8.04413656986806 -1.1582715652293441e-09 -2.8440317584357757 -4.022068284265301 6.9664266217893305" Properties=species:S:1:pos:R:3:spacegroup_kinds:I:1:forces:R:3 spacegroup="P 1" unit_cell=conventional occupancy="_JSON {\"0\": {\"In\": 1}, \"1\": {\"In\": 1}, \"2\": {\"In\": 1}, \"3\": {\"In\": 1}, \"4\": {\"In\": 1}, \"5\": {\"In\": 1}, \"6\": {\"In\": 1}, \"7\": {\"In\": 1}, \"8\": {\"In\": 1}, \"9\": {\"In\": 1}, \"10\": {\"In\": 1}, \"11\": {\"In\": 1}, \"12\": {\"In\": 1}, \"13\": {\"In\": 1}, \"14\": {\"In\": 1}, \"15\": {\"In\": 1}, \"16\": {\"O\": 1}, \"17\": {\"O\": 1}, \"18\": {\"O\": 1}, \"19\": {\"O\": 1}, \"20\": {\"O\": 1}, \"21\": {\"O\": 1}, \"22\": {\"O\": 1}, \"23\": {\"O\": 1}, \"24\": {\"O\": 1}, \"25\": {\"O\": 1}, \"26\": {\"O\": 1}, \"27\": {\"O\": 1}, \"28\": {\"O\": 1}, \"29\": {\"O\": 1}, \"30\": {\"O\": 1}, \"31\": {\"O\": 1}, \"32\": {\"O\": 1}, \"33\": {\"O\": 1}, \"34\": {\"O\": 1}, \"35\": {\"O\": 1}, \"36\": {\"O\": 1}, \"37\": {\"O\": 1}, \"38\": {\"O\": 1}, \"39\": {\"O\": 1}}" n_minim_iter=3 energy=-45149.20046635142 stress="-0.08206047429251254 -9.175953331035e-14 -4.815109212100217e-13 -9.175953331035e-14 -0.08206047429247025 -1.613322127752759e-13 -4.815109212100217e-13 -1.613322127752759e-13 -0.08206047429228214" free_energy=-45149.20046635142 pbc="T T T"
In      -4.04167694       2.85789717       5.49961683        0       0.03044440      -0.02152744       0.03728662
In       6.88570870       1.16417112       1.46680979        1      -0.03044440       0.02152744      -0.03728662
In       1.19764518      -0.84686303       4.95002310        2      -0.03044440       0.02152744      -0.03728662
In      -1.42201588      -2.01103414       3.48321331        3       0.00000000       0.00000000      -0.00000000
In      -1.19764518       3.86341424       3.20841645        4       0.03044440      -0.02152744      -0.03728662
In       4.49041834      -2.69924313       5.22481996        5       0.03044440       0.04305489      -0.00000000
In      -1.19764518       1.32282516       5.22481996        6       0.03044440       0.04305489       0.00000000
In      -1.64638658       6.72131142       1.74160665        7      -0.03044440      -0.04305489       0.00000000
In       4.04167694       0.15865404       3.75801017        8      -0.03044440       0.02152744       0.03728662
In      -1.42201588       4.02206829      -0.00000000        9      -0.00000000       0.00000000       0.00000000
In       4.04167694       6.19175647       0.27479686       10      -0.03044440       0.02152744       0.03728662
In      -1.19764518      -2.16968818       6.69162976       11       0.03044440      -0.02152744      -0.03728662
In       4.04167694       2.69924313       1.74160665       12      -0.03044440      -0.04305489       0.00000000
In       1.64638658       4.86893132       2.01640351       13       0.03044440      -0.02152744       0.03728662
In       4.26604764       0.00000000      -0.00000000       14      -0.00000000      -0.00000000      -0.00000000
In       1.42201588       2.01103414       3.48321331       15      -0.00000000      -0.00000000       0.00000000
O        0.83553376       4.01996608       3.84600750       16       0.01519242       0.00349879      -0.04029619
O       -2.00849800       3.33179131       5.04524344       17       0.01519242      -0.03664692       0.01711806
O       -0.37427011       2.17621768       0.08032904       18      -0.02618822      -0.00738639      -0.03356267
O       -0.83553376      -0.69237919       1.92482432       19      -0.01519242      -0.03314813      -0.02317814
O        3.81074230       4.76082547       1.84449527       20      -0.03961519       0.01377072       0.01038453
O        1.87732122       2.79406712       1.56203013       21       0.03961519      -0.00210791       0.01711806
O        1.87732122       5.98882664       0.28246514       22       0.03961519       0.01587862      -0.00673353
O       -2.17651441       5.66056178       3.56354235       23      -0.00176545       0.02715262      -0.03356267
O        3.21830187       1.84585061       6.88609757       24       0.02618822       0.00738639       0.03356267
O        5.02054617      -1.63849349       3.40288426       25       0.00176545      -0.02715262       0.03356267
O        6.06233362       3.16870998       1.63871803       26       0.02618822      -0.03275932      -0.01038453
O        3.51154911       2.26687146       3.76567845       27      -0.00176545      -0.04264243      -0.00673353
O        0.66751735       4.13877162       6.60363243       28      -0.00176545       0.01548981       0.04029619
O        2.17651441      -0.11670333       0.36279419       29       0.00176545      -0.01548981      -0.04029619
O       -3.21830187       0.85335831       5.32770858       30      -0.02618822       0.03275932       0.01038453
O        4.85252976       0.69027698       1.92118318       31      -0.01519242       0.03664692      -0.01711806
O        0.96671054       1.22800117       5.40439649       32      -0.03961519       0.00210791      -0.01711806
O        3.21830187      -0.99249229       5.40803763       33       0.02618822       0.02537293      -0.02317814
O        2.00849800       0.00210221       3.12041912       34      -0.01519242      -0.00349879       0.04029619
O        0.96671054      -1.96675836       6.68396147       35      -0.03961519      -0.01587862       0.00673353
O       -0.66751735       1.75519683       3.20074816       36       0.00176545       0.04264243       0.00673353
O       -0.96671054      -0.73875718       5.12193135       37       0.03961519      -0.01377072      -0.01038453
O       -0.37427011       5.01456058       1.55838899       38      -0.02618822      -0.02537293       0.02317814
O        3.67956552       4.71444748       5.04160230       39       0.01519242       0.03314813       0.02317814
40
Lattice="8.532095276253026 6.687233809681366e-10 6.709741170684936e-15 -2.8440317593814903 8.04413656986806 -1.1582715652293441e-09 -2.8440317584357757 -4.022068284265301 6.9664266217893305" Properties=species:S:1:pos:R:3:spacegroup_kinds:I:1:forces:R:3 spacegroup="P 1" unit_cell=conventional occupancy="_JSON {\"0\": {\"In\": 1}, \"1\": {\"In\": 1}, \"2\": {\"In\": 1}, \"3\": {\"In\": 1}, \"4\": {\"In\": 1}, \"5\": {\"In\": 1}, \"6\": {\"In\": 1}, \"7\": {\"In\": 1}, \"8\": {\"In\": 1}, \"9\": {\"In\": 1}, \"10\": {\"In\": 1}, \"11\": {\"In\": 1}, \"12\": {\"In\": 1}, \"13\": {\"In\": 1}, \"14\": {\"In\": 1}, \"15\": {\"In\": 1}, \"16\": {\"O\": 1}, \"17\": {\"O\": 1}, \"18\": {\"O\": 1}, \"19\": {\"O\": 1}, \"20\": {\"O\": 1}, \"21\": {\"O\": 1}, \"22\": {\"O\": 1}, \"23\": {\"O\": 1}, \"24\": {\"O\": 1}, \"25\": {\"O\": 1}, \"26\": {\"O\": 1}, \"27\": {\"O\": 1}, \"28\": {\"O\": 1}, \"29\": {\"O\": 1}, \"30\": {\"O\": 1}, \"31\": {\"O\": 1}, \"32\": {\"O\": 1}, \"33\": {\"O\": 1}, \"34\": {\"O\": 1}, \"35\": {\"O\": 1}, \"36\": {\"O\": 1}, \"37\": {\"O\": 1}, \"38\": {\"O\": 1}, \"39\": {\"O\": 1}}" n_minim_iter=4 energy=-45149.202806241745 stress="-0.08112018508203551 -4.16323831578466e-13 2.4594115877577373e-14 -4.16323831578466e-13 -0.08112018508168242 -7.19431317534282e-13 2.4594115877577373e-14 -7.19431317534282e-13 -0.08112018508297486" free_energy=-45149.202806241745 pbc="T T T"
In      -4.03841410       2.85558999       5.50361298        0      -0.00822960       0.00581920      -0.01007916
In       6.88244585       1.16647830       1.46281364        1       0.00822960      -0.00581920       0.01007916
In       1.19438233      -0.84455585       4.94602695        2       0.00822960      -0.00581920       0.01007916
In      -1.42201588      -2.01103414       3.48321331        3      -0.00000000      -0.00000000       0.00000000
In      -1.19438234       3.86110706       3.20442029        4      -0.00822960       0.00581920       0.01007916
In       4.49368118      -2.69462877       5.22481996        5      -0.00822960      -0.01163841      -0.00000000
In      -1.19438234       1.32743952       5.22481996        6      -0.00822960      -0.01163841      -0.00000000
In      -1.64964942       6.71669706       1.74160665        7       0.00822960       0.01163841       0.00000000
In       4.03841409       0.16096122       3.76200632        8       0.00822960      -0.00581920      -0.01007916
In      -1.42201588       4.02206829      -0.00000000        9      -0.00000000      -0.00000000      -0.00000000
In       4.03841409       6.19406365       0.27879301       10       0.00822960      -0.00581920      -0.01007916
In      -1.19438234      -2.17199536       6.68763360       11      -0.00822960       0.00581920       0.01007916
In       4.03841409       2.69462877       1.74160665       12       0.00822960       0.01163841      -0.00000000
In       1.64964942       4.86662414       2.02039967       13      -0.00822960       0.00581920      -0.01007916
In       4.26604764       0.00000000      -0.00000000       14       0.00000000      -0.00000000      -0.00000000
In       1.42201588       2.01103414       3.48321331       15      -0.00000000      -0.00000000      -0.00000000
O        0.83745779       4.02153792       3.84571036       16       0.02400523      -0.00501791      -0.00234559
O       -2.00657397       3.33074805       5.04403075       17       0.02400523       0.00047761       0.00551844
O       -0.37313041       2.17572903       0.07815575       18       0.00372111       0.01482066      -0.01932444
O       -0.83745779      -0.69185060       1.92331449       19      -0.02400523      -0.00454030       0.00317284
O        3.80911736       4.75904213       1.84515873       20      -0.00755145      -0.00661667       0.02249729
O        1.87894615       2.79260087       1.56081744       21       0.00755145      -0.02279156       0.00551844
O        1.87894615       5.98850955       0.28434129       22       0.00755145       0.01617488       0.01697885
O       -2.17567381       5.65965014       3.56136906       23      -0.01273268      -0.00844851      -0.01932444
O        3.21716216       1.84633926       6.88827086       24      -0.00372111      -0.01482066       0.01932444
O        5.01970556      -1.63758185       3.40505755       25       0.01273268       0.00844851       0.01932444
O        6.06119392       3.16658353       1.63805457       26      -0.00372111      -0.00932513      -0.02249729
O        3.51238971       2.26544516       3.76755460       27      -0.01273268      -0.01251120       0.01697885
O        0.66835795       4.14110956       6.60392957       28      -0.01273268       0.02095972       0.00234559
O        2.17567380      -0.11904127       0.36249705       29       0.01273268      -0.02095972      -0.00234559
O       -3.21716216       0.85548476       5.32837204       30       0.00372111       0.00932513       0.02249729
O        4.85060572       0.69132024       1.92239587       31      -0.02400523      -0.00047761      -0.00551844
O        0.96508561       1.22946742       5.40560918       32      -0.00755145       0.02279156      -0.00551844
O        3.21716216      -0.99085449       5.40652780       33      -0.00372111       0.02414579       0.00317284
O        2.00657396       0.00053037       3.12071626       34      -0.02400523       0.00501791       0.00234559
O        0.96508561      -1.96644126       6.68208533       35      -0.00755145      -0.01617488      -0.01697885
O       -0.66835796       1.75662313       3.19887201       36       0.01273268       0.01251120      -0.01697885
O       -0.96508561      -0.73697385       5.12126788       37       0.00755145       0.00661667      -0.02249729
O       -0.37313041       5.01292278       1.55989882       38       0.00372111      -0.02414579      -0.00317284
O        3.68148955       4.71391889       5.04311213       39       0.02400523       0.00454030      -0.00317284
40
Lattice="8.532095276253024 6.687233809681365e-10 6.709741170684934e-15 -2.84403175938149 8.044136569868058 -1.1582715652293437e-09 -2.8440317584357753 -4.0220682842653 6.966426621789329" Properties=species:S:1:pos:R:3:spacegroup_kinds:I:1:forces:R:3 spacegroup="P 1" unit_cell=conventional occupancy="_JSON {\"0\": {\"In\": 1}, \"1\": {\"In\": 1}, \"2\": {\"In\": 1}, \"3\": {\"In\": 1}, \"4\": {\"In\": 1}, \"5\": {\"In\": 1}, \"6\": {\"In\": 1}, \"7\": {\"In\": 1}, \"8\": {\"In\": 1}, \"9\": {\"In\": 1}, \"10\": {\"In\": 1}, \"11\": {\"In\": 1}, \"12\": {\"In\": 1}, \"13\": {\"In\": 1}, \"14\": {\"In\": 1}, \"15\": {\"In\": 1}, \"16\": {\"O\": 1}, \"17\": {\"O\": 1}, \"18\": {\"O\": 1}, \"19\": {\"O\": 1}, \"20\": {\"O\": 1}, \"21\": {\"O\": 1}, \"22\": {\"O\": 1}, \"23\": {\"O\": 1}, \"24\": {\"O\": 1}, \"25\": {\"O\": 1}, \"26\": {\"O\": 1}, \"27\": {\"O\": 1}, \"28\": {\"O\": 1}, \"29\": {\"O\": 1}, \"30\": {\"O\": 1}, \"31\": {\"O\": 1}, \"32\": {\"O\": 1}, \"33\": {\"O\": 1}, \"34\": {\"O\": 1}, \"35\": {\"O\": 1}, \"36\": {\"O\": 1}, \"37\": {\"O\": 1}, \"38\": {\"O\": 1}, \"39\": {\"O\": 1}}" n_minim_iter=5 energy=-45149.20328748248 stress="-0.08176647200941084 -5.074373803006635e-13 5.669530207246561e-13 -5.074373803006635e-13 -0.08176647200822307 8.577616491800161e-14 5.669530207246561e-13 8.577616491800161e-14 -0.0817664720087478" free_energy=-45149.20328748248 pbc="T T T"
In      -4.03953008       2.85637911       5.50224618        0      -0.00085518       0.00060470      -0.00104738
In       6.88356184       1.16568918       1.46418043        1       0.00085518      -0.00060470       0.00104738
In       1.19549832      -0.84534497       4.94739375        2       0.00085518      -0.00060470       0.00104738
In      -1.42201588      -2.01103414       3.48321331        3       0.00000000       0.00000000      -0.00000000
In      -1.19549832       3.86189618       3.20578709        4      -0.00085518       0.00060470       0.00104738
In       4.49256520      -2.69620701       5.22481996        5      -0.00085518      -0.00120941       0.00000000
In      -1.19549832       1.32586128       5.22481996        6      -0.00085518      -0.00120941       0.00000000
In      -1.64853344       6.71827530       1.74160665        7       0.00085518       0.00120941      -0.00000000
In       4.03953008       0.16017210       3.76063953        8       0.00085518      -0.00060470      -0.00104738
In      -1.42201588       4.02206829      -0.00000000        9      -0.00000000       0.00000000       0.00000000
In       4.03953008       6.19327453       0.27742622       10       0.00085518      -0.00060470      -0.00104738
In      -1.19549832      -2.17120624       6.68900040       11      -0.00085518       0.00060470       0.00104738
In       4.03953008       2.69620701       1.74160665       12       0.00085518       0.00120941      -0.00000000
In       1.64853344       4.86741326       2.01903287       13      -0.00085518       0.00060470      -0.00104738
In       4.26604764       0.00000000      -0.00000000       14       0.00000000       0.00000000      -0.00000000
In       1.42201588       2.01103414       3.48321331       15       0.00000000       0.00000000      -0.00000000
O        0.83848191       4.02199453       3.84396568       16       0.01495015      -0.01348620       0.00613557
O       -2.00554985       3.32900882       5.04450765       17       0.01495015       0.01205666       0.00861161
O       -0.37399831       2.17532766       0.07631541       18       0.00363560       0.02005726      -0.00524583
O       -0.83848192      -0.69313323       1.92204672       19      -0.01495015      -0.00142954       0.01474718
O        3.80713622       4.75926224       1.84573130       20       0.00638375      -0.00159914       0.01999301
O        1.88092729       2.79221506       1.56129434       21      -0.00638375      -0.01811402       0.00861161
O        1.88092729       5.98911546       0.28443696       22      -0.00638375       0.01651489       0.01138140
O       -2.17558469       5.66060219       3.55952872       23      -0.01769830      -0.01011343      -0.00524583
O        3.21803006       1.84674063       6.89011120       24      -0.00363560      -0.02005726       0.00524583
O        5.01961644      -1.63853390       3.40689789       25       0.01769830       0.01011343       0.00524583
O        6.06206182       3.16478906       1.63748200       26      -0.00363560       0.00548561      -0.01999301
O        3.51247883       2.26337535       3.76765027       27      -0.01769830       0.00051369       0.01138140
O        0.66844707       4.14222732       6.60567424       28      -0.01769830       0.00959974      -0.00613557
O        2.17558469      -0.12015903       0.36075237       29       0.01769830      -0.00959974       0.00613557
O       -3.21803006       0.85727923       5.32894461       30       0.00363560      -0.00548561       0.01999301
O        4.84958160       0.69305947       1.92191896       31      -0.01495015      -0.01205666      -0.00861161
O        0.96310447       1.22985322       5.40513227       32       0.00638375       0.01811402      -0.00861161
O        3.21803006      -0.98946140       5.40526003       33      -0.00363560       0.01457165       0.01474718
O        2.00554984       0.00007376       3.12246093       34      -0.01495015       0.01348621      -0.00613557
O        0.96310447      -1.96704718       6.68198966       35       0.00638375      -0.01651489      -0.01138140
O       -0.66844707       1.75869294       3.19877635       36       0.01769830      -0.00051369      -0.01138140
O       -0.96310447      -0.73719395       5.12069531       37      -0.00638375       0.00159914      -0.01999301
O       -0.37399831       5.01152969       1.56116659       38       0.00363560      -0.01457165      -0.01474718
O        3.68251367       4.71520152       5.04437990       39       0.01495015       0.00142954      -0.01474718
40