40
Lattice="8.10475889886203 6.352265203614422e-10 3.039461587381212e-14 -2.701586300219573 7.641239969478068 -1.100250937826141e-09 -2.7015862993212534 -3.8206199841038124 6.61750793071452" Properties=species:S:1:pos:R:3:spacegroup_kinds:I:1:forces:R:3 spacegroup="P 1" unit_cell=conventional occupancy="_JSON {\"0\": {\"In\": 1}, \"1\": {\"In\": 1}, \"2\": {\"In\": 1}, \"3\": {\"In\": 1}, \"4\": {\"In\": 1}, \"5\": {\"In\": 1}, \"6\": {\"In\": 1}, \"7\": {\"In\": 1}, \"8\": {\"In\": 1}, \"9\": {\"In\": 1}, \"10\": {\"In\": 1}, \"11\": {\"In\": 1}, \"12\": {\"In\": 1}, \"13\": {\"In\": 1}, \"14\": {\"In\": 1}, \"15\": {\"In\": 1}, \"16\": {\"O\": 1}, \"17\": {\"O\": 1}, \"18\": {\"O\": 1}, \"19\": {\"O\": 1}, \"20\": {\"O\": 1}, \"21\": {\"O\": 1}, \"22\": {\"O\": 1}, \"23\": {\"O\": 1}, \"24\": {\"O\": 1}, \"25\": {\"O\": 1}, \"26\": {\"O\": 1}, \"27\": {\"O\": 1}, \"28\": {\"O\": 1}, \"29\": {\"O\": 1}, \"30\": {\"O\": 1}, \"31\": {\"O\": 1}, \"32\": {\"O\": 1}, \"33\": {\"O\": 1}, \"34\": {\"O\": 1}, \"35\": {\"O\": 1}, \"36\": {\"O\": 1}, \"37\": {\"O\": 1}, \"38\": {\"O\": 1}, \"39\": {\"O\": 1}}" n_minim_iter=1 energy=-45143.99226651921 stress="-0.20208697842292236 7.431810423123666e-14 -4.540912129381042e-13 7.431810423123666e-14 -0.20208697842305445 -2.456320405216483e-14 -4.540912129381042e-13 -2.456320405216483e-14 -0.20208697842272966" free_energy=-45143.99226651921 pbc="T T T"
In      -3.66762000       2.59339897       5.43436311        0       0.34581153      -0.24452568       0.42353090
In       6.36920630       1.22722101       1.18314482        1      -0.34581153       0.24452568      -0.42353090
In       0.96603370      -0.68308898       4.49189878        2      -0.34581153       0.24452568      -0.42353090
In      -1.35079315      -1.91030999       3.30875396        3      -0.00000000       0.00000000       0.00000000
In      -0.96603370       3.54855397       2.83752180        4       0.34581153      -0.24452568      -0.42353090
In       4.43713890      -2.32133295       4.96313095        5       0.34581153       0.48905136      -0.00000000
In      -0.96603370       1.49928703       4.96313095        6       0.34581153       0.48905136      -0.00000000
In      -1.73555260       6.14195294       1.65437698        7      -0.34581153      -0.48905136       0.00000000
In       3.66762000       0.27206602       3.77998613        8      -0.34581153       0.24452568       0.42353090
In      -1.35079315       3.82061999      -0.00000000        9       0.00000000       0.00000000      -0.00000000
In       3.66762000       6.00299600       0.47123216       10      -0.34581153       0.24452568       0.42353090
In      -0.96603370      -2.18237601       6.14627576       11       0.34581153      -0.24452568      -0.42353090
In       3.66762000       2.32133296       1.65437698       12      -0.34581153      -0.48905136       0.00000000
In       1.73555260       4.50370897       2.12560914       13       0.34581153      -0.24452568       0.42353090
In       4.05237945       0.00000000      -0.00000000       14       0.00000000      -0.00000000       0.00000000
In       1.35079315       1.91030999       3.30875396       15      -0.00000000      -0.00000000       0.00000000
O        0.65260476       3.74341369       4.07461405       16       0.02425890       0.09203124       0.15965541
O       -2.04898154       3.56732243       4.64706351       17       0.02425890       0.09225002      -0.15952910
O       -0.09406710       2.18498917       0.42382702       18       0.18182834      -0.01916840       0.03345327
O       -0.65260476      -0.33050385       2.10416964       19      -0.02425890       0.18428126       0.00012631
O        4.04629768       4.39582049       1.68034261       20       0.07888785      -0.16496701      -0.03332695
O        1.35687491       2.65300084       1.33830955       21      -0.07888785      -0.05362152      -0.15952910
O        1.35687491       5.56343963       0.34203306       22      -0.07888785      -0.11134549       0.12620214
O       -2.09138325       5.09128757       3.73258098       23       0.07868159      -0.16503994       0.03345327
O        2.79565340       1.63563082       6.19368091       24      -0.18182834       0.01916840      -0.03345327
O        4.79296954      -1.27066758       2.88492694       25      -0.07868159       0.16503994      -0.03345327
O        5.49723970       3.36984955       1.62841135       26      -0.18182834       0.01938718       0.03332695
O        3.31178935       2.59717617       3.65078703       27       0.07868159       0.11149135       0.12620214
O        0.61020305       3.77339622       5.85164784       28       0.07868159       0.05354859      -0.15965541
O        2.09138324       0.04722377       0.76586008       29      -0.07868159      -0.05354859       0.15965541
O       -2.79565340       0.45077044       4.98909658       30       0.18182834      -0.01938718      -0.03332695
O        4.75056784       0.25329756       1.97044441       31      -0.02425890      -0.09225002       0.15952910
O        1.34471138       1.16761915       5.27919838       32       0.07888785       0.05362152       0.15952910
O        2.79565340      -1.18486037       5.41292360       33      -0.18182834      -0.03855558       0.00012631
O        2.04898154       0.07720630       2.54289388       34      -0.02425890      -0.09203124      -0.15965541
O        1.34471138      -1.74281964       6.27547486       35       0.07888785       0.11134549      -0.12620214
O       -0.61020306       1.22344382       2.96672090       36      -0.07868159      -0.11149135      -0.12620214
O       -1.34471139      -0.57520050       4.93716531       37      -0.07888785       0.16496701       0.03332695
O       -0.09406710       5.00548036       1.20458432       38       0.18182834       0.03855558      -0.00012631
O        3.35419105       4.15112384       4.51333829       39       0.02425890      -0.18428126      -0.00012631
40
Lattice="8.104758898862038 6.352265203614428e-10 3.039461587381213e-14 -2.7015863002195757 7.641239969478075 -1.1002509378261423e-09 -2.701586299321256 -3.820619984103816 6.617507930714529" Properties=species:S:1:pos:R:3:spacegroup_kinds:I:1:forces:R:3 spacegroup="P 1" unit_cell=conventional occupancy="_JSON {\"0\": {\"In\": 1}, \"1\": {\"In\": 1}, \"2\": {\"In\": 1}, \"3\": {\"In\": 1}, \"4\": {\"In\": 1}, \"5\": {\"In\": 1}, \"6\": {\"In\": 1}, \"7\": {\"In\": 1}, \"8\": {\"In\": 1}, \"9\": {\"In\": 1}, \"10\": {\"In\": 1}, \"11\": {\"In\": 1}, \"12\": {\"In\": 1}, \"13\": {\"In\": 1}, \"14\": {\"In\": 1}, \"15\": {\"In\": 1}, \"16\": {\"O\": 1}, \"17\": {\"O\": 1}, \"18\": {\"O\": 1}, \"19\": {\"O\": 1}, \"20\": {\"O\": 1}, \"21\": {\"O\": 1}, \"22\": {\"O\": 1}, \"23\": {\"O\": 1}, \"24\": {\"O\": 1}, \"25\": {\"O\": 1}, \"26\": {\"O\": 1}, \"27\": {\"O\": 1}, \"28\": {\"O\": 1}, \"29\": {\"O\": 1}, \"30\": {\"O\": 1}, \"31\": {\"O\": 1}, \"32\": {\"O\": 1}, \"33\": {\"O\": 1}, \"34\": {\"O\": 1}, \"35\": {\"O\": 1}, \"36\": {\"O\": 1}, \"37\": {\"O\": 1}, \"38\": {\"O\": 1}, \"39\": {\"O\": 1}}" n_minim_iter=2 energy=-45144.24860753078 stress="-0.17597790666629087 -3.2635534588012693e-14 2.1373173330038056e-13 -3.2635534588012693e-14 -0.17597790666802512 2.540960949971838e-13 2.1373173330038056e-13 2.540960949971838e-13 -0.1759779066683767" free_energy=-45144.24860753078 pbc="T T T"
In      -3.64291918       2.57593285       5.46461532        0       0.12566865      -0.08886115       0.15391203
In       6.34450547       1.24468713       1.15289261        1      -0.12566865       0.08886115      -0.15391203
In       0.94133287      -0.66562286       4.46164657        2      -0.12566865       0.08886115      -0.15391203
In      -1.35079315      -1.91030999       3.30875396        3       0.00000000       0.00000000       0.00000000
In      -0.94133288       3.53108785       2.80726959        4       0.12566865      -0.08886115      -0.15391203
In       4.46183972      -2.28640071       4.96313095        5       0.12566865       0.17772231      -0.00000000
In      -0.94133288       1.53421927       4.96313095        6       0.12566865       0.17772231      -0.00000000
In      -1.76025343       6.10702070       1.65437698        7      -0.12566865      -0.17772231       0.00000000
In       3.64291917       0.28953214       3.81023833        8      -0.12566865       0.08886115       0.15391203
In      -1.35079315       3.82061999      -0.00000000        9       0.00000000      -0.00000000       0.00000000
In       3.64291917       6.02046212       0.50148437       10      -0.12566865       0.08886115       0.15391203
In      -0.94133288      -2.19984213       6.11602356       11       0.12566865      -0.08886115      -0.15391203
In       3.64291917       2.28640072       1.65437698       12      -0.12566865      -0.17772231       0.00000000
In       1.76025342       4.48624285       2.15586135       13       0.12566865      -0.08886115       0.15391203
In       4.05237945       0.00000000      -0.00000000       14      -0.00000000       0.00000000      -0.00000000
In       1.35079315       1.91030999       3.30875396       15      -0.00000000       0.00000000      -0.00000000
O        0.65433753       3.74998735       4.08601801       16      -0.04459102       0.09989238       0.06597186
O       -2.04724877       3.57391172       4.63566858       17      -0.04459102       0.00718712      -0.11949527
O       -0.08107937       2.18362000       0.42621654       18       0.08609185      -0.08521963       0.04055790
O       -0.65433754      -0.31734090       2.10417866       19       0.04459102       0.10707950      -0.05352341
O        4.05193253       4.38403713       1.67796212       20       0.02163975      -0.08366339      -0.09408131
O        1.35124007       2.64917073       1.32691461       21      -0.02163975       0.03964511      -0.11949527
O        1.35124007       5.55548638       0.35104750       22      -0.02163975      -0.12330850       0.02541396
O       -2.08576313       5.07949900       3.73497050       23       0.10904312      -0.05276163       0.04055790
O        2.78266566       1.63699999       6.19129139       24      -0.08609185       0.08521963      -0.04055790
O        4.78734943      -1.25887901       2.88253742       25      -0.10904312       0.05276163      -0.04055790
O        5.48425196       3.37123435       1.63079184       26      -0.08609185      -0.00748564       0.09408131
O        3.31740947       2.60513983       3.65980147       27       0.10904312       0.06150499       0.02541396
O        0.61582317       3.77722112       5.84024388       28       0.10904312      -0.00874336      -0.06597186
O        2.08576313       0.04339887       0.77726404       29      -0.10904312       0.00874336       0.06597186
O       -2.78266566       0.44938564       4.98671608       30       0.08609185       0.00748564      -0.09408131
O        4.74883506       0.24670827       1.98183935       31       0.04459102      -0.00718712       0.11949527
O        1.35034623       1.17144925       5.29059331       32       0.02163975      -0.03964511       0.11949527
O        2.78266566      -1.18761434       5.41293262       33      -0.08609185      -0.07773399      -0.05352341
O        2.04724876       0.07063264       2.53148992       34       0.04459102      -0.09989238      -0.06597186
O        1.35034623      -1.73486639       6.26646043       35       0.02163975       0.12330850      -0.02541396
O       -0.61582317       1.21548015       2.95770646       36      -0.10904312      -0.06150499      -0.02541396
O       -1.35034623      -0.56341714       4.93954581       37      -0.02163975       0.08366339       0.09408131
O       -0.08107937       5.00823433       1.20457530       38       0.08609185       0.07773399       0.05352341
O        3.35592383       4.13796089       4.51332927       39      -0.04459102      -0.10707950       0.05352341
40
Lattice="8.104758898862036 6.352265203614427e-10 3.0394615873812124e-14 -2.7015863002195757 7.641239969478075 -1.1002509378261427e-09 -2.701586299321256 -3.820619984103816 6.617507930714531" Properties=species:S:1:pos:R:3:spacegroup_kinds:I:1:forces:R:3 spacegroup="P 1" unit_cell=conventional occupancy="_JSON {\"0\": {\"In\": 1}, \"1\": {\"In\": 1}, \"2\": {\"In\": 1}, \"3\": {\"In\": 1}, \"4\": {\"In\": 1}, \"5\": {\"In\": 1}, \"6\": {\"In\": 1}, \"7\": {\"In\": 1}, \"8\": {\"In\": 1}, \"9\": {\"In\": 1}, \"10\": {\"In\": 1}, \"11\": {\"In\": 1}, \"12\": {\"In\": 1}, \"13\": {\"In\": 1}, \"14\": {\"In\": 1}, \"15\": {\"In\": 1}, \"16\": {\"O\": 1}, \"17\": {\"O\": 1}, \"18\": {\"O\": 1}, \"19\": {\"O\": 1}, \"20\": {\"O\": 1}, \"21\": {\"O\": 1}, \"22\": {\"O\": 1}, \"23\": {\"O\": 1}, \"24\": {\"O\": 1}, \"25\": {\"O\": 1}, \"26\": {\"O\": 1}, \"27\": {\"O\": 1}, \"28\": {\"O\": 1}, \"29\": {\"O\": 1}, \"30\": {\"O\": 1}, \"31\": {\"O\": 1}, \"32\": {\"O\": 1}, \"33\": {\"O\": 1}, \"34\": {\"O\": 1}, \"35\": {\"O\": 1}, \"36\": {\"O\": 1}, \"37\": {\"O\": 1}, \"38\": {\"O\": 1}, \"39\": {\"O\": 1}}" n_minim_iter=3 energy=-45144.29783383374 stress="-0.16115087029577796 -3.5965513157472056e-13 5.518431317992623e-14 -3.5965513157472056e-13 -0.16115087029562863 3.3977852790748664e-13 5.518431317992623e-14 3.3977852790748664e-13 -0.1611508702946632" free_energy=-45144.29783383374 pbc="T T T"
In      -3.62678683       2.56452556       5.48437333        0      -0.00644256       0.00455558      -0.00789049
In       6.32837312       1.25609443       1.13313460        1       0.00644256      -0.00455558       0.00789049
In       0.92520052      -0.65421556       4.44188856        2       0.00644256      -0.00455558       0.00789049
In      -1.35079315      -1.91030999       3.30875396        3       0.00000000      -0.00000000       0.00000000
In      -0.92520053       3.51968056       2.78751158        4      -0.00644256       0.00455558       0.00789049
In       4.47797207      -2.26358612       4.96313095        5      -0.00644256      -0.00911116      -0.00000000
In      -0.92520053       1.55703386       4.96313095        6      -0.00644256      -0.00911116       0.00000000
In      -1.77638578       6.08420611       1.65437698        7       0.00644256       0.00911116       0.00000000
In       3.62678682       0.30093943       3.82999635        8       0.00644256      -0.00455558      -0.00789049
In      -1.35079315       3.82061999      -0.00000000        9       0.00000000      -0.00000000      -0.00000000
In       3.62678682       6.03186941       0.52124238       10       0.00644256      -0.00455558      -0.00789049
In      -0.92520053      -2.21124942       6.09626554       11      -0.00644256       0.00455558       0.00789049
In       3.62678682       2.26358613       1.65437698       12       0.00644256       0.00911116      -0.00000000
In       1.77638577       4.47483555       2.17561936       13      -0.00644256       0.00455558      -0.00789049
In       4.05237945       0.00000000      -0.00000000       14      -0.00000000      -0.00000000       0.00000000
In       1.35079315       1.91030999       3.30875396       15       0.00000000      -0.00000000       0.00000000
O        0.65421464       3.75584161       4.09365286       16      -0.06441876       0.05995192      -0.03556324
O       -2.04737166       3.57759656       4.62678121       17      -0.06441876      -0.06077463      -0.03413826
O       -0.07212677       2.18088751       0.42844433       18      -0.02224858      -0.09059345       0.01750945
O       -0.65421465      -0.30780180       2.10292615       19       0.06441876      -0.00082271      -0.06970150
O        4.05544760       4.37578423       1.67448182       20      -0.03582595       0.01093180      -0.08721095
O        1.34772499       2.64805831       1.31802725       21       0.03582595       0.08099280      -0.03413826
O        1.34772499       5.54834591       0.35645457       22       0.03582595      -0.07006100      -0.05307269
O       -2.08020272       5.07196925       3.73719829       23       0.07799613       0.05117398       0.01750945
O        2.77371307       1.63973248       6.18906360       24       0.02224858       0.09059345      -0.01750945
O        4.78178902      -1.25134926       2.88030963       25      -0.07799613      -0.05117398      -0.01750945
O        5.47529937       3.37179742       1.63427214       26       0.02224858      -0.03013309       0.08721095
O        3.32296988       2.61083403       3.66520853       27       0.07799613      -0.01042336      -0.05307269
O        0.62138358       3.77905668       5.83260903       28       0.07799613      -0.04075062       0.03556324
O        2.08020272       0.04156331       0.78489890       29      -0.07799613       0.04075062      -0.03556324
O       -2.77371307       0.44882257       4.98323579       30      -0.02224858       0.03013309      -0.08721095
O        4.74895795       0.24302342       1.99072671       31       0.06441876       0.06077463       0.03413826
O        1.35386130       1.17256168       5.29948068       32      -0.03582595      -0.08099280       0.03413826
O        2.77371307      -1.19090991       5.41168011       33       0.02224858      -0.06046035      -0.06970150
O        2.04737165       0.06477838       2.52385506       34       0.06441876      -0.05995192       0.03556324
O        1.35386130      -1.72772592       6.26105336       35      -0.03582595       0.07006100       0.05307269
O       -0.62138358       1.20978595       2.95229939       36      -0.07799613       0.01042336       0.05307269
O       -1.35386131      -0.55516424       4.94302611       37       0.03582595      -0.01093179       0.08721095
O       -0.07212677       5.01152990       1.20582781       38      -0.02224858       0.06046035       0.06970150
O        3.35580094       4.12842178       4.51458178       39      -0.06441876       0.00082271       0.06970150
40
Lattice="8.104758898862038 6.35226520361443e-10 3.039461587381213e-14 -2.7015863002195766 7.641239969478079 -1.1002509378261431e-09 -2.701586299321257 -3.8206199841038178 6.617507930714534" Properties=species:S:1:pos:R:3:spacegroup_kinds:I:1:forces:R:3 spacegroup="P 1" unit_cell=conventional occupancy="_JSON {\"0\": {\"In\": 1}, \"1\": {\"In\": 1}, \"2\": {\"In\": 1}, \"3\": {\"In\": 1}, \"4\": {\"In\": 1}, \"5\": {\"In\": 1}, \"6\": {\"In\": 1}, \"7\": {\"In\": 1}, \"8\": {\"In\": 1}, \"9\": {\"In\": 1}, \"10\": {\"In\": 1}, \"11\": {\"In\": 1}, \"12\": {\"In\": 1}, \"13\": {\"In\": 1}, \"14\": {\"In\": 1}, \"15\": {\"In\": 1}, \"16\": {\"O\": 1}, \"17\": {\"O\": 1}, \"18\": {\"O\": 1}, \"19\": {\"O\": 1}, \"20\": {\"O\": 1}, \"21\": {\"O\": 1}, \"22\": {\"O\": 1}, \"23\": {\"O\": 1}, \"24\": {\"O\": 1}, \"25\": {\"O\": 1}, \"26\": {\"O\": 1}, \"27\": {\"O\": 1}, \"28\": {\"O\": 1}, \"29\": {\"O\": 1}, \"30\": {\"O\": 1}, \"31\": {\"O\": 1}, \"32\": {\"O\": 1}, \"33\": {\"O\": 1}, \"34\": {\"O\": 1}, \"35\": {\"O\": 1}, \"36\": {\"O\": 1}, \"37\": {\"O\": 1}, \"38\": {\"O\": 1}, \"39\": {\"O\": 1}}" n_minim_iter=4 energy=-45144.301596084835 stress="-0.16124358207618925 -3.135796190504538e-13 -7.46003838613576e-14 -3.135796190504538e-13 -0.16124358207593825 -2.7332470166321775e-13 -7.46003838613576e-14 -2.7332470166321775e-13 -0.16124358207659809" free_energy=-45144.301596084835 pbc="T T T"
In      -3.62715639       2.56478688       5.48392071        0      -0.00155720       0.00110110      -0.00190717
In       6.32874269       1.25583311       1.13358722        1       0.00155720      -0.00110110       0.00190717
In       0.92557009      -0.65447689       4.44234118        2       0.00155720      -0.00110110       0.00190717
In      -1.35079315      -1.91030999       3.30875396        3       0.00000000       0.00000000      -0.00000000
In      -0.92557009       3.51994188       2.78796420        4      -0.00155720       0.00110110       0.00190717
In       4.47760251      -2.26410877       4.96313095        5      -0.00155720      -0.00220221      -0.00000000
In      -0.92557009       1.55651122       4.96313095        6      -0.00155720      -0.00220221       0.00000000
In      -1.77601621       6.08472876       1.65437698        7       0.00155720       0.00220221       0.00000000
In       3.62715639       0.30067811       3.82954372        8       0.00155720      -0.00110110      -0.00190717
In      -1.35079315       3.82061999      -0.00000000        9      -0.00000000      -0.00000000      -0.00000000
In       3.62715639       6.03160809       0.52078976       10       0.00155720      -0.00110110      -0.00190717
In      -0.92557009      -2.21098810       6.09671817       11      -0.00155720       0.00110110       0.00190717
In       3.62715639       2.26410877       1.65437698       12       0.00155720       0.00220221       0.00000000
In       1.77601621       4.47509687       2.17516674       13      -0.00155720       0.00110110      -0.00190717
In       4.05237945       0.00000000      -0.00000000       14       0.00000000       0.00000000      -0.00000000
In       1.35079315       1.91030999       3.30875396       15      -0.00000000       0.00000000       0.00000000
O        0.65198980       3.75786974       4.09237757       16      -0.00557017       0.00398620       0.01673105
O       -2.04959649       3.57547807       4.62566245       17      -0.00557017       0.01249642      -0.01181768
O       -0.07295359       2.17778046       0.42903779       18       0.01368324      -0.00111780       0.01176283
O       -0.65198981      -0.30789217       2.10053210       19       0.00557017       0.01648262       0.00491338
O        4.05419188       4.37621724       1.67149431       20       0.01363846      -0.00969134      -0.00684946
O        1.34898072       2.65086208       1.31690849       21      -0.01363846       0.00108613      -0.01181768
O        1.34898072       5.54597515       0.35458582       22      -0.01363846      -0.01077748       0.00496822
O       -2.07754897       5.07378446       3.73779175       23       0.00561495      -0.01252808       0.01176284
O        2.77453988       1.64283952       6.18847014       24      -0.01368324       0.00111780      -0.01176283
O        4.77913527      -1.25316447       2.87971618       25      -0.00561495       0.01252808      -0.01176283
O        5.47612618       3.37075785       1.63725965       26      -0.01368324       0.00962801       0.00684946
O        3.32562362       2.61044038       3.66333978       27       0.00561495       0.01645095       0.00496822
O        0.62403733       3.77763512       5.83388432       28       0.00561495      -0.00392287      -0.01673105
O        2.07754897       0.04298487       0.78362361       29      -0.00561495       0.00392287       0.01673105
O       -2.77453989       0.44986214       4.98024827       30       0.01368324      -0.00962801      -0.00684946
O        4.75118279       0.24514192       1.99184547       31       0.00557017      -0.01249642       0.01181768
O        1.35260558       1.16975791       5.30059944       32       0.01363846      -0.00108613       0.01181768
O        2.77453988      -1.19297738       5.40928606       33      -0.01368324      -0.01074581       0.00491338
O        2.04959649       0.06275025       2.52513035       34       0.00557017      -0.00398620      -0.01673105
O        1.35260558      -1.72535516       6.26292211       35       0.01363846       0.01077748      -0.00496822
O       -0.62403733       1.21017961       2.95416814       36      -0.00561495      -0.01645095      -0.00496822
O       -1.35260558      -0.55559725       4.94601362       37      -0.01363846       0.00969134       0.00684946
O       -0.07295359       5.01359737       1.20822186       38       0.01368324       0.01074581      -0.00491338
O        3.35357610       4.12851216       4.51697583       39      -0.00557017      -0.01648262      -0.00491338
40
Lattice="8.104758898862038 6.35226520361443e-10 3.039461587381211e-14 -2.7015863002195766 7.641239969478079 -1.1002509378261431e-09 -2.701586299321257 -3.8206199841038178 6.617507930714534" Properties=species:S:1:pos:R:3:spacegroup_kinds:I:1:forces:R:3 spacegroup="P 1" unit_cell=conventional occupancy="_JSON {\"0\": {\"In\": 1}, \"1\": {\"In\": 1}, \"2\": {\"In\": 1}, \"3\": {\"In\": 1}, \"4\": {\"In\": 1}, \"5\": {\"In\": 1}, \"6\": {\"In\": 1}, \"7\": {\"In\": 1}, \"8\": {\"In\": 1}, \"9\": {\"In\": 1}, \"10\": {\"In\": 1}, \"11\": {\"In\": 1}, \"12\": {\"In\": 1}, \"13\": {\"In\": 1}, \"14\": {\"In\": 1}, \"15\": {\"In\": 1}, \"16\": {\"O\": 1}, \"17\": {\"O\": 1}, \"18\": {\"O\": 1}, \"19\": {\"O\": 1}, \"20\": {\"O\": 1}, \"21\": {\"O\": 1}, \"22\": {\"O\": 1}, \"23\": {\"O\": 1}, \"24\": {\"O\": 1}, \"25\": {\"O\": 1}, \"26\": {\"O\": 1}, \"27\": {\"O\": 1}, \"28\": {\"O\": 1}, \"29\": {\"O\": 1}, \"30\": {\"O\": 1}, \"31\": {\"O\": 1}, \"32\": {\"O\": 1}, \"33\": {\"O\": 1}, \"34\": {\"O\": 1}, \"35\": {\"O\": 1}, \"36\": {\"O\": 1}, \"37\": {\"O\": 1}, \"38\": {\"O\": 1}, \"39\": {\"O\": 1}}" n_minim_iter=5 energy=-45144.301704649275 stress="-0.1608581110265869 1.3074477286580373e-13 6.681415267039553e-13 1.3074477286580373e-13 -0.16085811102617856 2.620627738480533e-13 6.681415267039553e-13 2.620627738480533e-13 -0.16085811102747258" free_energy=-45144.301704649275 pbc="T T T"
In      -3.62682212       2.56455052       5.48433010        0      -0.00185346       0.00131059      -0.00227001
In       6.32840842       1.25606947       1.13317783        1       0.00185346      -0.00131059       0.00227001
In       0.92523582      -0.65424052       4.44193179        2       0.00185346      -0.00131059       0.00227001
In      -1.35079315      -1.91030999       3.30875396        3      -0.00000000      -0.00000000      -0.00000000
In      -0.92523582       3.51970551       2.78755481        4      -0.00185346       0.00131059       0.00227001
In       4.47793678      -2.26363604       4.96313095        5      -0.00185346      -0.00262119       0.00000000
In      -0.92523582       1.55698394       4.96313095        6      -0.00185346      -0.00262119       0.00000000
In      -1.77635048       6.08425603       1.65437698        7       0.00185346       0.00262119      -0.00000000
In       3.62682212       0.30091447       3.82995312        8       0.00185346      -0.00131059      -0.00227001
In      -1.35079315       3.82061999      -0.00000000        9      -0.00000000       0.00000000      -0.00000000
In       3.62682212       6.03184445       0.52119915       10       0.00185346      -0.00131059      -0.00227001
In      -0.92523582      -2.21122446       6.09630877       11      -0.00185346       0.00131059       0.00227001
In       3.62682212       2.26363605       1.65437698       12       0.00185346       0.00262119      -0.00000000
In       1.77635048       4.47486051       2.17557613       13      -0.00185346       0.00131059      -0.00227001
In       4.05237945       0.00000000      -0.00000000       14      -0.00000000       0.00000000       0.00000000
In       1.35079315       1.91030999       3.30875396       15      -0.00000000      -0.00000000      -0.00000000
O        0.65184856       3.75810865       4.09274531       16      -0.00497895      -0.00161258       0.00692077
O       -2.04973774       3.57567708       4.62527168       17      -0.00497895       0.00679985      -0.00206385
O       -0.07258779       2.17762094       0.42926801       18       0.00323096       0.00099457       0.00799119
O       -0.65184856      -0.30745424       2.10050906       19       0.00497895       0.00518727       0.00485692
O        4.05442659       4.37591223       1.67124104       20       0.00807061      -0.00057356      -0.00313427
O        1.34874601       2.65092891       1.31651771       21      -0.00807061       0.00242758      -0.00206385
O        1.34874601       5.54560331       0.35472333       22      -0.00807061      -0.00300114      -0.00107042
O       -2.07727664       5.07349276       3.73802198       23       0.00013929      -0.00337770       0.00799119
O        2.77417409       1.64299905       6.18823991       24      -0.00323096      -0.00099457      -0.00799119
O        4.77886293      -1.25287277       2.87948595       25      -0.00013929       0.00337770      -0.00799119
O        5.47576038       3.37087747       1.63751292       26      -0.00323096       0.00741786       0.00313427
O        3.32589596       2.61078561       3.66347729       27       0.00013929       0.00860942      -0.00107042
O        0.62430966       3.77758159       5.83351658       28       0.00013929      -0.00523172      -0.00692077
O        2.07727663       0.04303840       0.78399134       29      -0.00013929       0.00523172       0.00692077
O       -2.77417409       0.44974252       4.97999500       30       0.00323096      -0.00741786      -0.00313427
O        4.75132404       0.24494291       1.99223625       31       0.00497895      -0.00679985       0.00206385
O        1.35284029       1.16969108       5.30099021       32       0.00807061      -0.00242758       0.00206385
O        2.77417409      -1.19325653       5.40926302       33      -0.00323096      -0.00642329       0.00485692
O        2.04973774       0.06251134       2.52476262       34       0.00497895       0.00161258      -0.00692077
O        1.35284029      -1.72498332       6.26278460       35       0.00807061       0.00300114       0.00107042
O       -0.62430967       1.20983438       2.95403063       36      -0.00013929      -0.00860942       0.00107042
O       -1.35284029      -0.55529224       4.94626689       37      -0.00807061       0.00057356       0.00313427
O       -0.07258779       5.01387652       1.20824490       38       0.00323096       0.00642329      -0.00485692
O        3.35343485       4.12807423       4.51699887       39      -0.00497895      -0.00518727      -0.00485692
