40
Lattice="9.277632943988259 7.271566998065132e-10 1.451135879400417e-14 -3.092544315348322 8.747036223829353 -1.2594901462548335e-09 -3.0925443143199796 -4.37351811118751 7.575155578498584" Properties=species:S:1:pos:R:3:spacegroup_kinds:I:1:forces:R:3 spacegroup="P 1" unit_cell=conventional occupancy="_JSON {\"0\": {\"In\": 1}, \"1\": {\"In\": 1}, \"2\": {\"In\": 1}, \"3\": {\"In\": 1}, \"4\": {\"In\": 1}, \"5\": {\"In\": 1}, \"6\": {\"In\": 1}, \"7\": {\"In\": 1}, \"8\": {\"In\": 1}, \"9\": {\"In\": 1}, \"10\": {\"In\": 1}, \"11\": {\"In\": 1}, \"12\": {\"In\": 1}, \"13\": {\"In\": 1}, \"14\": {\"In\": 1}, \"15\": {\"In\": 1}, \"16\": {\"O\": 1}, \"17\": {\"O\": 1}, \"18\": {\"O\": 1}, \"19\": {\"O\": 1}, \"20\": {\"O\": 1}, \"21\": {\"O\": 1}, \"22\": {\"O\": 1}, \"23\": {\"O\": 1}, \"24\": {\"O\": 1}, \"25\": {\"O\": 1}, \"26\": {\"O\": 1}, \"27\": {\"O\": 1}, \"28\": {\"O\": 1}, \"29\": {\"O\": 1}, \"30\": {\"O\": 1}, \"31\": {\"O\": 1}, \"32\": {\"O\": 1}, \"33\": {\"O\": 1}, \"34\": {\"O\": 1}, \"35\": {\"O\": 1}, \"36\": {\"O\": 1}, \"37\": {\"O\": 1}, \"38\": {\"O\": 1}, \"39\": {\"O\": 1}}" n_minim_iter=8 energy=-45149.78745068637 stress="0.05949003372650344 -2.942237337092242e-13 -2.8949148637834765e-13 -2.942237337092242e-13 0.05949003372657784 1.7728587520865683e-13 -2.8949148637834765e-13 1.7728587520865683e-13 0.05949003372618543" free_energy=-45149.78745068637 pbc="T T T"
In      -4.39295114       3.10628554       5.98248899        0      -0.00084922       0.00060049      -0.00104008
In       7.48549545       1.26723258       1.59266658        1       0.00084922      -0.00060049       0.00104008
In       1.30040682      -0.91952648       5.38024437        2       0.00084922      -0.00060049       0.00104008
In      -1.54627216      -2.18675905       3.78757779        3       0.00000000      -0.00000000      -0.00000000
In      -1.30040682       4.19966507       3.48645548        4      -0.00084922       0.00060049       0.00104008
In       4.88468181      -2.93243249       5.68136668        5      -0.00084922      -0.00120098       0.00000000
In      -1.30040682       1.44108562       5.68136668        6      -0.00084922      -0.00120098       0.00000000
In      -1.79213750       7.30595060       1.89378889        7       0.00084922       0.00120098       0.00000000
In       4.39295113       0.17385305       4.08870010        8       0.00084922      -0.00060049      -0.00104008
In      -1.54627216       4.37351811      -0.00000000        9      -0.00000000       0.00000000      -0.00000000
In       4.39295113       6.73413022       0.30112231       10       0.00084922      -0.00060049      -0.00104008
In      -1.30040682      -2.36061210       7.27403327       11      -0.00084922       0.00060049       0.00104008
In       4.39295113       2.93243249       1.89378889       12       0.00084922       0.00120098      -0.00000000
In       1.79213749       5.29304460       2.19491120       13      -0.00084922       0.00060049      -0.00104008
In       4.63881647       0.00000000      -0.00000000       14       0.00000000       0.00000000      -0.00000000
In       1.54627216       2.18675906       3.78757779       15      -0.00000000       0.00000000      -0.00000000
O        0.97584770       4.37783871       4.09700909       16       0.00256337      -0.00596968      -0.00560518
O       -2.11669662       3.54595366       5.52290928       17       0.00256337      -0.00186939       0.00797249
O       -0.45087919       2.36804286      -0.01204494       18      -0.00653629       0.00456504      -0.00317227
O       -0.97584770      -0.82324385       2.04476280       19      -0.00256337      -0.00783907       0.00236730
O        4.04872271       5.18980782       2.05680774       20      -0.00261693       0.00600756       0.00553958
O        2.13636592       3.00041521       1.73533149       21       0.00261693      -0.00179363       0.00797249
O        2.13636592       6.56291072       0.32147624       22       0.00261693       0.00780119      -0.00243291
O       -2.38290528       6.19602252       3.77553285       23      -0.00648272       0.00464080      -0.00317227
O        3.54342350       2.00547526       7.58720052       24       0.00653629      -0.00456504       0.00317227
O        5.47544959      -1.82250441       3.79962273       25       0.00648272      -0.00464080       0.00317227
O        6.63596781       3.36034926       1.73077005       26       0.00653629      -0.00046475      -0.00553958
O        3.80218335       2.35845516       4.10905403       27      -0.00648272      -0.00506767      -0.00243291
O        0.70963904       4.56607666       7.26572427       28      -0.00648272       0.00042687       0.00560518
O        2.38290527      -0.19255855       0.30943131       29       0.00648272      -0.00042687      -0.00560518
O       -3.54342350       1.01316885       5.84438553       30      -0.00653629       0.00046475       0.00553958
O        5.20924093       0.82756446       2.05224629       31      -0.00256337       0.00186939      -0.00797249
O        0.95617839       1.37310290       5.83982408       32      -0.00261693       0.00179363      -0.00797249
O        3.54342350      -0.99230640       5.83234059       33       0.00653629       0.00502979       0.00236730
O        2.11669661      -0.00432060       3.47814648       34      -0.00256337       0.00596968       0.00560518
O        0.95617839      -2.18939260       7.25367933       35      -0.00261693      -0.00780119       0.00243291
O       -0.70963904       2.01506296       3.46610154       36       0.00648272       0.00506767       0.00243291
O       -0.95617840      -0.81628970       5.51834784       37       0.00261693      -0.00600756      -0.00553958
O       -0.45087919       5.36582452       1.74281499       38      -0.00653629      -0.00502979      -0.00236730
O        4.06839201       5.19676197       5.53039277       39       0.00256337       0.00783907      -0.00236730
