40
Lattice="8.612591495034781 6.750319279361922e-10 4.923786253503518e-15 -2.8708638323146887 8.120029132746554 -1.1691945577845152e-09 -2.8708638313600523 -4.060014565698243 7.032151509207711" Properties=species:S:1:pos:R:3:spacegroup_kinds:I:1:forces:R:3 spacegroup="P 1" unit_cell=conventional occupancy="_JSON {\"0\": {\"In\": 1}, \"1\": {\"In\": 1}, \"2\": {\"In\": 1}, \"3\": {\"In\": 1}, \"4\": {\"In\": 1}, \"5\": {\"In\": 1}, \"6\": {\"In\": 1}, \"7\": {\"In\": 1}, \"8\": {\"In\": 1}, \"9\": {\"In\": 1}, \"10\": {\"In\": 1}, \"11\": {\"In\": 1}, \"12\": {\"In\": 1}, \"13\": {\"In\": 1}, \"14\": {\"In\": 1}, \"15\": {\"In\": 1}, \"16\": {\"O\": 1}, \"17\": {\"O\": 1}, \"18\": {\"O\": 1}, \"19\": {\"O\": 1}, \"20\": {\"O\": 1}, \"21\": {\"O\": 1}, \"22\": {\"O\": 1}, \"23\": {\"O\": 1}, \"24\": {\"O\": 1}, \"25\": {\"O\": 1}, \"26\": {\"O\": 1}, \"27\": {\"O\": 1}, \"28\": {\"O\": 1}, \"29\": {\"O\": 1}, \"30\": {\"O\": 1}, \"31\": {\"O\": 1}, \"32\": {\"O\": 1}, \"33\": {\"O\": 1}, \"34\": {\"O\": 1}, \"35\": {\"O\": 1}, \"36\": {\"O\": 1}, \"37\": {\"O\": 1}, \"38\": {\"O\": 1}, \"39\": {\"O\": 1}}" n_minim_iter=8 energy=-45150.22064516003 stress="-0.06588026433413496 3.441125045062285e-13 -2.089798230170213e-13 3.441125045062285e-13 -0.06588026433348138 2.719305057741394e-13 -2.089798230170213e-13 2.719305057741394e-13 -0.06588026433449788" free_energy=-45150.22064516003 pbc="T T T"
In      -4.09633828       2.89654858       5.53125796        0       0.00101615      -0.00071853       0.00124453
In       6.96720211       1.16346599       1.50089354        1      -0.00101615       0.00071853      -0.00124453
In       1.22547445      -0.86654129       5.01696930        2      -0.00101615       0.00071853      -0.00124453
In      -1.43543192      -2.03000728       3.51607575        3      -0.00000000       0.00000000       0.00000000
In      -1.22547445       3.91155222       3.25893142        4       0.00101615      -0.00071853      -0.00124453
In       4.51625321      -2.74808622       5.27411363        5       0.00101615       0.00143706      -0.00000000
In      -1.22547445       1.31192834       5.27411363        6       0.00101615       0.00143706      -0.00000000
In      -1.64538939       6.80810079       1.75803787        7      -0.00101615      -0.00143706       0.00000000
In       4.09633828       0.14846235       3.77322008        8      -0.00101615       0.00071853       0.00124453
In      -1.43543192       4.06001457      -0.00000000        9      -0.00000000       0.00000000       0.00000000
In       4.09633828       6.23848420       0.25714433       10      -0.00101615       0.00071853       0.00124453
In      -1.22547445      -2.17846963       6.77500717       11       0.00101615      -0.00071853      -0.00124453
In       4.09633828       2.74808623       1.75803787       12      -0.00101615      -0.00143706      -0.00000000
In       1.64538938       4.92655586       2.01518221       13       0.00101615      -0.00071853       0.00124453
In       4.30629575       0.00000000      -0.00000000       14       0.00000000      -0.00000000      -0.00000000
In       1.43543191       2.03000729       3.51607575       15      -0.00000000       0.00000000      -0.00000000
O        0.83832090       4.05872061       3.86265228       16       0.00004415      -0.00902524      -0.00177576
O       -2.03254293       3.34580198       5.10194596       17       0.00004415       0.00297477       0.00870397
O       -0.39514573       2.18798732       0.07518827       18      -0.00568972       0.00702923       0.00168143
O       -0.83832090      -0.71550654       1.93244674       19      -0.00004415      -0.00605047       0.00692821
O        3.83196667       4.81893108       1.85725846       20       0.00278992       0.00702125       0.00524677
O        1.90976099       2.83103981       1.58587021       21      -0.00278992      -0.00103321       0.00870397
O        1.90976099       6.04790583       0.27138825       22      -0.00278992       0.00805446      -0.00345719
O       -2.19456948       5.73323971       3.59126403       23      -0.00852379       0.00302125       0.00168143
O        3.26600956       1.87202725       6.95696323       24       0.00568972      -0.00702923      -0.00168143
O        5.06543330      -1.67322514       3.44088748       25       0.00852379      -0.00302125      -0.00168143
O        6.13687339       3.18911590       1.65881729       26       0.00568972       0.00497078      -0.00524677
O        3.54715819       2.27351331       3.78746401       27      -0.00852379      -0.00005446      -0.00345719
O        0.67629436       4.17329068       6.68557497       28      -0.00852379      -0.00296679       0.00177576
O        2.19456947      -0.11327611       0.34657653       29       0.00852379       0.00296679      -0.00177576
O       -3.26600957       0.87089867       5.37333422       30      -0.00568972      -0.00497078       0.00524677
O        4.90340676       0.71421259       1.93020554       31      -0.00004415      -0.00297477      -0.00870397
O        0.96110284       1.22897476       5.44628130       32       0.00278992       0.00103321      -0.00870397
O        3.26600956      -1.00112858       5.44852249       33       0.00568972       0.00205845       0.00692821
O        2.03254293       0.00129396       3.16949922       34      -0.00004415       0.00902524       0.00177576
O        0.96110284      -1.98789126       6.76076325       35       0.00278992      -0.00805446       0.00345719
O       -0.67629436       1.78650126       3.24468749       36       0.00852379       0.00005446       0.00345719
O       -0.96110284      -0.75891651       5.17489304       37      -0.00278992      -0.00702125      -0.00524677
O       -0.39514573       5.06114315       1.58362901       38      -0.00568972      -0.00205845      -0.00692821
O        3.70918473       4.77552111       5.09970477       39       0.00004415       0.00605047      -0.00692821
