40
Lattice="8.612591495034758 6.750319279361904e-10 4.923786253503523e-15 -2.870863832314679 8.120029132746538 -1.1691945577845111e-09 -2.8708638313600425 -4.060014565698235 7.0321515092076865" Properties=species:S:1:pos:R:3:spacegroup_kinds:I:1:forces:R:3 spacegroup="P 1" unit_cell=conventional occupancy="_JSON {\"0\": {\"In\": 1}, \"1\": {\"In\": 1}, \"2\": {\"In\": 1}, \"3\": {\"In\": 1}, \"4\": {\"In\": 1}, \"5\": {\"In\": 1}, \"6\": {\"In\": 1}, \"7\": {\"In\": 1}, \"8\": {\"In\": 1}, \"9\": {\"In\": 1}, \"10\": {\"In\": 1}, \"11\": {\"In\": 1}, \"12\": {\"In\": 1}, \"13\": {\"In\": 1}, \"14\": {\"In\": 1}, \"15\": {\"In\": 1}, \"16\": {\"O\": 1}, \"17\": {\"O\": 1}, \"18\": {\"O\": 1}, \"19\": {\"O\": 1}, \"20\": {\"O\": 1}, \"21\": {\"O\": 1}, \"22\": {\"O\": 1}, \"23\": {\"O\": 1}, \"24\": {\"O\": 1}, \"25\": {\"O\": 1}, \"26\": {\"O\": 1}, \"27\": {\"O\": 1}, \"28\": {\"O\": 1}, \"29\": {\"O\": 1}, \"30\": {\"O\": 1}, \"31\": {\"O\": 1}, \"32\": {\"O\": 1}, \"33\": {\"O\": 1}, \"34\": {\"O\": 1}, \"35\": {\"O\": 1}, \"36\": {\"O\": 1}, \"37\": {\"O\": 1}, \"38\": {\"O\": 1}, \"39\": {\"O\": 1}}" n_minim_iter=1 energy=-45150.1993681587 stress="-0.06947496336621864 6.40800496042136e-13 -2.384865551948743e-13 6.40800496042136e-13 -0.06947496336658038 -6.256408337565446e-14 -2.384865551948743e-13 -6.256408337565446e-14 -0.06947496336503824" free_energy=-45150.1993681587 pbc="T T T"
In      -4.10824175       2.90496560       5.51667925        0       0.03775071      -0.02669378       0.04623499
In       6.97910558       1.15504897       1.51547225        1      -0.03775071       0.02669378      -0.04623499
In       1.23737791      -0.87495831       5.03154801        2      -0.03775071       0.02669378      -0.04623499
In      -1.43543192      -2.03000728       3.51607575        3       0.00000000      -0.00000000       0.00000000
In      -1.23737792       3.91996924       3.27351013        4       0.03775071      -0.02669378      -0.04623499
In       4.50434975      -2.76492027       5.27411363        5       0.03775071       0.05338757      -0.00000000
In      -1.23737792       1.29509430       5.27411363        6       0.03775071       0.05338757       0.00000000
In      -1.63348592       6.82493484       1.75803787        7      -0.03775071      -0.05338757       0.00000000
In       4.10824175       0.14004533       3.75864137        8      -0.03775071       0.02669378       0.04623499
In      -1.43543192       4.06001457      -0.00000000        9       0.00000000       0.00000000       0.00000000
In       4.10824175       6.23006718       0.24256562       10      -0.03775071       0.02669378       0.04623499
In      -1.23737792      -2.17005261       6.78958589       11       0.03775071      -0.02669378      -0.04623499
In       4.10824175       2.76492027       1.75803787       12      -0.03775071      -0.05338757      -0.00000000
In       1.63348591       4.93497288       2.00060350       13       0.03775071      -0.02669378       0.04623499
In       4.30629575       0.00000000      -0.00000000       14      -0.00000000       0.00000000       0.00000000
In       1.43543191       2.03000729       3.51607575       15       0.00000000      -0.00000000       0.00000000
O        0.83091751       4.05731889       3.85068566       16       0.01872426      -0.00224142       0.08185079
O       -2.03994632       3.33613945       5.10914320       17       0.01872426       0.07200557      -0.03898427
O       -0.40804502       2.18221097       0.07565444       18       0.07201569       0.03432284       0.02628414
O       -0.83091752      -0.72657080       1.92767736       19      -0.01872426       0.06976415       0.04286652
O        3.82532453       4.83026449       1.85202291       20       0.06164609      -0.05458899       0.01658238
O        1.91640313       2.84124064       1.59306745       21      -0.06164609      -0.04165526      -0.03898427
O        1.91640313       6.04903842       0.25895546       22      -0.06164609      -0.01293374       0.05556664
O       -2.19342324       5.74732673       3.59173019       23      -0.00835465      -0.07933799       0.02628414
O        3.27890885       1.87780360       6.95649706       24      -0.07201569      -0.03432284      -0.02628414
O        5.06428707      -1.68731216       3.44042131       25       0.00835465       0.07933799      -0.02628414
O        6.14977268       3.18663144       1.66405284       26      -0.07201569       0.03992416      -0.01658238
O        3.54830442       2.26687352       3.77503121       27      -0.00835465       0.06243173       0.05556664
O        0.67744059       4.16584346       6.69754160       28      -0.00835465       0.01690626      -0.08185079
O        2.19342324      -0.10582889       0.33460990       29       0.00835465      -0.01690626       0.08185079
O       -3.27890885       0.87338313       5.36809867       30       0.07201569      -0.03992416       0.01658238
O        4.91081015       0.72387513       1.92300830       31      -0.01872426      -0.07200557       0.03898427
O        0.95446070       1.21877394       5.43908405       32       0.06164609       0.04165526       0.03898427
O        3.27890885      -1.00442047       5.44375311       33      -0.07201569      -0.00560132       0.04286652
O        2.03994631       0.00269568       3.18146585       34      -0.01872426       0.00224142      -0.08185079
O        0.95446070      -1.98902385       6.77319605       35       0.06164609       0.01293374      -0.05556664
O       -0.67744059       1.79314105       3.25712029       36       0.00835465      -0.06243173      -0.05556664
O       -0.95446071      -0.77024992       5.18012859       37      -0.06164609       0.05458899      -0.01658238
O       -0.40804502       5.06443504       1.58839839       38       0.07201569       0.00560132      -0.04286652
O        3.70178135       4.78658537       5.10447415       39       0.01872426      -0.06976415      -0.04286652
40
Lattice="8.612591495034756 6.750319279361904e-10 4.92378625350352e-15 -2.870863832314679 8.120029132746536 -1.1691945577845113e-09 -2.8708638313600425 -4.060014565698234 7.032151509207687" Properties=species:S:1:pos:R:3:spacegroup_kinds:I:1:forces:R:3 spacegroup="P 1" unit_cell=conventional occupancy="_JSON {\"0\": {\"In\": 1}, \"1\": {\"In\": 1}, \"2\": {\"In\": 1}, \"3\": {\"In\": 1}, \"4\": {\"In\": 1}, \"5\": {\"In\": 1}, \"6\": {\"In\": 1}, \"7\": {\"In\": 1}, \"8\": {\"In\": 1}, \"9\": {\"In\": 1}, \"10\": {\"In\": 1}, \"11\": {\"In\": 1}, \"12\": {\"In\": 1}, \"13\": {\"In\": 1}, \"14\": {\"In\": 1}, \"15\": {\"In\": 1}, \"16\": {\"O\": 1}, \"17\": {\"O\": 1}, \"18\": {\"O\": 1}, \"19\": {\"O\": 1}, \"20\": {\"O\": 1}, \"21\": {\"O\": 1}, \"22\": {\"O\": 1}, \"23\": {\"O\": 1}, \"24\": {\"O\": 1}, \"25\": {\"O\": 1}, \"26\": {\"O\": 1}, \"27\": {\"O\": 1}, \"28\": {\"O\": 1}, \"29\": {\"O\": 1}, \"30\": {\"O\": 1}, \"31\": {\"O\": 1}, \"32\": {\"O\": 1}, \"33\": {\"O\": 1}, \"34\": {\"O\": 1}, \"35\": {\"O\": 1}, \"36\": {\"O\": 1}, \"37\": {\"O\": 1}, \"38\": {\"O\": 1}, \"39\": {\"O\": 1}}" n_minim_iter=2 energy=-45150.21081480089 stress="-0.06821672534272398 -3.3776166433142995e-13 1.7539511640018344e-13 -3.3776166433142995e-13 -0.06821672534313508 3.0645558011272623e-13 1.7539511640018344e-13 3.0645558011272623e-13 -0.06821672534401409" free_energy=-45150.21081480089 pbc="T T T"
In      -4.10554527       2.90305890       5.51998175        0       0.05327516      -0.03767123       0.06524848
In       6.97640910       1.15695567       1.51216975        1      -0.05327516       0.03767123      -0.06524848
In       1.23468143      -0.87305161       5.02824551        2      -0.05327516       0.03767123      -0.06524848
In      -1.43543192      -2.03000728       3.51607575        3      -0.00000000       0.00000000      -0.00000000
In      -1.23468144       3.91806254       3.27020763        4       0.05327516      -0.03767123      -0.06524848
In       4.50704623      -2.76110687       5.27411363        5       0.05327516       0.07534246      -0.00000000
In      -1.23468144       1.29890769       5.27411363        6       0.05327516       0.07534246      -0.00000000
In      -1.63618240       6.82112144       1.75803787        7      -0.05327516      -0.07534246       0.00000000
In       4.10554527       0.14195203       3.76194387        8      -0.05327516       0.03767123       0.06524848
In      -1.43543192       4.06001457      -0.00000000        9       0.00000000       0.00000000      -0.00000000
In       4.10554527       6.23197388       0.24586812       10      -0.05327516       0.03767123       0.06524848
In      -1.23468144      -2.17195931       6.78628339       11       0.05327516      -0.03767123      -0.06524848
In       4.10554527       2.76110688       1.75803787       12      -0.05327516      -0.07534246       0.00000000
In       1.63618239       4.93306618       2.00390599       13       0.05327516      -0.03767123       0.06524848
In       4.30629575       0.00000000      -0.00000000       14       0.00000000      -0.00000000       0.00000000
In       1.43543191       2.03000729       3.51607575       15       0.00000000       0.00000000       0.00000000
O        0.83225496       4.05715879       3.85653214       16       0.00421424      -0.00794186       0.01293599
O       -2.03860887       3.34128270       5.10635861       17       0.00421424       0.01517383       0.00040985
O       -0.40290104       2.18466260       0.07753188       18       0.00822311       0.01233913       0.00531970
O       -0.83225496      -0.72158765       1.93073925       19      -0.00421424       0.00723197       0.01334585
O        3.82972783       4.82636527       1.85320737       20       0.01290127      -0.00416064       0.00802615
O        1.91199983       2.83826526       1.59028286       21      -0.01290127      -0.00903117       0.00040985
O        1.91199983       6.04811458       0.26292450       22      -0.01290127       0.00487053       0.00761630
O       -2.19402000       5.74165973       3.59360763       23      -0.00889240      -0.01186587       0.00531970
O        3.27376487       1.87535197       6.95461962       24      -0.00822311      -0.01233913      -0.00531970
O        5.06488383      -1.68164516       3.43854387       25       0.00889240       0.01186587      -0.00531970
O        6.14462870       3.18948317       1.66286838       26      -0.00822311       0.01077656      -0.00802615
O        3.54770766       2.27133293       3.77900026       27      -0.00889240       0.01053993       0.00761630
O        0.67684383       4.16705105       6.69169512       28      -0.00889240       0.00132594      -0.01293599
O        2.19402000      -0.10703648       0.34045639       29       0.00889240      -0.00132594       0.01293599
O       -3.27376487       0.87053140       5.36928312       30       0.00822311      -0.01077656       0.00802615
O        4.90947270       0.71873187       1.92579289       31      -0.00421424      -0.01517383      -0.00040985
O        0.95886399       1.22174931       5.44186864       32       0.01290127       0.00903117      -0.00040985
O        3.27376487      -1.00482056       5.44681500       33      -0.00822311       0.00156257       0.01334585
O        2.03860887       0.00285578       3.17561936       34      -0.00421424       0.00794186      -0.01293599
O        0.95886400      -1.98810001       6.76922700       35       0.01290127      -0.00487053      -0.00761630
O       -0.67684383       1.78868164       3.25315125       36       0.00889240      -0.01053993      -0.00761630
O       -0.95886400      -0.76635070       5.17894414       37      -0.01290127       0.00416064      -0.00802615
O       -0.40290104       5.06483513       1.58533650       38       0.00822311      -0.00156257      -0.01334585
O        3.70311879       4.78160222       5.10141225       39       0.00421424      -0.00723197      -0.01334585
40
Lattice="8.61259149503476 6.750319279361907e-10 4.923786253503524e-15 -2.8708638323146802 8.12002913274654 -1.169194557784512e-09 -2.870863831360044 -4.060014565698236 7.032151509207693" Properties=species:S:1:pos:R:3:spacegroup_kinds:I:1:forces:R:3 spacegroup="P 1" unit_cell=conventional occupancy="_JSON {\"0\": {\"In\": 1}, \"1\": {\"In\": 1}, \"2\": {\"In\": 1}, \"3\": {\"In\": 1}, \"4\": {\"In\": 1}, \"5\": {\"In\": 1}, \"6\": {\"In\": 1}, \"7\": {\"In\": 1}, \"8\": {\"In\": 1}, \"9\": {\"In\": 1}, \"10\": {\"In\": 1}, \"11\": {\"In\": 1}, \"12\": {\"In\": 1}, \"13\": {\"In\": 1}, \"14\": {\"In\": 1}, \"15\": {\"In\": 1}, \"16\": {\"O\": 1}, \"17\": {\"O\": 1}, \"18\": {\"O\": 1}, \"19\": {\"O\": 1}, \"20\": {\"O\": 1}, \"21\": {\"O\": 1}, \"22\": {\"O\": 1}, \"23\": {\"O\": 1}, \"24\": {\"O\": 1}, \"25\": {\"O\": 1}, \"26\": {\"O\": 1}, \"27\": {\"O\": 1}, \"28\": {\"O\": 1}, \"29\": {\"O\": 1}, \"30\": {\"O\": 1}, \"31\": {\"O\": 1}, \"32\": {\"O\": 1}, \"33\": {\"O\": 1}, \"34\": {\"O\": 1}, \"35\": {\"O\": 1}, \"36\": {\"O\": 1}, \"37\": {\"O\": 1}, \"38\": {\"O\": 1}, \"39\": {\"O\": 1}}" n_minim_iter=3 energy=-45150.21638230644 stress="-0.066878620094727 -7.458887053671292e-13 -3.940647001769411e-13 -7.458887053671292e-13 -0.06687862009589035 9.44214526685393e-14 -3.940647001769411e-13 9.44214526685393e-14 -0.06687862009565547" free_energy=-45150.21638230644 pbc="T T T"
In      -4.10184528       2.90044261       5.52451330        0       0.04749419      -0.03358347       0.05816827
In       6.97270911       1.15957196       1.50763821        1      -0.04749419       0.03358347      -0.05816827
In       1.23098144      -0.87043532       5.02371396        2      -0.04749419       0.03358347      -0.05816827
In      -1.43543192      -2.03000728       3.51607575        3       0.00000000      -0.00000000       0.00000000
In      -1.23098145       3.91544625       3.26567609        4       0.04749419      -0.03358347      -0.05816827
In       4.51074622      -2.75587429       5.27411363        5       0.04749419       0.06716693       0.00000000
In      -1.23098145       1.30414027       5.27411363        6       0.04749419       0.06716693      -0.00000000
In      -1.63988239       6.81588886       1.75803787        7      -0.04749419      -0.06716693      -0.00000000
In       4.10184527       0.14456832       3.76647542        8      -0.04749419       0.03358347       0.05816827
In      -1.43543192       4.06001457      -0.00000000        9       0.00000000       0.00000000      -0.00000000
In       4.10184527       6.23459017       0.25039966       10      -0.04749419       0.03358347       0.05816827
In      -1.23098145      -2.17457560       6.78175184       11       0.04749419      -0.03358347      -0.05816827
In       4.10184527       2.75587430       1.75803787       12      -0.04749419      -0.06716693      -0.00000000
In       1.63988239       4.93044990       2.00843754       13       0.04749419      -0.03358347       0.05816827
In       4.30629575       0.00000000      -0.00000000       14       0.00000000       0.00000000      -0.00000000
In       1.43543191       2.03000729       3.51607575       15      -0.00000000       0.00000000       0.00000000
O        0.83350918       4.05681410       3.86187131       16       0.00007652      -0.00211169      -0.03237736
O       -2.03735465       3.34607890       5.10398754       17       0.00007652      -0.02698377       0.01801746
O       -0.39828604       2.18708237       0.07927690       18      -0.02740596      -0.00755072      -0.01564157
O       -0.83350918      -0.71713614       1.93370734       19      -0.00007652      -0.02909546      -0.01435990
O        3.83383165       4.82292125       1.85443044       20      -0.02546605       0.02006480       0.00128167
O        1.90789601       2.83548404       1.58791178       21       0.02546605       0.00892244       0.01801746
O        1.90789601       6.04745178       0.26651865       22       0.02546605       0.01114236      -0.01673579
O       -2.19476305       5.73650208       3.59535265       23      -0.00201643       0.02835549      -0.01564157
O        3.26914987       1.87293220       6.95287460       24       0.02740596       0.00755072       0.01564157
O        5.06562687      -1.67648751       3.43679885       25       0.00201643      -0.02835549       0.01564157
O        6.14001370       3.19220428       1.66164531       26       0.02740596      -0.01732135      -0.00128167
O        3.54696462       2.27542298       3.78259441       27      -0.00201643      -0.02772374      -0.01673579
O        0.67610079       4.16811865       6.68635595       28      -0.00201643      -0.00063175       0.03237736
O        2.19476304      -0.10810408       0.34579555       29       0.00201643       0.00063175      -0.03237736
O       -3.26914987       0.86781029       5.37050619       30      -0.02740596       0.01732135       0.00128167
O        4.90821848       0.71393567       1.92816397       31      -0.00007652       0.02698377      -0.01801746
O        0.96296782       1.22453053       5.44423972       32      -0.02546605      -0.00892244      -0.01801746
O        3.26914987      -1.00512191       5.44978309       33       0.02740596       0.00977063      -0.01435990
O        2.03735465       0.00320047       3.17028020       34      -0.00007652       0.00211169       0.03237736
O        0.96296782      -1.98743721       6.76563285       35      -0.02546605      -0.01114236       0.01673579
O       -0.67610079       1.78459159       3.24955710       36       0.00201643       0.02772374       0.01673579
O       -0.96296782      -0.76290668       5.17772107       37       0.02546605      -0.02006480      -0.00128167
O       -0.39828604       5.06513648       1.58236841       38      -0.02740596      -0.00977063       0.01435990
O        3.70437301       4.77715071       5.09844417       39       0.00007652       0.02909546       0.01435990
40
Lattice="8.612591495034765 6.750319279361913e-10 4.92378625350353e-15 -2.8708638323146833 8.120029132746545 -1.169194557784513e-09 -2.870863831360047 -4.060014565698238 7.032151509207699" Properties=species:S:1:pos:R:3:spacegroup_kinds:I:1:forces:R:3 spacegroup="P 1" unit_cell=conventional occupancy="_JSON {\"0\": {\"In\": 1}, \"1\": {\"In\": 1}, \"2\": {\"In\": 1}, \"3\": {\"In\": 1}, \"4\": {\"In\": 1}, \"5\": {\"In\": 1}, \"6\": {\"In\": 1}, \"7\": {\"In\": 1}, \"8\": {\"In\": 1}, \"9\": {\"In\": 1}, \"10\": {\"In\": 1}, \"11\": {\"In\": 1}, \"12\": {\"In\": 1}, \"13\": {\"In\": 1}, \"14\": {\"In\": 1}, \"15\": {\"In\": 1}, \"16\": {\"O\": 1}, \"17\": {\"O\": 1}, \"18\": {\"O\": 1}, \"19\": {\"O\": 1}, \"20\": {\"O\": 1}, \"21\": {\"O\": 1}, \"22\": {\"O\": 1}, \"23\": {\"O\": 1}, \"24\": {\"O\": 1}, \"25\": {\"O\": 1}, \"26\": {\"O\": 1}, \"27\": {\"O\": 1}, \"28\": {\"O\": 1}, \"29\": {\"O\": 1}, \"30\": {\"O\": 1}, \"31\": {\"O\": 1}, \"32\": {\"O\": 1}, \"33\": {\"O\": 1}, \"34\": {\"O\": 1}, \"35\": {\"O\": 1}, \"36\": {\"O\": 1}, \"37\": {\"O\": 1}, \"38\": {\"O\": 1}, \"39\": {\"O\": 1}}" n_minim_iter=4 energy=-45150.21872294254 stress="-0.06581512007485844 5.935890924534738e-13 -3.350369006032968e-13 5.935890924534738e-13 -0.06581512007599602 -5.833262051654516e-13 -3.350369006032968e-13 -5.833262051654516e-13 -0.06581512007495777" free_energy=-45150.21872294254 pbc="T T T"
In      -4.09779141       2.89757610       5.52947824        0       0.01437064      -0.01016158       0.01760037
In       6.96865524       1.16243847       1.50267326        1      -0.01437064       0.01016158      -0.01760037
In       1.22692758      -0.86756881       5.01874902        2      -0.01437064       0.01016158      -0.01760037
In      -1.43543192      -2.03000728       3.51607575        3      -0.00000000       0.00000000       0.00000000
In      -1.22692758       3.91257974       3.26071114        4       0.01437064      -0.01016158      -0.01760037
In       4.51480008      -2.75014126       5.27411363        5       0.01437064       0.02032316       0.00000000
In      -1.22692758       1.30987330       5.27411363        6       0.01437064       0.02032316       0.00000000
In      -1.64393625       6.81015584       1.75803787        7      -0.01437064      -0.02032316       0.00000000
In       4.09779141       0.14743483       3.77144037        8      -0.01437064       0.01016158       0.01760037
In      -1.43543192       4.06001457      -0.00000000        9      -0.00000000       0.00000000       0.00000000
In       4.09779141       6.23745668       0.25536461       10      -0.01437064       0.01016158       0.01760037
In      -1.22692758      -2.17744211       6.77678689       11       0.01437064      -0.01016158      -0.01760037
In       4.09779141       2.75014127       1.75803787       12      -0.01437064      -0.02032316       0.00000000
In       1.64393625       4.92758338       2.01340249       13       0.01437064      -0.01016158       0.01760037
In       4.30629575       0.00000000      -0.00000000       14      -0.00000000       0.00000000       0.00000000
In       1.43543191       2.03000729       3.51607575       15       0.00000000       0.00000000      -0.00000000
O        0.83445703       4.05655069       3.86478991       16       0.01068228       0.01451130      -0.03201473
O       -2.03640680       3.34873818       5.10275636       17       0.01068228      -0.03498122       0.00344022
O       -0.39571124       2.18859123       0.08003833       18      -0.01573847      -0.01629893      -0.02891847
O       -0.83445703      -0.71474026       1.93539476       19      -0.01068228      -0.02046993      -0.02857452
O        3.83602290       4.82096499       1.85535643       20      -0.03654137       0.00377384       0.00034395
O        1.90570476       2.83370397       1.58668061       21       0.03654137       0.00158905       0.00344022
O        1.90570476       6.04727558       0.26867582       22       0.03654137       0.00218479      -0.00309627
O       -2.19532735       5.73357158       3.59611408       23       0.01012062       0.02027135      -0.02891847
O        3.26657507       1.87142334       6.95211318       24       0.01573847       0.01629893       0.02891847
O        5.06619117      -1.67355701       3.43603742       25      -0.01012062      -0.02027135       0.02891847
O        6.13743890       3.19361812       1.66071932       26       0.01573847      -0.03319359      -0.00034395
O        3.54640032       2.27754765       3.78475158       27       0.01012062      -0.03517980      -0.00309627
O        0.67553649       4.16892448       6.68343735       28       0.01012062       0.01490845       0.03201473
O        2.19532734      -0.10890991       0.34871415       29      -0.01012062      -0.01490845      -0.03201473
O       -3.26657508       0.86639645       5.37143219       30      -0.01573847       0.03319359       0.00034395
O        4.90727063       0.71127639       1.92939514       31      -0.01068228       0.03498122      -0.00344022
O        0.96515907       1.22631060       5.44547090       32      -0.03654137      -0.00158905      -0.00344022
O        3.26657507      -1.00502689       5.45147052       33       0.01573847       0.01689466      -0.02857452
O        2.03640680       0.00346388       3.16736160       34      -0.01068228      -0.01451130       0.03201473
O        0.96515907      -1.98726101       6.76347568       35      -0.03654137      -0.00218479       0.00309627
O       -0.67553649       1.78246692       3.24739993       36      -0.01012062       0.03517980       0.00309627
O       -0.96515907      -0.76095042       5.17679507       37       0.03654137      -0.00377384      -0.00034395
O       -0.39571124       5.06504146       1.58068099       38      -0.01573847      -0.01689466       0.02857452
O        3.70532086       4.77475484       5.09675674       39       0.01068228       0.02046993       0.02857452
40
Lattice="8.61259149503477 6.750319279361915e-10 4.9237862535035216e-15 -2.8708638323146847 8.120029132746545 -1.1691945577845136e-09 -2.8708638313600483 -4.060014565698238 7.0321515092077025" Properties=species:S:1:pos:R:3:spacegroup_kinds:I:1:forces:R:3 spacegroup="P 1" unit_cell=conventional occupancy="_JSON {\"0\": {\"In\": 1}, \"1\": {\"In\": 1}, \"2\": {\"In\": 1}, \"3\": {\"In\": 1}, \"4\": {\"In\": 1}, \"5\": {\"In\": 1}, \"6\": {\"In\": 1}, \"7\": {\"In\": 1}, \"8\": {\"In\": 1}, \"9\": {\"In\": 1}, \"10\": {\"In\": 1}, \"11\": {\"In\": 1}, \"12\": {\"In\": 1}, \"13\": {\"In\": 1}, \"14\": {\"In\": 1}, \"15\": {\"In\": 1}, \"16\": {\"O\": 1}, \"17\": {\"O\": 1}, \"18\": {\"O\": 1}, \"19\": {\"O\": 1}, \"20\": {\"O\": 1}, \"21\": {\"O\": 1}, \"22\": {\"O\": 1}, \"23\": {\"O\": 1}, \"24\": {\"O\": 1}, \"25\": {\"O\": 1}, \"26\": {\"O\": 1}, \"27\": {\"O\": 1}, \"28\": {\"O\": 1}, \"29\": {\"O\": 1}, \"30\": {\"O\": 1}, \"31\": {\"O\": 1}, \"32\": {\"O\": 1}, \"33\": {\"O\": 1}, \"34\": {\"O\": 1}, \"35\": {\"O\": 1}, \"36\": {\"O\": 1}, \"37\": {\"O\": 1}, \"38\": {\"O\": 1}, \"39\": {\"O\": 1}}" n_minim_iter=5 energy=-45150.219672438645 stress="-0.06609496814626319 1.6182406716414614e-13 3.768827280612299e-13 1.6182406716414614e-13 -0.06609496814550016 -2.9581049559677933e-13 3.768827280612299e-13 -2.9581049559677933e-13 -0.06609496814448637" free_energy=-45150.219672438645 pbc="T T T"
In      -4.09763052       2.89746233       5.52967530        0      -0.00404607       0.00286101      -0.00495541
In       6.96849435       1.16255224       1.50247621        1       0.00404607      -0.00286101       0.00495541
In       1.22676669      -0.86745504       5.01855196        2       0.00404607      -0.00286101       0.00495541
In      -1.43543192      -2.03000728       3.51607575        3      -0.00000000      -0.00000000       0.00000000
In      -1.22676669       3.91246597       3.26051409        4      -0.00404607       0.00286101       0.00495541
In       4.51496097      -2.74991373       5.27411363        5      -0.00404607      -0.00572201      -0.00000000
In      -1.22676669       1.31010084       5.27411363        6      -0.00404607      -0.00572201      -0.00000000
In      -1.64409714       6.80992830       1.75803787        7       0.00404607       0.00572201       0.00000000
In       4.09763052       0.14754860       3.77163742        8       0.00404607      -0.00286101      -0.00495541
In      -1.43543192       4.06001457      -0.00000000        9      -0.00000000      -0.00000000      -0.00000000
In       4.09763052       6.23757045       0.25556166       10       0.00404607      -0.00286101      -0.00495541
In      -1.22676669      -2.17755588       6.77658984       11      -0.00404607       0.00286101       0.00495541
In       4.09763052       2.74991373       1.75803787       12       0.00404607       0.00572201      -0.00000000
In       1.64409714       4.92746961       2.01359954       13      -0.00404607       0.00286101      -0.00495541
In       4.30629575       0.00000000      -0.00000000       14       0.00000000       0.00000000      -0.00000000
In       1.43543191       2.03000729       3.51607575       15      -0.00000000      -0.00000000       0.00000000
O        0.83453387       4.05699872       3.86265416       16       0.01973377       0.01605788       0.00367710
O       -2.03632997       3.34666455       5.10343623       17       0.01973377      -0.00484448      -0.01574508
O       -0.39721826       2.18763755       0.07877838       18       0.01715002      -0.00301749      -0.01890951
O       -0.83453387      -0.71636586       1.93393888       19      -0.01973377       0.01121340      -0.01206798
O        3.83404225       4.82186315       1.85516050       20      -0.01114534      -0.02213081       0.00684153
O        1.90768541       2.83432274       1.58736047       21       0.01114534      -0.01699035      -0.01574508
O        1.90768541       6.04755498       0.26780002       22       0.01114534      -0.00514047       0.02258661
O       -2.19493055       5.73531030       3.59485413       23       0.00856159      -0.01516336      -0.01890951
O        3.26808209       1.87237702       6.95337313       24      -0.01715002       0.00301749       0.01890951
O        5.06579438      -1.67529573       3.43729737       25      -0.00856159       0.01516336       0.01890951
O        6.13894592       3.19205014       1.66091525       26      -0.01715002      -0.01788487      -0.00684153
O        3.54679712       2.27558714       3.78387578       27       0.00856159      -0.00879444       0.02258661
O        0.67593328       4.16914627       6.68557310       28       0.00856159       0.02395780      -0.00367710
O        2.19493054      -0.10913170       0.34657840       29      -0.00856159      -0.02395780       0.00367710
O       -3.26808209       0.86796443       5.37123625       30       0.01715002       0.01788487       0.00684153
O        4.90719379       0.71335002       1.92871528       31      -0.01973377       0.00484448       0.01574508
O        0.96317842       1.22569183       5.44479103       32      -0.01114534       0.01699035       0.01574508
O        3.26808209      -1.00441258       5.45001463       33      -0.01715002       0.01486737      -0.01206798
O        2.03632996       0.00301585       3.16949735       34      -0.01973377      -0.01605788      -0.00367710
O        0.96317842      -1.98754041       6.76435148       35      -0.01114534       0.00514047      -0.02258661
O       -0.67593329       1.78442743       3.24827573       36      -0.00856159       0.00879444      -0.02258661
O       -0.96317842      -0.76184858       5.17699101       37       0.01114534       0.02213081      -0.00684153
O       -0.39721826       5.06442715       1.58213687       38       0.01715002      -0.01486737       0.01206798
O        3.70539770       4.77638043       5.09821263       39       0.01973377      -0.01121340       0.01206798
40