40
Lattice="9.413091949638542 7.377738037635197e-10 1.2503478540279666e-14 -3.137697317241761 8.874748199116626 -1.277879725104968e-09 -3.137697316198401 -4.437374098820525 7.6857573934771075" Properties=species:S:1:pos:R:3:spacegroup_kinds:I:1:forces:R:3 spacegroup="P 1" unit_cell=conventional occupancy="_JSON {\"0\": {\"In\": 1}, \"1\": {\"In\": 1}, \"2\": {\"In\": 1}, \"3\": {\"In\": 1}, \"4\": {\"In\": 1}, \"5\": {\"In\": 1}, \"6\": {\"In\": 1}, \"7\": {\"In\": 1}, \"8\": {\"In\": 1}, \"9\": {\"In\": 1}, \"10\": {\"In\": 1}, \"11\": {\"In\": 1}, \"12\": {\"In\": 1}, \"13\": {\"In\": 1}, \"14\": {\"In\": 1}, \"15\": {\"In\": 1}, \"16\": {\"O\": 1}, \"17\": {\"O\": 1}, \"18\": {\"O\": 1}, \"19\": {\"O\": 1}, \"20\": {\"O\": 1}, \"21\": {\"O\": 1}, \"22\": {\"O\": 1}, \"23\": {\"O\": 1}, \"24\": {\"O\": 1}, \"25\": {\"O\": 1}, \"26\": {\"O\": 1}, \"27\": {\"O\": 1}, \"28\": {\"O\": 1}, \"29\": {\"O\": 1}, \"30\": {\"O\": 1}, \"31\": {\"O\": 1}, \"32\": {\"O\": 1}, \"33\": {\"O\": 1}, \"34\": {\"O\": 1}, \"35\": {\"O\": 1}, \"36\": {\"O\": 1}, \"37\": {\"O\": 1}, \"38\": {\"O\": 1}, \"39\": {\"O\": 1}}" n_minim_iter=1 energy=-45147.83819210886 stress="0.08455103221497363 1.461886456770145e-13 -4.0471511987242343e-13 1.461886456770145e-13 0.0845510322158237 2.7302141850117973e-13 -4.0471511987242343e-13 2.7302141850117973e-13 0.0845510322155669" free_energy=-45147.83819210886 pbc="T T T"
In      -4.44935240       3.14616726       6.07931455        0       0.06215743      -0.04395194       0.07612700
In       7.58704972       1.29120685       1.60644283        1      -0.06215743       0.04395194      -0.07612700
In       1.31165508      -0.92748020       5.44932153        2      -0.06215743       0.04395194      -0.07612700
In      -1.56884866      -2.21868705       3.84287869        3      -0.00000000       0.00000000       0.00000000
In      -1.31165509       4.25551078       3.52788218        4       0.06215743      -0.04395194      -0.07612700
In       4.96373955      -2.96430393       5.76431804        5       0.06215743       0.08790388      -0.00000000
In      -1.31165509       1.47307017       5.76431804        6       0.06215743       0.08790388      -0.00000000
In      -1.82604223       7.40167804       1.92143934        7      -0.06215743      -0.08790388       0.00000000
In       4.44935240       0.18186332       4.15787520        8      -0.06215743       0.04395194       0.07612700
In      -1.56884866       4.43737410      -0.00000000        9      -0.00000000       0.00000000      -0.00000000
In       4.44935240       6.83792447       0.31499651       10      -0.06215743       0.04395194       0.07612700
In      -1.31165509      -2.40055037       7.37076088       11       0.06215743      -0.04395194      -0.07612700
In       4.44935240       2.96430394       1.92143935       12      -0.06215743      -0.08790388       0.00000000
In       1.82604223       5.36485431       2.23643586       13       0.06215743      -0.04395194       0.07612700
In       4.70654597       0.00000000      -0.00000000       14       0.00000000      -0.00000000       0.00000000
In       1.56884866       2.21868705       3.84287869       15       0.00000000       0.00000000       0.00000000
O        1.00713145       4.44124757       4.15049802       16       0.03394737       0.00163699      -0.06141197
O       -2.13056587       3.59250000       5.60715386       17       0.03394737      -0.05400282       0.02928831
O       -0.45719253       2.40924636      -0.02914811       18      -0.03805519      -0.00308932      -0.05889645
O       -1.00713145      -0.84100064       2.07189449       19      -0.03394737      -0.05236583      -0.03212366
O        4.09723010       5.26154607       2.10104260       20      -0.06223014       0.01836195       0.02677280
O        2.17816453       3.02990382       1.76427516       21       0.06223014      -0.01400495       0.02928831
O        2.17816453       6.66901636       0.33676744       22       0.06223014       0.03236689      -0.00251551
O       -2.42385676       6.28402428       3.81373058       23      -0.00977242       0.03690855      -0.05889645
O        3.59488984       2.02812775       7.71490550       24       0.03805519       0.00308932       0.05889645
O        5.56155407      -1.84665017       3.87202680       25       0.00977242      -0.03690855       0.05889645
O        6.73258715       3.39806723       1.74183609       26       0.03805519      -0.05255049      -0.02677280
O        3.85153787       2.37946249       4.17964613       27      -0.00977242      -0.06946010      -0.00251551
O        0.71384056       4.64863554       7.37813806       28      -0.00977242       0.03255155       0.06141197
O        2.42385676      -0.21126144       0.30761933       29       0.00977242      -0.03255155      -0.06141197
O       -3.59488984       1.03930688       5.94392130       30      -0.03805519       0.05255049       0.02677280
O        5.26826318       0.84487410       2.07860353       31      -0.03394737       0.05400282      -0.02928831
O        0.95953278       1.40747029       5.92148222       32      -0.06223014       0.01400495      -0.02928831
O        3.59488984      -0.98882087       5.91477319       33       0.03805519       0.04946116      -0.03212366
O        2.13056587      -0.00387346       3.53525936       34      -0.03394737      -0.00163699       0.06141197
O        0.95953278      -2.23164225       7.34898995       35      -0.06223014      -0.03236689       0.00251551
O       -0.71384056       2.05791162       3.50611125       36       0.00977242       0.06946010       0.00251551
O       -0.95953279      -0.82417197       5.58471479       37       0.06223014      -0.01836195      -0.02677280
O       -0.45719253       5.42619497       1.77098420       38      -0.03805519      -0.04946116       0.03212366
O        4.14482876       5.27837474       5.61386289       39       0.03394737       0.05236583       0.03212366
40
Lattice="9.41309194963854 7.377738037635196e-10 1.2503478540279664e-14 -3.1376973172417606 8.874748199116624 -1.2778797251049678e-09 -3.1376973161984005 -4.437374098820524 7.685757393477107" Properties=species:S:1:pos:R:3:spacegroup_kinds:I:1:forces:R:3 spacegroup="P 1" unit_cell=conventional occupancy="_JSON {\"0\": {\"In\": 1}, \"1\": {\"In\": 1}, \"2\": {\"In\": 1}, \"3\": {\"In\": 1}, \"4\": {\"In\": 1}, \"5\": {\"In\": 1}, \"6\": {\"In\": 1}, \"7\": {\"In\": 1}, \"8\": {\"In\": 1}, \"9\": {\"In\": 1}, \"10\": {\"In\": 1}, \"11\": {\"In\": 1}, \"12\": {\"In\": 1}, \"13\": {\"In\": 1}, \"14\": {\"In\": 1}, \"15\": {\"In\": 1}, \"16\": {\"O\": 1}, \"17\": {\"O\": 1}, \"18\": {\"O\": 1}, \"19\": {\"O\": 1}, \"20\": {\"O\": 1}, \"21\": {\"O\": 1}, \"22\": {\"O\": 1}, \"23\": {\"O\": 1}, \"24\": {\"O\": 1}, \"25\": {\"O\": 1}, \"26\": {\"O\": 1}, \"27\": {\"O\": 1}, \"28\": {\"O\": 1}, \"29\": {\"O\": 1}, \"30\": {\"O\": 1}, \"31\": {\"O\": 1}, \"32\": {\"O\": 1}, \"33\": {\"O\": 1}, \"34\": {\"O\": 1}, \"35\": {\"O\": 1}, \"36\": {\"O\": 1}, \"37\": {\"O\": 1}, \"38\": {\"O\": 1}, \"39\": {\"O\": 1}}" n_minim_iter=2 energy=-45147.85139737196 stress="0.08324443061998739 4.5034631605113275e-13 1.9075645159435737e-13 4.5034631605113275e-13 0.08324443062022152 4.679595845368967e-14 1.9075645159435737e-13 4.679595845368967e-14 0.08324443062024792" free_energy=-45147.85139737196 pbc="T T T"
In      -4.44491259       3.14302783       6.08475220        0       0.02916022      -0.02061939       0.03571383
In       7.58260990       1.29434627       1.60100519        1      -0.02916022       0.02061939      -0.03571383
In       1.30721527      -0.92434078       5.44388389        2      -0.02916022       0.02061939      -0.03571383
In      -1.56884866      -2.21868705       3.84287869        3      -0.00000000      -0.00000000      -0.00000000
In      -1.30721527       4.25237136       3.52244454        4       0.02916022      -0.02061939      -0.03571383
In       4.96817936      -2.95802508       5.76431804        5       0.02916022       0.04123878      -0.00000000
In      -1.30721527       1.47934902       5.76431804        6       0.02916022       0.04123878      -0.00000000
In      -1.83048205       7.39539919       1.92143934        7      -0.02916022      -0.04123878       0.00000000
In       4.44491258       0.18500275       4.16331285        8      -0.02916022       0.02061939       0.03571383
In      -1.56884866       4.43737410      -0.00000000        9      -0.00000000       0.00000000      -0.00000000
In       4.44491258       6.84106390       0.32043415       10      -0.02916022       0.02061939       0.03571383
In      -1.30721527      -2.40368979       7.36532324       11       0.02916022      -0.02061939      -0.03571383
In       4.44491258       2.95802509       1.92143935       12      -0.02916022      -0.04123878       0.00000000
In       1.83048205       5.36171488       2.24187350       13       0.02916022      -0.02061939       0.03571383
In       4.70654597       0.00000000      -0.00000000       14      -0.00000000       0.00000000      -0.00000000
In       1.56884866       2.21868705       3.84287869       15      -0.00000000       0.00000000      -0.00000000
O        1.00955626       4.44136449       4.14611145       16       0.03109968      -0.00303817      -0.01423854
O       -2.12814106       3.58864265       5.60924588       17       0.03109968      -0.01081185       0.00975041
O       -0.45991075       2.40902569      -0.03335500       18      -0.00269137       0.01308203      -0.03163501
O       -1.00955626      -0.84474105       2.06959995       19      -0.03109968      -0.01385003      -0.00448814
O        4.09278509       5.26285764       2.10295494       20      -0.02056008      -0.00441446       0.02714688
O        2.18260954       3.02890346       1.76636718       21       0.02056008      -0.02571711       0.00975041
O        2.18260954       6.67132828       0.33658776       22       0.02056008       0.02130266       0.01739647
O       -2.42455479       6.28666060       3.80952369       23      -0.01323098      -0.00182323      -0.03163501
O        3.59760807       2.02834841       7.71911239       24       0.00269137      -0.01308203       0.03163501
O        5.56225210      -1.84928650       3.87623369       25       0.01323098       0.00182323       0.03163501
O        6.73530538       3.39431362       1.73992375       26       0.00269137      -0.02085571      -0.02714688
O        3.85083984       2.37450105       4.17946645       27      -0.01323098      -0.02648511       0.01739647
O        0.71314253       4.65096065       7.38252463       28      -0.01323098       0.02830834       0.01423854
O        2.42455479      -0.21358655       0.30323276       29       0.01323098      -0.02830834      -0.01423854
O       -3.59760807       1.04306048       5.94583364       30      -0.00269137       0.02085571       0.02714688
O        5.26583837       0.84873145       2.07651151       31      -0.03109968       0.01081185      -0.00975041
O        0.95508777       1.40847064       5.91939020       32      -0.02056008       0.02571711      -0.00975041
O        3.59760807      -0.98528793       5.91247864       33       0.00269137       0.03393774      -0.00448814
O        2.12814105      -0.00399039       3.53964593       34      -0.03109968       0.00303817       0.01423854
O        0.95508777      -2.23395417       7.34916963       35      -0.02056008      -0.02130266      -0.01739647
O       -0.71314253       2.06287305       3.50629093       36       0.01323098       0.02648511      -0.01739647
O       -0.95508778      -0.82548354       5.58280244       37       0.02056008       0.00441446      -0.02714688
O       -0.45991075       5.42266203       1.77327875       38      -0.00269137      -0.03393774       0.00448814
O        4.14725357       5.28211516       5.61615744       39       0.03109968       0.01385003       0.00448814
40
Lattice="9.41309194963854 7.377738037635197e-10 1.2503478540279666e-14 -3.137697317241761 8.874748199116624 -1.2778797251049678e-09 -3.137697316198401 -4.437374098820524 7.6857573934771075" Properties=species:S:1:pos:R:3:spacegroup_kinds:I:1:forces:R:3 spacegroup="P 1" unit_cell=conventional occupancy="_JSON {\"0\": {\"In\": 1}, \"1\": {\"In\": 1}, \"2\": {\"In\": 1}, \"3\": {\"In\": 1}, \"4\": {\"In\": 1}, \"5\": {\"In\": 1}, \"6\": {\"In\": 1}, \"7\": {\"In\": 1}, \"8\": {\"In\": 1}, \"9\": {\"In\": 1}, \"10\": {\"In\": 1}, \"11\": {\"In\": 1}, \"12\": {\"In\": 1}, \"13\": {\"In\": 1}, \"14\": {\"In\": 1}, \"15\": {\"In\": 1}, \"16\": {\"O\": 1}, \"17\": {\"O\": 1}, \"18\": {\"O\": 1}, \"19\": {\"O\": 1}, \"20\": {\"O\": 1}, \"21\": {\"O\": 1}, \"22\": {\"O\": 1}, \"23\": {\"O\": 1}, \"24\": {\"O\": 1}, \"25\": {\"O\": 1}, \"26\": {\"O\": 1}, \"27\": {\"O\": 1}, \"28\": {\"O\": 1}, \"29\": {\"O\": 1}, \"30\": {\"O\": 1}, \"31\": {\"O\": 1}, \"32\": {\"O\": 1}, \"33\": {\"O\": 1}, \"34\": {\"O\": 1}, \"35\": {\"O\": 1}, \"36\": {\"O\": 1}, \"37\": {\"O\": 1}, \"38\": {\"O\": 1}, \"39\": {\"O\": 1}}" n_minim_iter=3 energy=-45147.85479613078 stress="0.08213312590194562 -7.448573477974852e-15 -7.548216331442436e-15 -7.448573477974852e-15 0.08213312590207598 -2.0330505323872907e-13 -7.548216331442436e-15 -2.0330505323872907e-13 0.08213312590162293" free_energy=-45147.85479613078 pbc="T T T"
In      -4.44134959       3.14050842       6.08911595        0       0.00236402      -0.00167162       0.00289533
In       7.57904691       1.29686569       1.59664144        1      -0.00236402       0.00167162      -0.00289533
In       1.30365227      -0.92182136       5.43952013        2      -0.00236402       0.00167162      -0.00289533
In      -1.56884866      -2.21868705       3.84287869        3       0.00000000      -0.00000000       0.00000000
In      -1.30365228       4.24985194       3.51808078        4       0.00236402      -0.00167162      -0.00289533
In       4.97174236      -2.95298625       5.76431804        5       0.00236402       0.00334323       0.00000000
In      -1.30365228       1.48438785       5.76431804        6       0.00236402       0.00334323      -0.00000000
In      -1.83404504       7.39036035       1.92143934        7      -0.00236402      -0.00334323      -0.00000000
In       4.44134959       0.18752216       4.16767660        8      -0.00236402       0.00167162       0.00289533
In      -1.56884866       4.43737410      -0.00000000        9      -0.00000000       0.00000000       0.00000000
In       4.44134959       6.84358331       0.32479791       10      -0.00236402       0.00167162       0.00289533
In      -1.30365228      -2.40620921       7.36095948       11       0.00236402      -0.00167162      -0.00289533
In       4.44134959       2.95298626       1.92143935       12      -0.00236402      -0.00334323      -0.00000000
In       1.83404504       5.35919547       2.24623726       13       0.00236402      -0.00167162       0.00289533
In       4.70654597       0.00000000      -0.00000000       14      -0.00000000      -0.00000000       0.00000000
In       1.56884866       2.21868705       3.84287869       15      -0.00000000       0.00000000       0.00000000
O        1.01188459       4.44136241       4.14295842       16       0.02702684      -0.00625896       0.02127326
O       -2.12581273       3.58591309       5.61082420       17       0.02702684       0.02155266      -0.00521622
O       -0.46171006       2.40921481      -0.03683199       18       0.02342799       0.02409743      -0.00962389
O       -1.01188459      -0.84747270       2.06802523       19      -0.02702684       0.01529371       0.01605705
O        4.08943552       5.26358185       2.10485722       20       0.01131110      -0.02085006       0.02568093
O        2.18595911       3.02761815       1.76794550       21      -0.01131110      -0.03266537      -0.00521622
O        2.18595911       6.67333780       0.33691171       22      -0.01131110       0.01181531       0.03089715
O       -2.42533286       6.28829397       3.80604671       23      -0.01490995      -0.03012060      -0.00962389
O        3.59940738       2.02815929       7.72258938       24      -0.02342799      -0.02409743       0.00962389
O        5.56303018      -1.85091986       3.87971068       25       0.01490995       0.03012060       0.00962389
O        6.73710469       3.39139702       1.73802147       26      -0.02342799       0.00371419      -0.02568093
O        3.85006177       2.37067321       4.17979041       27      -0.01490995       0.00672577       0.03089715
O        0.71236445       4.65315513       7.38567766       28      -0.01490995       0.02339483      -0.02127326
O        2.42533286      -0.21578103       0.30007973       29       0.01490995      -0.02339483       0.02127326
O       -3.59940738       1.04597708       5.94773592       30       0.02342799      -0.00371419       0.02568093
O        5.26351004       0.85146101       2.07493319       31      -0.02702684      -0.02155266       0.00521622
O        0.95173821       1.40975596       5.91781188       32       0.01131110       0.03266537       0.00521622
O        3.59940738      -0.98218221       5.91090393       33      -0.02342799       0.02038325       0.01605705
O        2.12581272      -0.00398831       3.54279896       34      -0.02702684       0.00625896      -0.02127326
O        0.95173821      -2.23596370       7.34884567       35       0.01131110      -0.01181531      -0.03089715
O       -0.71236446       2.06670090       3.50596698       36       0.01490995      -0.00672577      -0.03089715
O       -0.95173821      -0.82620774       5.58090017       37      -0.01131110       0.02085006      -0.02568093
O       -0.46171006       5.41955631       1.77485346       38       0.02342799      -0.02038325      -0.01605705
O        4.14958191       5.28484680       5.61773215       39       0.02702684      -0.01529371      -0.01605705
40
Lattice="9.413091949638531 7.377738037635189e-10 1.250347854027966e-14 -3.1376973172417584 8.874748199116612 -1.2778797251049664e-09 -3.1376973161983983 -4.437374098820518 7.6857573934770995" Properties=species:S:1:pos:R:3:spacegroup_kinds:I:1:forces:R:3 spacegroup="P 1" unit_cell=conventional occupancy="_JSON {\"0\": {\"In\": 1}, \"1\": {\"In\": 1}, \"2\": {\"In\": 1}, \"3\": {\"In\": 1}, \"4\": {\"In\": 1}, \"5\": {\"In\": 1}, \"6\": {\"In\": 1}, \"7\": {\"In\": 1}, \"8\": {\"In\": 1}, \"9\": {\"In\": 1}, \"10\": {\"In\": 1}, \"11\": {\"In\": 1}, \"12\": {\"In\": 1}, \"13\": {\"In\": 1}, \"14\": {\"In\": 1}, \"15\": {\"In\": 1}, \"16\": {\"O\": 1}, \"17\": {\"O\": 1}, \"18\": {\"O\": 1}, \"19\": {\"O\": 1}, \"20\": {\"O\": 1}, \"21\": {\"O\": 1}, \"22\": {\"O\": 1}, \"23\": {\"O\": 1}, \"24\": {\"O\": 1}, \"25\": {\"O\": 1}, \"26\": {\"O\": 1}, \"27\": {\"O\": 1}, \"28\": {\"O\": 1}, \"29\": {\"O\": 1}, \"30\": {\"O\": 1}, \"31\": {\"O\": 1}, \"32\": {\"O\": 1}, \"33\": {\"O\": 1}, \"34\": {\"O\": 1}, \"35\": {\"O\": 1}, \"36\": {\"O\": 1}, \"37\": {\"O\": 1}, \"38\": {\"O\": 1}, \"39\": {\"O\": 1}}" n_minim_iter=4 energy=-45147.85765370304 stress="0.0811648815026191 -6.340255313090729e-14 1.6367633390710728e-13 -6.340255313090729e-14 0.08116488150292261 -3.0270807219393303e-13 1.6367633390710728e-13 -3.0270807219393303e-13 0.08116488150297416" free_energy=-45147.85765370304 pbc="T T T"
In      -4.43798137       3.13812672       6.09324117        0      -0.01661041       0.01174533      -0.02034351
In       7.57567868       1.29924738       1.59251622        1       0.01661041      -0.01174533       0.02034351
In       1.30028405      -0.91943967       5.43539491        2       0.01661041      -0.01174533       0.02034351
In      -1.56884866      -2.21868705       3.84287869        3      -0.00000000      -0.00000000      -0.00000000
In      -1.30028405       4.24747025       3.51395557        4      -0.01661041       0.01174533       0.02034351
In       4.97511058      -2.94822286       5.76431804        5      -0.01661041      -0.02349067      -0.00000000
In      -1.30028405       1.48915124       5.76431804        6      -0.01661041      -0.02349067       0.00000000
In      -1.83741327       7.38559696       1.92143934        7       0.01661041       0.02349067      -0.00000000
In       4.43798136       0.18990386       4.17180182        8       0.01661041      -0.01174533      -0.02034351
In      -1.56884866       4.43737410      -0.00000000        9       0.00000000      -0.00000000       0.00000000
In       4.43798136       6.84596501       0.32892312       10       0.01661041      -0.01174533      -0.02034351
In      -1.30028405      -2.40859090       7.35683426       11      -0.01661041       0.01174533       0.02034351
In       4.43798136       2.94822286       1.92143935       12       0.01661041       0.02349067       0.00000000
In       1.83741327       5.35681377       2.25036247       13      -0.01661041       0.01174533      -0.02034351
In       4.70654597       0.00000000      -0.00000000       14      -0.00000000       0.00000000       0.00000000
In       1.56884866       2.21868705       3.84287869       15       0.00000000       0.00000000      -0.00000000
O        1.01887782       4.44018400       4.14436884       16       0.01102035       0.01124092       0.01391223
O       -2.11881949       3.58772375       5.61113953       17       0.01102035       0.00642789      -0.01669104
O       -0.45878290       2.41390062      -0.04149656       18       0.02033176      -0.00015628      -0.00528693
O       -1.01887783      -0.84684045       2.06975097       19      -0.01102035       0.01766881      -0.00277880
O        4.08881155       5.26025651       2.11124753       20       0.00238682      -0.02072122       0.00250813
O        2.18658308       3.02042131       1.76826083       21      -0.00238682      -0.01253271      -0.01669104
O        2.18658308       6.67720930       0.34298669       22      -0.00238682      -0.00818851       0.01919917
O       -2.42877496       6.28397227       3.80138214       23       0.00692459      -0.01911688      -0.00528693
O        3.59648021       2.02347349       7.72725395       24      -0.02033176       0.00015628       0.00528693
O        5.56647227      -1.84659817       3.88437525       25      -0.00692459       0.01911688       0.00528693
O        6.73417753       3.38970029       1.73163116       26      -0.02033176      -0.00465676      -0.00250813
O        3.84661968       2.36879442       4.18586539       27       0.00692459       0.00497982       0.01919917
O        0.70892236       4.65935561       7.38426725       28       0.00692459       0.01413706      -0.01391223
O        2.42877495      -0.22198151       0.30149014       29      -0.00692459      -0.01413706       0.01391223
O       -3.59648021       1.04767382       5.95412623       30       0.02033176       0.00465676       0.00250813
O        5.25651681       0.84965035       2.07461786       31      -0.01102035      -0.00642789       0.01669104
O        0.95111423       1.41695280       5.91749656       32       0.00238682       0.01253271       0.01669104
O        3.59648021      -0.97579967       5.91262967       33      -0.02033176       0.00450048      -0.00277880
O        2.11881949      -0.00280990       3.54138855       34      -0.01102035      -0.01124092      -0.01391223
O        0.95111423      -2.23983520       7.34277069       35       0.00238682       0.00818851      -0.01919917
O       -0.70892236       2.06857968       3.49989200       36      -0.00692459      -0.00497982      -0.01919917
O       -0.95111424      -0.82288240       5.57450986       37      -0.00238682       0.02072122      -0.00250813
O       -0.45878290       5.41317377       1.77312772       38       0.02033176      -0.00450048       0.00277880
O        4.15657514       5.28421456       5.61600641       39       0.01102035      -0.01766881       0.00277880
40
Lattice="9.413091949638531 7.377738037635189e-10 1.2503478540279669e-14 -3.1376973172417584 8.874748199116612 -1.2778797251049664e-09 -3.1376973161983983 -4.437374098820518 7.6857573934770995" Properties=species:S:1:pos:R:3:spacegroup_kinds:I:1:forces:R:3 spacegroup="P 1" unit_cell=conventional occupancy="_JSON {\"0\": {\"In\": 1}, \"1\": {\"In\": 1}, \"2\": {\"In\": 1}, \"3\": {\"In\": 1}, \"4\": {\"In\": 1}, \"5\": {\"In\": 1}, \"6\": {\"In\": 1}, \"7\": {\"In\": 1}, \"8\": {\"In\": 1}, \"9\": {\"In\": 1}, \"10\": {\"In\": 1}, \"11\": {\"In\": 1}, \"12\": {\"In\": 1}, \"13\": {\"In\": 1}, \"14\": {\"In\": 1}, \"15\": {\"In\": 1}, \"16\": {\"O\": 1}, \"17\": {\"O\": 1}, \"18\": {\"O\": 1}, \"19\": {\"O\": 1}, \"20\": {\"O\": 1}, \"21\": {\"O\": 1}, \"22\": {\"O\": 1}, \"23\": {\"O\": 1}, \"24\": {\"O\": 1}, \"25\": {\"O\": 1}, \"26\": {\"O\": 1}, \"27\": {\"O\": 1}, \"28\": {\"O\": 1}, \"29\": {\"O\": 1}, \"30\": {\"O\": 1}, \"31\": {\"O\": 1}, \"32\": {\"O\": 1}, \"33\": {\"O\": 1}, \"34\": {\"O\": 1}, \"35\": {\"O\": 1}, \"36\": {\"O\": 1}, \"37\": {\"O\": 1}, \"38\": {\"O\": 1}, \"39\": {\"O\": 1}}" n_minim_iter=5 energy=-45147.85839292129 stress="0.0814363153165974 4.581580996179742e-13 -1.6234998161639474e-13 4.581580996179742e-13 0.08143631531712495 -1.4506711240570785e-13 -1.6234998161639474e-13 -1.4506711240570785e-13 0.08143631531691073" free_energy=-45147.85839292129 pbc="T T T"
In      -4.43880075       3.13870611       6.09223764        0      -0.00909413       0.00643052      -0.01113799
In       7.57649806       1.29866799       1.59351975        1       0.00909413      -0.00643052       0.01113799
In       1.30110343      -0.92001906       5.43639845        2       0.00909413      -0.00643052       0.01113799
In      -1.56884866      -2.21868705       3.84287869        3       0.00000000       0.00000000       0.00000000
In      -1.30110343       4.24804964       3.51495910        4      -0.00909413       0.00643052       0.01113799
In       4.97429120      -2.94938164       5.76431804        5      -0.00909413      -0.01286105      -0.00000000
In      -1.30110343       1.48799246       5.76431804        6      -0.00909413      -0.01286105       0.00000000
In      -1.83659389       7.38675574       1.92143934        7       0.00909413       0.01286105      -0.00000000
In       4.43880074       0.18932447       4.17079829        8       0.00909413      -0.00643052      -0.01113799
In      -1.56884866       4.43737410      -0.00000000        9       0.00000000       0.00000000      -0.00000000
In       4.43880074       6.84538562       0.32791959       10       0.00909413      -0.00643052      -0.01113799
In      -1.30110343      -2.40801151       7.35783780       11      -0.00909413       0.00643052       0.01113799
In       4.43880074       2.94938164       1.92143935       12       0.00909413       0.01286105      -0.00000000
In       1.83659388       5.35739316       2.24935894       13      -0.00909413       0.00643052      -0.01113799
In       4.70654597       0.00000000      -0.00000000       14       0.00000000       0.00000000       0.00000000
In       1.56884866       2.21868705       3.84287869       15      -0.00000000       0.00000000      -0.00000000
O        1.01953970       4.44012687       4.14589702       16       0.00946637       0.01416645      -0.00218856
O       -2.11815762       3.58907576       5.61042491       17       0.00946637      -0.00897857      -0.01117423
O       -0.45734144       2.41470138      -0.04125639       18       0.00804664      -0.00797466      -0.01291304
O       -1.01953970      -0.84554557       2.07056454       19      -0.00946637       0.00518788      -0.01336278
O        4.08986561       5.25910029       2.11182093       20      -0.01162054      -0.01264323      -0.00044974
O        2.18552902       3.01934662       1.76754621       21       0.01162054      -0.00593213      -0.01117423
O        2.18552902       6.67712777       0.34427471       22       0.01162054      -0.00671110       0.01072449
O       -2.42904944       6.28234634       3.80162230       23       0.01020080      -0.00492822      -0.01291304
O        3.59503876       2.02267273       7.72701378       24      -0.00804664       0.00797466       0.01291304
O        5.56674675      -1.84497224       3.88413508       25      -0.01020080       0.00492822       0.01291304
O        6.73273607       3.39030866       1.73105776       26      -0.00804664      -0.01517035       0.00044974
O        3.84634519       2.36981538       4.18715341       27       0.01020080      -0.00871891       0.01072449
O        0.70864788       4.65996059       7.38273906       28       0.01020080       0.01364713       0.00218856
O        2.42904944      -0.22258649       0.30301832       29      -0.01020080      -0.01364713      -0.00218856
O       -3.59503876       1.04706544       5.95469962       30       0.00804664       0.01517035      -0.00044974
O        5.25585493       0.84829834       2.07533248       31      -0.00946637       0.00897857       0.01117423
O        0.95216830       1.41802748       5.91821118       32      -0.01162054       0.00593213       0.01117423
O        3.59503876      -0.97560728       5.91344324       33      -0.00804664       0.00719569      -0.01336278
O        2.11815762      -0.00275277       3.53986037       34      -0.00946637      -0.01416645       0.00218856
O        0.95216830      -2.23975366       7.34148268       35      -0.01162054       0.00671110      -0.01072449
O       -0.70864788       2.06755873       3.49860398       36      -0.01020080       0.00871891      -0.01072449
O       -0.95216830      -0.82172618       5.57393646       37       0.01162054       0.01264323       0.00044974
O       -0.45734144       5.41298138       1.77231415       38       0.00804664      -0.00719569       0.01336278
O        4.15723701       5.28291967       5.61519285       39       0.00946637      -0.00518788       0.01336278
40