40
Lattice="8.281004255298075 6.490413802475269e-10 1.374819675078977e-14 -2.760334752377952 7.807405685058226 -1.124179581602133e-09 -2.760334751460081 -3.90370284188007 6.7614116616609135" Properties=species:S:1:pos:R:3:spacegroup_kinds:I:1:forces:R:3 spacegroup="P 1" unit_cell=conventional occupancy="_JSON {\"0\": {\"In\": 1}, \"1\": {\"In\": 1}, \"2\": {\"In\": 1}, \"3\": {\"In\": 1}, \"4\": {\"In\": 1}, \"5\": {\"In\": 1}, \"6\": {\"In\": 1}, \"7\": {\"In\": 1}, \"8\": {\"In\": 1}, \"9\": {\"In\": 1}, \"10\": {\"In\": 1}, \"11\": {\"In\": 1}, \"12\": {\"In\": 1}, \"13\": {\"In\": 1}, \"14\": {\"In\": 1}, \"15\": {\"In\": 1}, \"16\": {\"O\": 1}, \"17\": {\"O\": 1}, \"18\": {\"O\": 1}, \"19\": {\"O\": 1}, \"20\": {\"O\": 1}, \"21\": {\"O\": 1}, \"22\": {\"O\": 1}, \"23\": {\"O\": 1}, \"24\": {\"O\": 1}, \"25\": {\"O\": 1}, \"26\": {\"O\": 1}, \"27\": {\"O\": 1}, \"28\": {\"O\": 1}, \"29\": {\"O\": 1}, \"30\": {\"O\": 1}, \"31\": {\"O\": 1}, \"32\": {\"O\": 1}, \"33\": {\"O\": 1}, \"34\": {\"O\": 1}, \"35\": {\"O\": 1}, \"36\": {\"O\": 1}, \"37\": {\"O\": 1}, \"38\": {\"O\": 1}, \"39\": {\"O\": 1}}" n_minim_iter=6 energy=-45145.29602375294 stress="-0.1404186897413931 -3.892675380126982e-13 -4.682962682283825e-13 -3.892675380126982e-13 -0.14041868974036362 -2.7529375107928108e-14 -4.682962682283825e-13 -2.7529375107928108e-14 -0.1404186897408858" free_energy=-45145.29602375294 pbc="T T T"
In      -3.85016455       2.72247746       5.42664821        0       0.00037492      -0.00026511       0.00045918
In       6.61049929       1.18122539       1.33476345        1      -0.00037492       0.00026511      -0.00045918
In       1.08982979      -0.77062603       4.71546928        2      -0.00037492       0.00026511      -0.00045918
In      -1.38016738      -1.95185142       3.38070583        3      -0.00000000      -0.00000000      -0.00000000
In      -1.08982979       3.69840317       3.02511636        4       0.00037492      -0.00026511      -0.00045918
In       4.43083971      -2.51717778       5.07105874        5       0.00037492       0.00053021       0.00000000
In      -1.08982979       1.38652506       5.07105874        6       0.00037492       0.00053021      -0.00000000
In      -1.67050496       6.42088063       1.69035291        7      -0.00037492      -0.00053021       0.00000000
In       3.85016454       0.20529968       3.73629530        8      -0.00037492       0.00026511       0.00045918
In      -1.38016738       3.90370284      -0.00000000        9       0.00000000      -0.00000000      -0.00000000
In       3.85016454       6.06085394       0.35558946       10      -0.00037492       0.00026511       0.00045918
In      -1.08982979      -2.15715109       6.40582219       11       0.00037492      -0.00026511      -0.00045918
In       3.85016454       2.51717778       1.69035291       12      -0.00037492      -0.00053021       0.00000000
In       1.67050496       4.67432888       2.04594238       13       0.00037492      -0.00026511       0.00045918
In       4.14050213       0.00000000      -0.00000000       14      -0.00000000      -0.00000000      -0.00000000
In       1.38016737       1.95185142       3.38070583       15       0.00000000      -0.00000000       0.00000000
O        0.82994443       3.89706130       3.82994454       16       0.00270653       0.00001867      -0.00017402
O       -1.93039032       3.32015004       4.85219114       17       0.00270653      -0.00016004       0.00007084
O       -0.27979243       2.15300108       0.11234078       18       0.00076889       0.00121008      -0.00230228
O       -0.82994444      -0.59019435       1.92072402       19      -0.00270653      -0.00014137      -0.00010318
O        3.77373092       4.55875718       1.80838324       20      -0.00105307      -0.00118784       0.00219910
O        1.74693858       2.66512419       1.47148531       21       0.00105307      -0.00249839       0.00007084
O        1.74693858       5.79733583       0.33689792       22       0.00105307       0.00131055       0.00212825
O       -2.12313303       5.40167807       3.49304661       23      -0.00088458      -0.00112827      -0.00230228
O        3.04012717       1.75070177       6.64907088       24      -0.00076889      -0.00121008       0.00230228
O        4.88346778      -1.49797522       3.26836505       25       0.00088458       0.00112827       0.00230228
O        5.80046193       3.12564193       1.57232259       26      -0.00076889      -0.00138879      -0.00219910
O        3.39753648       2.27607949       3.71760376       27      -0.00088458      -0.00142969       0.00212825
O        0.63720172       4.03335097       6.31217295       28      -0.00088458       0.00255797       0.00017402
O        2.12313302      -0.12964813       0.44923871       29       0.00088458      -0.00255797      -0.00017402
O       -3.04012718       0.77806091       5.18908907       30       0.00076889       0.00138879       0.00219910
O        4.69072507       0.58355280       1.90922052       31      -0.00270653       0.00016004      -0.00007084
O        1.01339616       1.23857866       5.28992635       32      -0.00105307       0.00249839      -0.00007084
O        3.04012717      -0.97264085       5.30142985       33      -0.00076889       0.00259887      -0.00010318
O        1.93039031       0.00664155       2.93146712       34      -0.00270653      -0.00001867       0.00017402
O        1.01339616      -1.89363299       6.42451373       35      -0.00105307      -0.00131055      -0.00212825
O       -0.63720173       1.62762335       3.04380790       36       0.00088458       0.00142969      -0.00212825
O       -1.01339617      -0.65505433       4.95302842       37       0.00105307       0.00118784      -0.00219910
O       -0.27979243       4.87634370       1.45998181       38       0.00076889      -0.00259887       0.00010318
O        3.59027919       4.49389719       4.84068764       39       0.00270653       0.00014137       0.00010318
