40
Lattice="8.69161050979012 6.81227204304165e-10 5.0780312540960845e-15 -2.8972035039056414 8.194528974312737 -1.1799243514286993e-09 -2.8972035029422427 -4.09726448647514 7.096670264589082" Properties=species:S:1:pos:R:3:spacegroup_kinds:I:1:forces:R:3 spacegroup="P 1" unit_cell=conventional occupancy="_JSON {\"0\": {\"In\": 1}, \"1\": {\"In\": 1}, \"2\": {\"In\": 1}, \"3\": {\"In\": 1}, \"4\": {\"In\": 1}, \"5\": {\"In\": 1}, \"6\": {\"In\": 1}, \"7\": {\"In\": 1}, \"8\": {\"In\": 1}, \"9\": {\"In\": 1}, \"10\": {\"In\": 1}, \"11\": {\"In\": 1}, \"12\": {\"In\": 1}, \"13\": {\"In\": 1}, \"14\": {\"In\": 1}, \"15\": {\"In\": 1}, \"16\": {\"O\": 1}, \"17\": {\"O\": 1}, \"18\": {\"O\": 1}, \"19\": {\"O\": 1}, \"20\": {\"O\": 1}, \"21\": {\"O\": 1}, \"22\": {\"O\": 1}, \"23\": {\"O\": 1}, \"24\": {\"O\": 1}, \"25\": {\"O\": 1}, \"26\": {\"O\": 1}, \"27\": {\"O\": 1}, \"28\": {\"O\": 1}, \"29\": {\"O\": 1}, \"30\": {\"O\": 1}, \"31\": {\"O\": 1}, \"32\": {\"O\": 1}, \"33\": {\"O\": 1}, \"34\": {\"O\": 1}, \"35\": {\"O\": 1}, \"36\": {\"O\": 1}, \"37\": {\"O\": 1}, \"38\": {\"O\": 1}, \"39\": {\"O\": 1}}" n_minim_iter=4 energy=-45150.98473451336 stress="-0.046532061246727235 1.5889486260548303e-14 -3.088698455828525e-13 1.5889486260548303e-14 -0.046532061246378986 -4.2109840286347454e-13 -3.088698455828525e-13 -4.2109840286347454e-13 -0.04653206124677808" free_energy=-45150.98473451336 pbc="T T T"
In      -4.14593415       2.93161815       5.56729381        0       0.00370819      -0.00262209       0.00454159
In       7.04313765       1.16564634       1.52937645        1      -0.00370819       0.00262209      -0.00454159
In       1.24873064      -0.88298590       5.07771158        2      -0.00370819       0.00262209      -0.00454159
In      -1.44860175      -2.04863224       3.54833513        3       0.00000000       0.00000000      -0.00000000
In      -1.24873064       3.95593427       3.30354401        4       0.00370819      -0.00262209      -0.00454159
In       4.54567636      -2.79028793       5.32250270        5       0.00370819       0.00524417      -0.00000000
In      -1.24873064       1.30697656       5.32250270        6       0.00370819       0.00524417       0.00000000
In      -1.64847286       6.88755242       1.77416756        7      -0.00370819      -0.00524417       0.00000000
In       4.14593414       0.14133022       3.79312625        8      -0.00370819       0.00262209       0.00454159
In      -1.44860175       4.09726449      -0.00000000        9      -0.00000000       0.00000000      -0.00000000
In       4.14593414       6.28722695       0.24479111       10      -0.00370819       0.00262209       0.00454159
In      -1.24873064      -2.18996246       6.85187914       11       0.00370819      -0.00262209      -0.00454159
In       4.14593414       2.79028793       1.77416756       12      -0.00370819      -0.00524417      -0.00000000
In       1.64847286       4.98025039       2.01895868       13       0.00370819      -0.00262209       0.00454159
In       4.34580525       0.00000000      -0.00000000       14      -0.00000000       0.00000000       0.00000000
In       1.44860175       2.04863225       3.54833513       15      -0.00000000      -0.00000000      -0.00000000
O        0.83854104       4.09454408       3.88601502       16       0.00525895       0.00202190      -0.00210709
O       -2.05866247       3.36674794       5.15601870       17       0.00525895      -0.00283574      -0.00069747
O       -0.41178876       2.20223237       0.07634856       18       0.00098568       0.00018591      -0.00593113
O       -0.83854104      -0.73323696       1.94536346       19      -0.00525895      -0.00081384      -0.00280456
O        3.86042122       4.87458131       1.86901490       20      -0.00442655      -0.00261049       0.00312657
O        1.93398579       2.86730852       1.60768356       21       0.00442655      -0.00401293      -0.00069747
O        1.93398579       6.10453728       0.26133133       22       0.00442655       0.00140244       0.00382404
O       -2.21354751       5.80005744       3.62468369       23       0.00015328      -0.00099128      -0.00593113
O        3.30899226       1.89503212       7.02032170       24      -0.00098568      -0.00018591       0.00593113
O        5.11075101      -1.70279295       3.47198657       25      -0.00015328       0.00099128       0.00593113
O        6.20619576       3.21586822       1.67932023       26      -0.00098568      -0.00504355      -0.00312657
O        3.58085949       2.28767168       3.80966646       27       0.00015328      -0.00464087       0.00382404
O        0.68365599       4.20406434       6.75899037       28       0.00015328       0.00563215       0.00210709
O        2.21354751      -0.10679985       0.33767989       29      -0.00015328      -0.00563215      -0.00210709
O       -3.30899226       0.88139627       5.41735003       30       0.00098568       0.00504355       0.00312657
O        4.95586597       0.73051655       1.94065156       31      -0.00525895       0.00283574       0.00069747
O        0.96321771       1.22995597       5.48898669       32      -0.00442655       0.00401293       0.00069747
O        3.30899226      -1.01363585       5.49369859       33      -0.00098568       0.00522946      -0.00280456
O        2.05866246       0.00272042       3.21065524       34      -0.00525895      -0.00202190       0.00210709
O        0.96321771      -2.00727279       6.83533893       35      -0.00442655      -0.00140244      -0.00382404
O       -0.68365599       1.80959281       3.28700380       36      -0.00015328       0.00464087      -0.00382404
O       -0.96321772      -0.77731682       5.22765536       37       0.00442655       0.00261049      -0.00312657
O       -0.41178876       5.11090034       1.60297167       38       0.00098568      -0.00522946       0.00280456
O        3.73574454       4.83050145       5.15130680       39       0.00525895       0.00081384       0.00280456
