40
Lattice="9.544760638329162 7.480965040157226e-10 2.0144873166538637e-14 -3.181586880148369 8.998886629303954 -1.2957605487347657e-09 -3.1815868790904176 -4.499443313903867 7.793264427617174" Properties=species:S:1:pos:R:3:spacegroup_kinds:I:1:forces:R:3 spacegroup="P 1" unit_cell=conventional occupancy="_JSON {\"0\": {\"In\": 1}, \"1\": {\"In\": 1}, \"2\": {\"In\": 1}, \"3\": {\"In\": 1}, \"4\": {\"In\": 1}, \"5\": {\"In\": 1}, \"6\": {\"In\": 1}, \"7\": {\"In\": 1}, \"8\": {\"In\": 1}, \"9\": {\"In\": 1}, \"10\": {\"In\": 1}, \"11\": {\"In\": 1}, \"12\": {\"In\": 1}, \"13\": {\"In\": 1}, \"14\": {\"In\": 1}, \"15\": {\"In\": 1}, \"16\": {\"O\": 1}, \"17\": {\"O\": 1}, \"18\": {\"O\": 1}, \"19\": {\"O\": 1}, \"20\": {\"O\": 1}, \"21\": {\"O\": 1}, \"22\": {\"O\": 1}, \"23\": {\"O\": 1}, \"24\": {\"O\": 1}, \"25\": {\"O\": 1}, \"26\": {\"O\": 1}, \"27\": {\"O\": 1}, \"28\": {\"O\": 1}, \"29\": {\"O\": 1}, \"30\": {\"O\": 1}, \"31\": {\"O\": 1}, \"32\": {\"O\": 1}, \"33\": {\"O\": 1}, \"34\": {\"O\": 1}, \"35\": {\"O\": 1}, \"36\": {\"O\": 1}, \"37\": {\"O\": 1}, \"38\": {\"O\": 1}, \"39\": {\"O\": 1}}" n_minim_iter=6 energy=-45145.36791268261 stress="0.10341956808295037 -2.39404230287353e-13 -2.8721750570673867e-13 -2.39404230287353e-13 0.10341956808346768 -7.924664199902145e-15 -2.8721750570673867e-13 -7.924664199902145e-15 0.10341956808288044" free_energy=-45145.36791268261 pbc="T T T"
In      -4.48545228       3.17169373       6.19636196        0      -0.00424985       0.00300510      -0.00520498
In       7.66703916       1.32774959       1.59690246        1       0.00424985      -0.00300510       0.00520498
In       1.30386540      -0.92197207       5.49353468        2       0.00424985      -0.00300510       0.00520498
In      -1.59079344      -2.24972166       3.89663221        3       0.00000000      -0.00000000       0.00000000
In      -1.30386540       4.29655456       3.54521857        4      -0.00424985       0.00300510       0.00520498
In       5.05930836      -2.96880496       5.84494832        5      -0.00424985      -0.00601020       0.00000000
In      -1.30386540       1.53063835       5.84494832        6      -0.00424985      -0.00601020       0.00000000
In      -1.87772148       7.46824828       1.94831610        7       0.00424985       0.00601020      -0.00000000
In       4.48545228       0.20288876       4.24804585        8       0.00424985      -0.00300510      -0.00520498
In      -1.59079344       4.49944332      -0.00000000        9       0.00000000       0.00000000      -0.00000000
In       4.48545228       6.95205374       0.35141364       10       0.00424985      -0.00300510      -0.00520498
In      -1.30386540      -2.45261042       7.44185078       11      -0.00424985       0.00300510       0.00520498
In       4.48545228       2.96880497       1.94831610       12       0.00424985       0.00601020      -0.00000000
In       1.87772148       5.42141538       2.29972975       13      -0.00424985       0.00300510      -0.00520498
In       4.77238032       0.00000000      -0.00000000       14       0.00000000      -0.00000000       0.00000000
In       1.59079344       2.24972166       3.89663221       15      -0.00000000      -0.00000000       0.00000000
O        1.07715279       4.50379498       4.19381860       16       0.00405254      -0.00501690      -0.00300358
O       -2.10443409       3.62977762       5.69258647       17       0.00405254      -0.00009273       0.00584655
O       -0.45677497       2.46470668      -0.08271589       18      -0.00346655       0.00522408      -0.00336242
O       -1.07715279      -0.86531403       2.09314065       19      -0.00405254      -0.00510963       0.00284297
O        4.12366518       5.31700131       2.17585654       20      -0.00143827       0.00316833       0.00620539
O        2.23950857       3.02387528       1.79595426       21       0.00143827      -0.00378986       0.00584655
O        2.23950857       6.79256935       0.37990228       22       0.00143827       0.00695819       0.00035884
O       -2.47600606       6.35824765       3.81391632       23      -0.00608083       0.00152694      -0.00336242
O        3.63836184       2.03473664       7.87598031       24       0.00346656      -0.00522408       0.00336242
O        5.65759294      -1.85880433       3.97934810       25       0.00608083      -0.00152694       0.00336242
O        6.81994872       3.41044094       1.72077567       26       0.00346655      -0.00029990      -0.00620539
O        3.88716770       2.37354626       4.27653449       27      -0.00608083      -0.00367541       0.00035884
O        0.70558082       4.76653604       7.49607803       28      -0.00608083       0.00214847       0.00300358
O        2.47600606      -0.26709272       0.29718639       29       0.00608083      -0.00214847      -0.00300358
O       -3.63836185       1.08900238       6.07248875       30      -0.00346656       0.00029990       0.00620539
O        5.28602097       0.86966570       2.10067795       31      -0.00405254       0.00009273      -0.00584655
O        0.94207830       1.47556804       5.99731016       32      -0.00143827       0.00378986      -0.00584655
O        3.63836184      -0.94573425       5.98977286       33       0.00346655       0.00552398       0.00284297
O        2.10443409      -0.00435166       3.59944582       34      -0.00405254       0.00501690       0.00300358
O        0.94207830      -2.29312603       7.41336215       35      -0.00143827      -0.00695819      -0.00035884
O       -0.70558082       2.12589706       3.51672993       36       0.00608083       0.00367541      -0.00035884
O       -0.94207831      -0.81755799       5.61740789       37       0.00143827      -0.00316833      -0.00620539
O       -0.45677497       5.44517757       1.80349156       38      -0.00346655      -0.00552398      -0.00284297
O        4.25873967       5.36475735       5.70012377       39       0.00405254       0.00510963      -0.00284297
