40
Lattice="8.612591495034756 6.750338869151688e-10 5.031864778257845e-15 -2.870863832314681 8.12002913274654 -1.1691971726589262e-09 -2.870863831360041 -4.060014565698235 7.0321515092076865" Properties=species:S:1:pos:R:3:spacegroup_kinds:I:1:forces:R:3 spacegroup="P 1" unit_cell=conventional occupancy="_JSON {\"0\": {\"In\": 1}, \"1\": {\"In\": 1}, \"2\": {\"In\": 1}, \"3\": {\"In\": 1}, \"4\": {\"In\": 1}, \"5\": {\"In\": 1}, \"6\": {\"In\": 1}, \"7\": {\"In\": 1}, \"8\": {\"In\": 1}, \"9\": {\"In\": 1}, \"10\": {\"In\": 1}, \"11\": {\"In\": 1}, \"12\": {\"In\": 1}, \"13\": {\"In\": 1}, \"14\": {\"In\": 1}, \"15\": {\"In\": 1}, \"16\": {\"O\": 1}, \"17\": {\"O\": 1}, \"18\": {\"O\": 1}, \"19\": {\"O\": 1}, \"20\": {\"O\": 1}, \"21\": {\"O\": 1}, \"22\": {\"O\": 1}, \"23\": {\"O\": 1}, \"24\": {\"O\": 1}, \"25\": {\"O\": 1}, \"26\": {\"O\": 1}, \"27\": {\"O\": 1}, \"28\": {\"O\": 1}, \"29\": {\"O\": 1}, \"30\": {\"O\": 1}, \"31\": {\"O\": 1}, \"32\": {\"O\": 1}, \"33\": {\"O\": 1}, \"34\": {\"O\": 1}, \"35\": {\"O\": 1}, \"36\": {\"O\": 1}, \"37\": {\"O\": 1}, \"38\": {\"O\": 1}, \"39\": {\"O\": 1}}" n_minim_iter=4 energy=-45150.98473451336 stress="-0.046532061246727235 1.5889486260548303e-14 -3.088698455828525e-13 1.5889486260548303e-14 -0.046532061246378986 -4.2109840286347454e-13 -3.088698455828525e-13 -4.2109840286347454e-13 -0.04653206124677808" free_energy=-45150.98473451336 pbc="T T T"
In      -4.10824175       2.90496560       5.51667925        0       0.00370819      -0.00262209       0.00454159
In       6.97910558       1.15504897       1.51547225        1      -0.00370819       0.00262209      -0.00454159
In       1.23737791      -0.87495831       5.03154801        2      -0.00370819       0.00262209      -0.00454159
In      -1.43543192      -2.03000728       3.51607575        3       0.00000000       0.00000000      -0.00000000
In      -1.23737792       3.91996924       3.27351013        4       0.00370819      -0.00262209      -0.00454159
In       4.50434975      -2.76492027       5.27411363        5       0.00370819       0.00524417      -0.00000000
In      -1.23737792       1.29509430       5.27411363        6       0.00370819       0.00524417       0.00000000
In      -1.63348592       6.82493484       1.75803787        7      -0.00370819      -0.00524417       0.00000000
In       4.10824175       0.14004533       3.75864137        8      -0.00370819       0.00262209       0.00454159
In      -1.43543192       4.06001457      -0.00000000        9      -0.00000000       0.00000000      -0.00000000
In       4.10824175       6.23006718       0.24256562       10      -0.00370819       0.00262209       0.00454159
In      -1.23737792      -2.17005261       6.78958589       11       0.00370819      -0.00262209      -0.00454159
In       4.10824175       2.76492027       1.75803787       12      -0.00370819      -0.00524417      -0.00000000
In       1.63348591       4.93497288       2.00060350       13       0.00370819      -0.00262209       0.00454159
In       4.30629575       0.00000000      -0.00000000       14      -0.00000000       0.00000000       0.00000000
In       1.43543191       2.03000729       3.51607575       15      -0.00000000      -0.00000000      -0.00000000
O        0.83091751       4.05731889       3.85068566       16       0.00525895       0.00202190      -0.00210709
O       -2.03994632       3.33613945       5.10914320       17       0.00525895      -0.00283574      -0.00069747
O       -0.40804502       2.18221097       0.07565444       18       0.00098568       0.00018591      -0.00593113
O       -0.83091752      -0.72657080       1.92767736       19      -0.00525895      -0.00081384      -0.00280456
O        3.82532453       4.83026449       1.85202291       20      -0.00442655      -0.00261049       0.00312657
O        1.91640313       2.84124064       1.59306745       21       0.00442655      -0.00401293      -0.00069747
O        1.91640313       6.04903842       0.25895546       22       0.00442655       0.00140244       0.00382404
O       -2.19342324       5.74732673       3.59173019       23       0.00015328      -0.00099128      -0.00593113
O        3.27890885       1.87780360       6.95649706       24      -0.00098568      -0.00018591       0.00593113
O        5.06428707      -1.68731216       3.44042131       25      -0.00015328       0.00099128       0.00593113
O        6.14977268       3.18663144       1.66405284       26      -0.00098568      -0.00504355      -0.00312657
O        3.54830442       2.26687352       3.77503121       27       0.00015328      -0.00464087       0.00382404
O        0.67744059       4.16584346       6.69754160       28       0.00015328       0.00563215       0.00210709
O        2.19342324      -0.10582889       0.33460990       29      -0.00015328      -0.00563215      -0.00210709
O       -3.27890885       0.87338313       5.36809867       30       0.00098568       0.00504355       0.00312657
O        4.91081015       0.72387513       1.92300830       31      -0.00525895       0.00283574       0.00069747
O        0.95446070       1.21877394       5.43908405       32      -0.00442655       0.00401293       0.00069747
O        3.27890885      -1.00442047       5.44375311       33      -0.00098568       0.00522946      -0.00280456
O        2.03994631       0.00269568       3.18146585       34      -0.00525895      -0.00202190       0.00210709
O        0.95446070      -1.98902385       6.77319605       35      -0.00442655      -0.00140244      -0.00382404
O       -0.67744059       1.79314105       3.25712029       36      -0.00015328       0.00464087      -0.00382404
O       -0.95446071      -0.77024992       5.18012859       37       0.00442655       0.00261049      -0.00312657
O       -0.40804502       5.06443504       1.58839839       38       0.00098568      -0.00522946       0.00280456
O        3.70178135       4.78658537       5.10447415       39       0.00525895       0.00081384       0.00280456
