40
Lattice="9.277632943988218 7.271572222451283e-10 1.2956079131289409e-14 -3.0925443153483108 8.747036223829324 -1.2594893145383508e-09 -3.0925443143199653 -4.3735181111874954 7.575155578498555" Properties=species:S:1:pos:R:3:spacegroup_kinds:I:1:forces:R:3 spacegroup="P 1" unit_cell=conventional occupancy="_JSON {\"0\": {\"In\": 1}, \"1\": {\"In\": 1}, \"2\": {\"In\": 1}, \"3\": {\"In\": 1}, \"4\": {\"In\": 1}, \"5\": {\"In\": 1}, \"6\": {\"In\": 1}, \"7\": {\"In\": 1}, \"8\": {\"In\": 1}, \"9\": {\"In\": 1}, \"10\": {\"In\": 1}, \"11\": {\"In\": 1}, \"12\": {\"In\": 1}, \"13\": {\"In\": 1}, \"14\": {\"In\": 1}, \"15\": {\"In\": 1}, \"16\": {\"O\": 1}, \"17\": {\"O\": 1}, \"18\": {\"O\": 1}, \"19\": {\"O\": 1}, \"20\": {\"O\": 1}, \"21\": {\"O\": 1}, \"22\": {\"O\": 1}, \"23\": {\"O\": 1}, \"24\": {\"O\": 1}, \"25\": {\"O\": 1}, \"26\": {\"O\": 1}, \"27\": {\"O\": 1}, \"28\": {\"O\": 1}, \"29\": {\"O\": 1}, \"30\": {\"O\": 1}, \"31\": {\"O\": 1}, \"32\": {\"O\": 1}, \"33\": {\"O\": 1}, \"34\": {\"O\": 1}, \"35\": {\"O\": 1}, \"36\": {\"O\": 1}, \"37\": {\"O\": 1}, \"38\": {\"O\": 1}, \"39\": {\"O\": 1}}" n_minim_iter=6 energy=-45150.52086385095 stress="0.048245173619356464 -8.551802017162729e-14 -3.601115517793094e-13 -8.551802017162729e-14 0.04824517361825171 -2.3895677497074917e-13 -3.601115517793094e-13 -2.3895677497074917e-13 0.04824517361956075" free_energy=-45150.52086385095 pbc="T T T"
In      -4.39954799       3.11095022       5.97440953        0      -0.00397177       0.00280846      -0.00486440
In       7.49209230       1.26256790       1.60074604        1       0.00397177      -0.00280846       0.00486440
In       1.30700367      -0.92419116       5.38832383        2       0.00397177      -0.00280846       0.00486440
In      -1.54627216      -2.18675905       3.78757779        3      -0.00000000      -0.00000000      -0.00000000
In      -1.30700367       4.20432974       3.49453493        4      -0.00397177       0.00280846       0.00486440
In       4.87808496      -2.94176184       5.68136668        5      -0.00397177      -0.00561693       0.00000000
In      -1.30700367       1.43175627       5.68136668        6      -0.00397177      -0.00561693       0.00000000
In      -1.78554065       7.31527996       1.89378889        7       0.00397177       0.00561693       0.00000000
In       4.39954798       0.16918837       4.08062064        8       0.00397177      -0.00280846      -0.00486440
In      -1.54627216       4.37351811      -0.00000000        9      -0.00000000       0.00000000       0.00000000
In       4.39954798       6.72946554       0.29304285       10       0.00397177      -0.00280846      -0.00486440
In      -1.30700367      -2.35594742       7.28211272       11      -0.00397177       0.00280846       0.00486440
In       4.39954798       2.94176185       1.89378889       12       0.00397177       0.00561693       0.00000000
In       1.78554064       5.29770927       2.18683174       13      -0.00397177       0.00280846      -0.00486440
In       4.63881647       0.00000000      -0.00000000       14       0.00000000       0.00000000      -0.00000000
In       1.54627216       2.18675906       3.78757779       15      -0.00000000      -0.00000000      -0.00000000
O        0.96146806       4.37759451       4.10325975       16       0.00474004      -0.00485356      -0.00397047
O       -2.13107626       3.55148899       5.51999544       17       0.00474004      -0.00101175       0.00618854
O       -0.45068388       2.36327214       0.00289181       18      -0.00394986       0.00513293      -0.00445436
O       -0.96146806      -0.81795273       2.04809961       19      -0.00474004      -0.00586531       0.00221807
O        4.05873468       5.19314043       2.04520780       20      -0.00253390       0.00329359       0.00667242
O        2.12635395       3.01212736       1.73241765       21       0.00253390      -0.00413170       0.00618854
O        2.12635395       6.55453119       0.31279015       22       0.00253390       0.00742528       0.00048388
O       -2.37834231       6.19742862       3.79046959       23      -0.00615599       0.00201298      -0.00445436
O        3.54322819       2.01024597       7.57226377       24       0.00394986      -0.00513293       0.00445436
O        5.47088662      -1.82391051       3.78468598       25       0.00615599      -0.00201298       0.00445436
O        6.63577251       3.37089951       1.74236998       26       0.00394986      -0.00129112      -0.00667242
O        3.80674632       2.37068771       4.10036794       27      -0.00615599      -0.00486408       0.00048388
O        0.71420201       4.55243801       7.25947361       28      -0.00615599       0.00285110       0.00397047
O        2.37834230      -0.17891989       0.31568196       29       0.00615599      -0.00285110      -0.00397047
O       -3.54322819       1.00261861       5.83278559       30      -0.00394986       0.00129112       0.00667242
O        5.22362057       0.82202913       2.05516013       31      -0.00474004       0.00101175      -0.00618854
O        0.96619036       1.36139076       5.84273792       32      -0.00253390       0.00413170      -0.00618854
O        3.54322819      -1.00762736       5.83567740       33       0.00394986       0.00642405       0.00221807
O        2.13107625      -0.00407639       3.47189582       34      -0.00474004       0.00485356       0.00397047
O        0.96619036      -2.18101307       7.26236542       35      -0.00253390      -0.00742528      -0.00048388
O       -0.71420201       2.00283040       3.47478763       36       0.00615599       0.00486408      -0.00048388
O       -0.96619037      -0.81962232       5.52994777       37       0.00253390      -0.00329359      -0.00667242
O       -0.45068388       5.38114548       1.73947817       38      -0.00394986      -0.00642405      -0.00221807
O        4.05401237       5.19147085       5.52705596       39       0.00474004       0.00586531      -0.00221807
