40
Lattice="8.532095276253022 6.68722849212657e-10 4.877766867152135e-15 -2.8440317593814872 8.044136569868046 -1.1582668665110904e-09 -2.8440317584357735 -4.022068284265298 6.9664266217893305" Properties=species:S:1:pos:R:3:spacegroup_kinds:I:1:forces:R:3 spacegroup="P 1" unit_cell=conventional occupancy="_JSON {\"0\": {\"In\": 1}, \"1\": {\"In\": 1}, \"2\": {\"In\": 1}, \"3\": {\"In\": 1}, \"4\": {\"In\": 1}, \"5\": {\"In\": 1}, \"6\": {\"In\": 1}, \"7\": {\"In\": 1}, \"8\": {\"In\": 1}, \"9\": {\"In\": 1}, \"10\": {\"In\": 1}, \"11\": {\"In\": 1}, \"12\": {\"In\": 1}, \"13\": {\"In\": 1}, \"14\": {\"In\": 1}, \"15\": {\"In\": 1}, \"16\": {\"O\": 1}, \"17\": {\"O\": 1}, \"18\": {\"O\": 1}, \"19\": {\"O\": 1}, \"20\": {\"O\": 1}, \"21\": {\"O\": 1}, \"22\": {\"O\": 1}, \"23\": {\"O\": 1}, \"24\": {\"O\": 1}, \"25\": {\"O\": 1}, \"26\": {\"O\": 1}, \"27\": {\"O\": 1}, \"28\": {\"O\": 1}, \"29\": {\"O\": 1}, \"30\": {\"O\": 1}, \"31\": {\"O\": 1}, \"32\": {\"O\": 1}, \"33\": {\"O\": 1}, \"34\": {\"O\": 1}, \"35\": {\"O\": 1}, \"36\": {\"O\": 1}, \"37\": {\"O\": 1}, \"38\": {\"O\": 1}, \"39\": {\"O\": 1}}" n_minim_iter=8 energy=-45150.22064516003 stress="-0.06588026433413496 3.441125045062285e-13 -2.089798230170213e-13 3.441125045062285e-13 -0.06588026433348138 2.719305057741394e-13 -2.089798230170213e-13 2.719305057741394e-13 -0.06588026433449788" free_energy=-45150.22064516003 pbc="T T T"
In      -4.05805251       2.86947645       5.47956094        0       0.00101615      -0.00071853       0.00124453
In       6.90208426       1.15259184       1.48686568        1      -0.00101615       0.00071853      -0.00124453
In       1.21402074      -0.85844230       4.97007899        2      -0.00101615       0.00071853      -0.00124453
In      -1.42201588      -2.01103414       3.48321331        3      -0.00000000       0.00000000       0.00000000
In      -1.21402075       3.87499352       3.22847233        4       0.00101615      -0.00071853      -0.00124453
In       4.47404277      -2.72240167       5.22481996        5       0.00101615       0.00143706      -0.00000000
In      -1.21402075       1.29966661       5.22481996        6       0.00101615       0.00143706      -0.00000000
In      -1.63001102       6.74446996       1.74160665        7      -0.00101615      -0.00143706       0.00000000
In       4.05805250       0.14707477       3.73795428        8      -0.00101615       0.00071853       0.00124453
In      -1.42201588       4.02206829      -0.00000000        9      -0.00000000       0.00000000       0.00000000
In       4.05805250       6.18017720       0.25474097       10      -0.00101615       0.00071853       0.00124453
In      -1.21402075      -2.15810891       6.71168565       11       0.00101615      -0.00071853      -0.00124453
In       4.05805250       2.72240168       1.74160665       12      -0.00101615      -0.00143706      -0.00000000
In       1.63001101       4.88051059       1.99634763       13       0.00101615      -0.00071853       0.00124453
In       4.26604764       0.00000000      -0.00000000       14       0.00000000      -0.00000000      -0.00000000
In       1.42201588       2.01103414       3.48321331       15      -0.00000000       0.00000000      -0.00000000
O        0.83048567       4.02078643       3.82655062       16       0.00004415      -0.00902524      -0.00177576
O       -2.01354609       3.31453098       5.05426143       17       0.00004415       0.00297477       0.00870397
O       -0.39145257       2.16753765       0.07448554       18      -0.00568972       0.00702923       0.00168143
O       -0.83048567      -0.70881917       1.91438543       19      -0.00004415      -0.00605047       0.00692821
O        3.79615180       4.77389170       1.83989989       20       0.00278992       0.00702125       0.00524677
O        1.89191171       2.80457995       1.57104812       21      -0.00278992      -0.00103321       0.00870397
O        1.89191171       5.99138004       0.26885177       22      -0.00278992       0.00805446      -0.00345719
O       -2.17405828       5.67965490       3.55769885       23      -0.00852379       0.00302125       0.00168143
O        3.23548432       1.85453064       6.89194108       24       0.00568972      -0.00702923      -0.00168143
O        5.01809004      -1.65758661       3.40872777       25       0.00852379      -0.00302125      -0.00168143
O        6.07951608       3.15930934       1.64331341       26       0.00568972       0.00497078      -0.00524677
O        3.51400524       2.25226428       3.75206508       27      -0.00852379      -0.00005446      -0.00345719
O        0.66997348       4.13428568       6.62308931       28      -0.00852379      -0.00296679       0.00177576
O        2.17405828      -0.11221739       0.34333731       29       0.00852379       0.00296679      -0.00177576
O       -3.23548433       0.86275895       5.32311320       30      -0.00568972      -0.00497078       0.00524677
O        4.85757785       0.70753731       1.91216518       31      -0.00004415      -0.00297477      -0.00870397
O        0.95212004       1.21748834       5.39537849       32       0.00278992       0.00103321      -0.00870397
O        3.23548432      -0.99177169       5.39759874       33       0.00568972       0.00205845       0.00692821
O        2.01354609       0.00128186       3.13987600       34      -0.00004415       0.00902524       0.00177576
O        0.95212004      -1.96931175       6.69757485       35       0.00278992      -0.00805446       0.00345719
O       -0.66997348       1.76980401       3.21436154       36       0.00852379       0.00005446       0.00345719
O       -0.95212005      -0.75182341       5.12652672       37      -0.00278992      -0.00702125      -0.00524677
O       -0.39145257       5.01383998       1.56882787       38      -0.00568972      -0.00205845      -0.00692821
O        3.67451742       4.73088746       5.05204118       39       0.00004415       0.00605047      -0.00692821
