40
Lattice="8.193829315442997 6.422088583042691e-10 1.3603468142046561e-14 -2.7312764390864834 7.725216363565763 -1.1123452334492776e-09 -2.7312764381782757 -3.8626081811406707 6.690233621320744" Properties=species:S:1:pos:R:3:spacegroup_kinds:I:1:forces:R:3 spacegroup="P 1" unit_cell=conventional occupancy="_JSON {\"0\": {\"In\": 1}, \"1\": {\"In\": 1}, \"2\": {\"In\": 1}, \"3\": {\"In\": 1}, \"4\": {\"In\": 1}, \"5\": {\"In\": 1}, \"6\": {\"In\": 1}, \"7\": {\"In\": 1}, \"8\": {\"In\": 1}, \"9\": {\"In\": 1}, \"10\": {\"In\": 1}, \"11\": {\"In\": 1}, \"12\": {\"In\": 1}, \"13\": {\"In\": 1}, \"14\": {\"In\": 1}, \"15\": {\"In\": 1}, \"16\": {\"O\": 1}, \"17\": {\"O\": 1}, \"18\": {\"O\": 1}, \"19\": {\"O\": 1}, \"20\": {\"O\": 1}, \"21\": {\"O\": 1}, \"22\": {\"O\": 1}, \"23\": {\"O\": 1}, \"24\": {\"O\": 1}, \"25\": {\"O\": 1}, \"26\": {\"O\": 1}, \"27\": {\"O\": 1}, \"28\": {\"O\": 1}, \"29\": {\"O\": 1}, \"30\": {\"O\": 1}, \"31\": {\"O\": 1}, \"32\": {\"O\": 1}, \"33\": {\"O\": 1}, \"34\": {\"O\": 1}, \"35\": {\"O\": 1}, \"36\": {\"O\": 1}, \"37\": {\"O\": 1}, \"38\": {\"O\": 1}, \"39\": {\"O\": 1}}" n_minim_iter=6 energy=-45145.29602375294 stress="-0.1404186897413931 -3.892675380126982e-13 -4.682962682283825e-13 -3.892675380126982e-13 -0.14041868974036362 -2.7529375107928108e-14 -4.682962682283825e-13 -2.7529375107928108e-14 -0.1404186897408858" free_energy=-45145.29602375294 pbc="T T T"
In      -3.80963349       2.69381767       5.36952136        0       0.00037492      -0.00026511       0.00045918
In       6.54090992       1.16879051       1.32071226        1      -0.00037492       0.00026511      -0.00045918
In       1.07835705      -0.76251358       4.66582907        2      -0.00037492       0.00026511      -0.00045918
In      -1.36563822      -1.93130409       3.34511681        3      -0.00000000      -0.00000000      -0.00000000
In      -1.07835705       3.65946972       2.99327067        4       0.00037492      -0.00026511      -0.00045918
In       4.38419583      -2.49067920       5.01767521        5       0.00037492       0.00053021       0.00000000
In      -1.07835705       1.37192898       5.01767521        6       0.00037492       0.00053021      -0.00000000
In      -1.65291939       6.35328739       1.67255840        7      -0.00037492      -0.00053021       0.00000000
In       3.80963348       0.20313847       3.69696295        8      -0.00037492       0.00026511       0.00045918
In      -1.36563822       3.86260818      -0.00000000        9       0.00000000      -0.00000000      -0.00000000
In       3.80963348       5.99705074       0.35184614       10      -0.00037492       0.00026511       0.00045918
In      -1.07835705      -2.13444255       6.33838748       11       0.00037492      -0.00026511      -0.00045918
In       3.80963348       2.49067921       1.67255840       12      -0.00037492      -0.00053021       0.00000000
In       1.65291939       4.62512176       2.02440454       13       0.00037492      -0.00026511       0.00045918
In       4.09691466       0.00000000      -0.00000000       14      -0.00000000      -0.00000000      -0.00000000
In       1.36563822       1.93130409       3.34511681       15       0.00000000      -0.00000000       0.00000000
O        0.82120753       3.85603655       3.78962634       16       0.00270653       0.00001867      -0.00017402
O       -1.91006891       3.28519850       4.80111165       17       0.00270653      -0.00016004       0.00007084
O       -0.27684702       2.13033623       0.11115816       18       0.00076889       0.00121008      -0.00230228
O       -0.82120753      -0.58398131       1.90050437       19      -0.00270653      -0.00014137      -0.00010318
O        3.73400448       4.51076669       1.78934621       20      -0.00105307      -0.00118784       0.00219910
O        1.72854839       2.63706816       1.45599484       21       0.00105307      -0.00249839       0.00007084
O        1.72854839       5.73630671       0.33335137       22       0.00105307       0.00131055       0.00212825
O       -2.10078260       5.34481407       3.45627497       23      -0.00088458      -0.00112827      -0.00230228
O        3.00812346       1.73227196       6.57907546       24      -0.00076889      -0.00121008       0.00230228
O        4.83205903      -1.48220589       3.23395865       25       0.00088458       0.00112827       0.00230228
O        5.73939990       3.09273800       1.55577060       26      -0.00076889      -0.00138879      -0.00219910
O        3.36177028       2.25211898       3.67846818       27      -0.00088458      -0.00142969       0.00212825
O        0.63049384       3.99089149       6.24572409       28      -0.00088458       0.00255797       0.00017402
O        2.10078260      -0.12828331       0.44450953       29       0.00088458      -0.00255797      -0.00017402
O       -3.00812346       0.76987019       5.13446302       30       0.00076889       0.00138879       0.00219910
O        4.64134535       0.57740969       1.88912197       31      -0.00270653       0.00016004      -0.00007084
O        1.00272804       1.22554002       5.23423878       32      -0.00105307       0.00249839      -0.00007084
O        3.00812346      -0.96240177       5.24562118       33      -0.00076889       0.00259887      -0.00010318
O        1.91006891       0.00657163       2.90060728       34      -0.00270653      -0.00001867       0.00017402
O        1.00272804      -1.87369853       6.35688225       35      -0.00105307      -0.00131055      -0.00212825
O       -0.63049384       1.61048920       3.01176544       36       0.00088458       0.00142969      -0.00212825
O       -1.00272805      -0.64815851       4.90088741       37       0.00105307       0.00118784      -0.00219910
O       -0.27684702       4.82500995       1.44461244       38       0.00076889      -0.00259887       0.00010318
O        3.55248397       4.44658950       4.78972925       39       0.00270653       0.00014137       0.00010318
