40
Lattice="8.281004255298077 6.490419505025062e-10 1.1971833376468022e-14 -2.7603347523779496 7.807405685058225 -1.1241790692761604e-09 -2.7603347514600736 -3.903702841880069 6.761411661660918" Properties=species:S:1:pos:R:3:spacegroup_kinds:I:1:forces:R:3 spacegroup="P 1" unit_cell=conventional occupancy="_JSON {\"0\": {\"In\": 1}, \"1\": {\"In\": 1}, \"2\": {\"In\": 1}, \"3\": {\"In\": 1}, \"4\": {\"In\": 1}, \"5\": {\"In\": 1}, \"6\": {\"In\": 1}, \"7\": {\"In\": 1}, \"8\": {\"In\": 1}, \"9\": {\"In\": 1}, \"10\": {\"In\": 1}, \"11\": {\"In\": 1}, \"12\": {\"In\": 1}, \"13\": {\"In\": 1}, \"14\": {\"In\": 1}, \"15\": {\"In\": 1}, \"16\": {\"O\": 1}, \"17\": {\"O\": 1}, \"18\": {\"O\": 1}, \"19\": {\"O\": 1}, \"20\": {\"O\": 1}, \"21\": {\"O\": 1}, \"22\": {\"O\": 1}, \"23\": {\"O\": 1}, \"24\": {\"O\": 1}, \"25\": {\"O\": 1}, \"26\": {\"O\": 1}, \"27\": {\"O\": 1}, \"28\": {\"O\": 1}, \"29\": {\"O\": 1}, \"30\": {\"O\": 1}, \"31\": {\"O\": 1}, \"32\": {\"O\": 1}, \"33\": {\"O\": 1}, \"34\": {\"O\": 1}, \"35\": {\"O\": 1}, \"36\": {\"O\": 1}, \"37\": {\"O\": 1}, \"38\": {\"O\": 1}, \"39\": {\"O\": 1}}" n_minim_iter=4 energy=-45146.908252277106 stress="-0.09960660929929904 -3.1603940699815255e-13 8.932268757503123e-13 -3.1603940699815255e-13 -0.0996066092990523 -7.713311826381214e-15 8.932268757503123e-13 -7.713311826381214e-15 -0.09960660929974557" free_energy=-45146.908252277106 pbc="T T T"
In      -3.86711564       2.73446370       5.40588744        0       0.00044075      -0.00031166       0.00053981
In       6.62745039       1.16923915       1.35552422        1      -0.00044075       0.00031166      -0.00053981
In       1.10678089      -0.78261227       4.73623005        2      -0.00044075       0.00031166      -0.00053981
In      -1.38016738      -1.95185142       3.38070583        3       0.00000000      -0.00000000       0.00000000
In      -1.10678089       3.71038941       3.04587713        4       0.00044075      -0.00031166      -0.00053981
In       4.41388861      -2.54115025       5.07105874        5       0.00044075       0.00062332       0.00000000
In      -1.10678089       1.36255259       5.07105874        6       0.00044075       0.00062332      -0.00000000
In      -1.65355386       6.44485310       1.69035291        7      -0.00044075      -0.00062332       0.00000000
In       3.86711564       0.19331344       3.71553452        8      -0.00044075       0.00031166       0.00053981
In      -1.38016738       3.90370284      -0.00000000        9       0.00000000      -0.00000000       0.00000000
In       3.86711564       6.04886770       0.33482869       10      -0.00044075       0.00031166       0.00053981
In      -1.10678089      -2.14516486       6.42658296       11       0.00044075      -0.00031166      -0.00053981
In       3.86711564       2.54115026       1.69035291       12      -0.00044075      -0.00062332      -0.00000000
In       1.65355386       4.68631512       2.02518161       13       0.00044075      -0.00031166       0.00053981
In       4.14050213       0.00000000      -0.00000000       14      -0.00000000       0.00000000      -0.00000000
In       1.38016737       1.95185142       3.38070583       15      -0.00000000       0.00000000       0.00000000
O        0.83018405       3.89962819       3.79598428       16       0.00923081      -0.00094966       0.00309036
O       -1.93015070       3.28945615       4.86694827       17       0.00923081       0.00315116      -0.00072275
O       -0.30623094       2.14117147       0.09442400       18       0.00515253       0.00603494      -0.00571760
O       -0.83018405      -0.61832135       1.90152089       19      -0.00923081       0.00220150       0.00236761
O        3.74471256       4.57653992       1.80709688       20      -0.00010599      -0.00550256       0.00808521
O        1.77595694       2.67512957       1.48624244       21       0.00010599      -0.00975328      -0.00072275
O        1.77595694       5.80511319       0.32085444       22       0.00010599       0.00425072       0.00880796
O       -2.12079281       5.43054774       3.47512983       23      -0.00397229      -0.00686950      -0.00571760
O        3.06656569       1.76253137       6.66698765       24      -0.00515253      -0.00603494       0.00571760
O        4.88112755      -1.52684490       3.28628182       25       0.00397229       0.00686950       0.00571760
O        5.82690044       3.10421075       1.57360894       26      -0.00515253      -0.00193411      -0.00808521
O        3.39987670       2.24612827       3.70156027       27      -0.00397229      -0.00151684       0.00880796
O        0.63954195       4.03443252       6.34613321       28      -0.00397229       0.00838633      -0.00309036
O        2.12079280      -0.13072967       0.41527845       29       0.00397229      -0.00838633       0.00309036
O       -3.06656570       0.79949210       5.18780271       30       0.00515253       0.00193411       0.00808521
O        4.69048545       0.61424670       1.89446339       31      -0.00923081      -0.00315116       0.00072275
O        0.98437781       1.22857327       5.27516922       32      -0.00010599       0.00975328       0.00072275
O        3.06656569      -0.96303927       5.28222672       33      -0.00515253       0.00796906       0.00236761
O        1.93015070       0.00407465       2.96542738       34      -0.00923081       0.00094966      -0.00309036
O        0.98437781      -1.90141035       6.44055722       35      -0.00010599      -0.00425072      -0.00880796
O       -0.63954195       1.65757457       3.05985139       36       0.00397229       0.00151684      -0.00880796
O       -0.98437781      -0.67283707       4.95431477       37       0.00010599       0.00550256      -0.00808521
O       -0.30623094       4.86674212       1.47918494       38       0.00515253      -0.00796906      -0.00236761
O        3.59051880       4.52202420       4.85989077       39       0.00923081      -0.00220150      -0.00236761
