10
Lattice="5.878960802272411 0.005481151543009877 0.0037846581194595 3.2304964929736 4.911832913135675 0.0037846581194590475 3.2304964929736 1.743832297131952 4.5918586443486715" Properties=species:S:1:pos:R:3:spacegroup_kinds:I:1:forces:R:3 spacegroup="P 1" unit_cell=conventional occupancy="_JSON {\"0\": {\"In\": 1}, \"1\": {\"In\": 1}, \"2\": {\"In\": 1}, \"3\": {\"In\": 1}, \"4\": {\"O\": 1}, \"5\": {\"O\": 1}, \"6\": {\"O\": 1}, \"7\": {\"O\": 1}, \"8\": {\"O\": 1}, \"9\": {\"O\": 1}}" n_minim_iter=4 energy=-11287.684535260581 stress="-2.8500930259096976e-05 6.520713914214013e-06 4.502461056294256e-06 6.520713914214013e-06 -3.706082648048977e-05 2.430443055804815e-06 4.502461056294256e-06 2.430443055804815e-06 -3.890254263951687e-05" free_energy=-11287.684535260581 pbc="T T T"
In      10.57754400       5.70979195       3.94253111        0       0.00292472       0.00157877       0.00109012
In       7.93238669       4.28192760       2.95661084        1      -0.00292472      -0.00157877      -0.00109012
In       4.40756711       2.37921877       1.64281713        2       0.00292472       0.00157877       0.00109012
In       1.76240979       0.95135442       0.65689686        3      -0.00292472      -0.00157877      -0.00109012
O        6.02446885       2.31311441       0.21749824        4      -0.00000000       0.00050189      -0.00072687
O        7.10042095       5.12300433       1.15364165        5      -0.00041959       0.00077729      -0.00000000
O        8.17901325       2.18596986       2.51342756        6       0.00041959      -0.00027540      -0.00072687
O        4.16094055       4.47517652       2.08600040        7      -0.00041959       0.00027540       0.00072687
O        6.31548494       4.34803196       4.38192972        8       0.00000000      -0.00050189       0.00072687
O        5.23953285       1.53814204       3.44578631        9       0.00041959      -0.00077729      -0.00000000
