10
Lattice="5.640734257165124 -0.0313029825676118 -0.02161426959429962 3.0690246639110637 4.732858591694813 -0.02161426959430911 3.069024663911063 1.6566692894615698 4.433493486065409" Properties=species:S:1:pos:R:3:spacegroup_kinds:I:1:forces:R:3 spacegroup="P 1" unit_cell=conventional occupancy="_JSON {\"0\": {\"In\": 1}, \"1\": {\"In\": 1}, \"2\": {\"In\": 1}, \"3\": {\"In\": 1}, \"4\": {\"O\": 1}, \"5\": {\"O\": 1}, \"6\": {\"O\": 1}, \"7\": {\"O\": 1}, \"8\": {\"O\": 1}, \"9\": {\"O\": 1}}" n_minim_iter=1 energy=-11286.912892629369 stress="-0.1279535507281091 0.002193866646054685 0.0015148340925261459 0.002193866646054685 -0.13083349182114007 0.000817712267791241 0.0015148340925261459 0.000817712267791241 -0.13145312919563093" free_energy=-11286.912892629369 pbc="T T T"
In      10.12156288       5.46365189       3.77257485        0       0.08815212       0.04758479       0.03285663
In       7.54661250       4.07368547       2.81282257        1      -0.08815212      -0.04758479      -0.03285663
In       4.23217109       2.28453944       1.57744238        2       0.08815212       0.04758479       0.03285663
In       1.65722071       0.89457302       0.61769010        3      -0.08815212      -0.04758479      -0.03285663
O        5.76506303       2.21581303       0.15711196        4       0.00000000       0.05641423      -0.08170222
O        6.76293683       4.93447142       1.07595197        5      -0.04716258       0.08736995       0.00000000
O        7.83621389       2.05001028       2.37385871        6       0.04716258      -0.03095572      -0.08170222
O        3.94256970       4.30821463       2.01640624        7      -0.04716258       0.03095572       0.08170222
O        6.01372056       4.14241188       4.23315299        8      -0.00000000      -0.05641423       0.08170222
O        5.01584676       1.42375349       3.31431298        9       0.04716258      -0.08736995      -0.00000000
10
Lattice="5.6270041654771905 -0.04562530585296819 -0.031503632565951255 3.0495171289850678 4.729239138260881 -0.0315036325659608 3.0495171289850673 1.646139059970416 4.433612691808237" Properties=species:S:1:pos:R:3:spacegroup_kinds:I:1:forces:R:3 spacegroup="P 1" unit_cell=conventional occupancy="_JSON {\"0\": {\"In\": 1}, \"1\": {\"In\": 1}, \"2\": {\"In\": 1}, \"3\": {\"In\": 1}, \"4\": {\"O\": 1}, \"5\": {\"O\": 1}, \"6\": {\"O\": 1}, \"7\": {\"O\": 1}, \"8\": {\"O\": 1}, \"9\": {\"O\": 1}}" n_minim_iter=2 energy=-11286.914970240177 stress="-0.12926495766029786 -0.0007363791251300028 -0.0005084594380891807 -0.0007363791251300028 -0.1282982952136915 -0.0002744680236219379 -0.0005084594380891807 -0.0002744680236219379 -0.12809031172938024" free_energy=-11286.914970240177 pbc="T T T"
In      10.07709137       5.43964603       3.75599914        0       0.14360342       0.07751758       0.05352480
In       7.51196627       4.05498332       2.79990900        1      -0.14360342      -0.07751758      -0.05352480
In       4.21407216       2.27476958       1.57069643        2       0.14360342       0.07751758       0.05352480
In       1.64894706       0.89010688       0.61460629        3      -0.14360342      -0.07751758      -0.05352480
O        5.74501169       2.20352529       0.14436831        4       0.00000000       0.03581592      -0.05187059
O        6.73146689       4.92146669       1.06114773        5      -0.02994228       0.05546889       0.00000000
O        7.80807362       2.02937327       2.36117466        6       0.02994228      -0.01965298      -0.05187059
O        3.91796481       4.30037963       2.00943077        7      -0.02994228       0.01965298       0.05187059
O        5.98102674       4.12622762       4.22623712        8       0.00000000      -0.03581592       0.05187059
O        4.99457154       1.40828621       3.30945770        9       0.02994228      -0.05546889      -0.00000000
10
Lattice="5.618674859473515 -0.05434310165034298 -0.03752314806181538 3.037658536070416 4.727059441916851 -0.037523148061824954 3.0376585360704147 1.6397377537414555 4.433707145607461" Properties=species:S:1:pos:R:3:spacegroup_kinds:I:1:forces:R:3 spacegroup="P 1" unit_cell=conventional occupancy="_JSON {\"0\": {\"In\": 1}, \"1\": {\"In\": 1}, \"2\": {\"In\": 1}, \"3\": {\"In\": 1}, \"4\": {\"O\": 1}, \"5\": {\"O\": 1}, \"6\": {\"O\": 1}, \"7\": {\"O\": 1}, \"8\": {\"O\": 1}, \"9\": {\"O\": 1}}" n_minim_iter=3 energy=-11286.922552093743 stress="-0.12475580132781625 -0.0002646352704957748 -0.0001827269363908477 -0.0002646352704957748 -0.124408408293795 -9.86365817903764e-05 -0.0001827269363908477 -9.86365817903764e-05 -0.12433366450516481" free_energy=-11286.922552093743 pbc="T T T"
In      10.06237304       5.43170102       3.75051323        0       0.01631621       0.00880754       0.00608148
In       7.47861487       4.03698013       2.78747805        1      -0.01631621      -0.00880754      -0.00608148
In       4.21537708       2.27547398       1.57118280        2       0.01631621       0.00880754       0.00608148
In       1.63161890       0.88075308       0.60814763        3      -0.01631621      -0.00880754      -0.00608148
O        5.73283542       2.20001107       0.13088583        4       0.00000000       0.01763688      -0.02554271
O        6.70903969       4.91969918       1.05214207        5      -0.01474452       0.02731463      -0.00000000
O        7.79428968       2.01465247       2.34773940        6       0.01474452      -0.00967774      -0.02554271
O        3.89970226       4.29780164       2.01092145        7      -0.01474452       0.00967774       0.02554271
O        5.96115652       4.11244304       4.22777502        8      -0.00000000      -0.01763688       0.02554271
O        4.98495225       1.39275493       3.30651879        9       0.01474452      -0.02731463       0.00000000
10
Lattice="5.617687018345626 -0.055378494363169765 -0.03823807218071279 3.0362508925933835 4.726801744409511 -0.03823807218072241 3.0362508925933813 1.6389779033087315 4.433719467172299" Properties=species:S:1:pos:R:3:spacegroup_kinds:I:1:forces:R:3 spacegroup="P 1" unit_cell=conventional occupancy="_JSON {\"0\": {\"In\": 1}, \"1\": {\"In\": 1}, \"2\": {\"In\": 1}, \"3\": {\"In\": 1}, \"4\": {\"O\": 1}, \"5\": {\"O\": 1}, \"6\": {\"O\": 1}, \"7\": {\"O\": 1}, \"8\": {\"O\": 1}, \"9\": {\"O\": 1}}" n_minim_iter=4 energy=-11286.922888232291 stress="-0.12367405387721916 -5.289642398813468e-05 -3.652423760779734e-05 -5.289642398813468e-05 -0.12360461548057039 -1.971590048391273e-05 -3.652423760779734e-05 -1.971590048391273e-05 -0.12358967537193885" free_energy=-11286.922888232291 pbc="T T T"
In      10.06186628       5.43142747       3.75032435        0      -0.01029121      -0.00555523      -0.00383581
In       7.47341693       4.03417427       2.78554064        1       0.01029121       0.00555523       0.00383581
In       4.21677188       2.27622690       1.57170268        2      -0.01029121      -0.00555523      -0.00383581
In       1.62832253       0.87897369       0.60691898        3       0.01029121       0.00555523       0.00383581
O        5.73139071       2.20027609       0.12829711        4      -0.00000000       0.00990700      -0.01434787
O        6.70580774       4.92054647       1.05107276        5      -0.00828230       0.01534319      -0.00000000
O        7.79322458       2.01253049       2.34515684        6       0.00828230      -0.00543619      -0.01434787
O        3.89696423       4.29787067       2.01208648        7      -0.00828230       0.00543619       0.01434787
O        5.95879810       4.11012507       4.22894622        8      -0.00000000      -0.00990700       0.01434787
O        4.98438107       1.38985469       3.30617057        9       0.00828230      -0.01534319       0.00000000
10
Lattice="5.618629849215956 -0.054390271725561226 -0.037555718335921036 3.0375944035407576 4.72704769636787 -0.03755571833593066 3.037594403540754 1.6397031347976612 4.433707701850821" Properties=species:S:1:pos:R:3:spacegroup_kinds:I:1:forces:R:3 spacegroup="P 1" unit_cell=conventional occupancy="_JSON {\"0\": {\"In\": 1}, \"1\": {\"In\": 1}, \"2\": {\"In\": 1}, \"3\": {\"In\": 1}, \"4\": {\"O\": 1}, \"5\": {\"O\": 1}, \"6\": {\"O\": 1}, \"7\": {\"O\": 1}, \"8\": {\"O\": 1}, \"9\": {\"O\": 1}}" n_minim_iter=5 energy=-11286.922945895007 stress="-0.12339764108967573 5.152714230321902e-05 3.5578768790578206e-05 5.152714230321902e-05 -0.12346528200181997 1.9205531839571474e-05 3.5578768790578206e-05 1.9205531839571474e-05 -0.12347983536803367" free_energy=-11286.922945895007 pbc="T T T"
In      10.06512919       5.43318880       3.75154052        0      -0.00686862      -0.00370770      -0.00256012
In       7.47559880       4.03535205       2.78635388        1       0.00686862       0.00370770       0.00256012
In       4.21821986       2.27700852       1.57224239        2      -0.00686862      -0.00370770      -0.00256012
In       1.62868947       0.87917177       0.60705575        3       0.00686862       0.00370770       0.00256012
O        5.73276959       2.20180209       0.12819152        4      -0.00000000       0.00085982      -0.00124524
O        6.70740523       4.92249287       1.05209335        5      -0.00071882       0.00133163       0.00000000
O        7.79572836       2.01357964       2.34504537        6       0.00071882      -0.00047180      -0.00124524
O        3.89809031       4.29878093       2.01355090        7      -0.00071882       0.00047180       0.00124524
O        5.96104907       4.11055848       4.23040475        8       0.00000000      -0.00085982       0.00124524
O        4.98641343       1.38986770       3.30650292        9       0.00071882      -0.00133163       0.00000000
