10
Lattice="5.823198751095602 -0.0011190445674533068 -0.0007726845490449233 3.194380840470713 4.86883723213826 -0.0007726845490553954 3.1943808404707115 1.7243369528703265 4.553266812197926" Properties=species:S:1:pos:R:3:spacegroup_kinds:I:1:forces:R:3 spacegroup="P 1" unit_cell=conventional occupancy="_JSON {\"0\": {\"In\": 1}, \"1\": {\"In\": 1}, \"2\": {\"In\": 1}, \"3\": {\"In\": 1}, \"4\": {\"O\": 1}, \"5\": {\"O\": 1}, \"6\": {\"O\": 1}, \"7\": {\"O\": 1}, \"8\": {\"O\": 1}, \"9\": {\"O\": 1}}" n_minim_iter=5 energy=-11287.642308094904 stress="-0.02562997462707434 0.0003330363202415326 0.00022995689828232422 0.0003330363202415326 -0.02606715934999083 0.0001241314663303927 0.00022995689828232422 0.0001241314663303927 -0.02616122238316142" free_energy=-11287.642308094904 pbc="T T T"
In      10.47360467       5.65368517       3.90379016        0       0.00341119       0.00184137       0.00127144
In       7.84433599       4.23439756       2.92379201        1      -0.00341119      -0.00184137      -0.00127144
In       4.36762445       2.35765759       1.62792944        2       0.00341119       0.00184137       0.00127144
In       1.73835577       0.93836999       0.64793129        3      -0.00341119      -0.00184137      -0.00127144
O        5.96458949       2.29229753       0.20364628        4      -0.00000000      -0.00238244       0.00345039
O        7.02268772       5.08055574       1.13715768        5       0.00199174      -0.00368974      -0.00000000
O        8.10087209       2.15578316       2.48027969        6      -0.00199174       0.00130730       0.00345039
O        4.11108835       4.43627199       2.07144176        7       0.00199174      -0.00130730      -0.00345039
O        6.24737095       4.29975762       4.34807517        8       0.00000000       0.00238244      -0.00345039
O        5.18927272       1.51149941       3.41456377        9      -0.00199174       0.00368974      -0.00000000
