10
Lattice="6.236636180607508 0.08457815393440168 0.05840002680184968 3.4928862751234737 5.167449059491513 0.058400026801841705 3.4928862751234697 1.8854711373367372 4.8115422616703984" Properties=species:S:1:pos:R:3:spacegroup_kinds:I:1:forces:R:3 spacegroup="P 1" unit_cell=conventional occupancy="_JSON {\"0\": {\"In\": 1}, \"1\": {\"In\": 1}, \"2\": {\"In\": 1}, \"3\": {\"In\": 1}, \"4\": {\"O\": 1}, \"5\": {\"O\": 1}, \"6\": {\"O\": 1}, \"7\": {\"O\": 1}, \"8\": {\"O\": 1}, \"9\": {\"O\": 1}}" n_minim_iter=5 energy=-11286.627630999483 stress="0.09179556741452441 0.00013791992645802333 9.523177156760783e-05 0.00013791992645802333 0.0916145166338425 5.14064132483544e-05 9.523177156760783e-05 5.14064132483544e-05 0.09157556242377503" free_energy=-11286.627630999483 pbc="T T T"
In      11.25980069       6.07807628       4.19682626        0      -0.00105581      -0.00056993      -0.00039353
In       8.57381242       4.62817126       3.19568722        1       0.00105581       0.00056993       0.00039353
In       4.64859632       2.50932710       1.73265510        2      -0.00105581      -0.00056993      -0.00039353
In       1.96260805       1.05942208       0.73151606        3       0.00105581       0.00056993       0.00039353
O        6.42392028       2.48627154       0.30600494        4       0.00000000      -0.00553574       0.00801716
O        7.61892795       5.43193731       1.29048561        5       0.00462790      -0.00857332      -0.00000000
O        8.72179888       2.40745799       2.71177607        6      -0.00462790       0.00303758       0.00801716
O        4.50060986       4.73004037       2.21656625        7       0.00462790      -0.00303758      -0.00801716
O        6.79848846       4.65122683       4.62233738        8       0.00000000       0.00553574      -0.00801716
O        5.60348079       1.70556105       3.63785671        9      -0.00462790       0.00857332      -0.00000000
