10
Lattice="5.08208662142505 -0.2742163451310141 -0.1893425330325422 2.559405719894946 4.3991182517151675 -0.18934253303255513 2.559405719894948 1.381575360172838 4.180830241895979" Properties=species:S:1:pos:R:3:spacegroup_kinds:I:1:forces:R:3 spacegroup="P 1" unit_cell=conventional occupancy="_JSON {\"0\": {\"In\": 1}, \"1\": {\"In\": 1}, \"2\": {\"In\": 1}, \"3\": {\"In\": 1}, \"4\": {\"O\": 1}, \"5\": {\"O\": 1}, \"6\": {\"O\": 1}, \"7\": {\"O\": 1}, \"8\": {\"O\": 1}, \"9\": {\"O\": 1}}" n_minim_iter=1 energy=-11281.616413531676 stress="-0.48157917039536713 0.010185215537771512 0.007032748206185219 0.010185215537771512 -0.49494954585097534 0.0037962998825117602 0.007032748206185219 0.0037962998825117602 -0.4978262659176821" free_energy=-11281.616413531676 pbc="T T T"
In       8.89541527       4.80177350       3.31555713        0      -0.08657707      -0.04673458      -0.03226957
In       6.40593181       3.45794240       2.38766063        1       0.08657707       0.04673458       0.03226957
In       3.79496624       2.04853487       1.41448454        2      -0.08657707      -0.04673458      -0.03226957
In       1.30548278       0.70470377       0.48658805        3       0.08657707       0.04673458       0.03226957
O        5.09126782       1.88884952      -0.08454278        4       0.00000000      -0.08481504       0.12283385
O        5.82812056       4.44471480       0.76119376        5       0.07090580      -0.13135491      -0.00000000
O        6.91382080       1.57399267       2.00587234        6      -0.07090580       0.04653987       0.12283385
O        3.28707725       3.93248460       1.79627284        7       0.07090580      -0.04653987      -0.12283385
O        5.10963023       3.61762774       3.88668796        8       0.00000000       0.08481504      -0.12283385
O        4.37277749       1.06176247       3.04095141        9      -0.07090580       0.13135491      -0.00000000
10
Lattice="5.060390563070681 -0.29882704910058355 -0.20633587829460465 2.526925947490416 4.394484669672724 -0.20633587829461775 2.5269259474904193 1.364042675569805 4.1825180915191025" Properties=species:S:1:pos:R:3:spacegroup_kinds:I:1:forces:R:3 spacegroup="P 1" unit_cell=conventional occupancy="_JSON {\"0\": {\"In\": 1}, \"1\": {\"In\": 1}, \"2\": {\"In\": 1}, \"3\": {\"In\": 1}, \"4\": {\"O\": 1}, \"5\": {\"O\": 1}, \"6\": {\"O\": 1}, \"7\": {\"O\": 1}, \"8\": {\"O\": 1}, \"9\": {\"O\": 1}}" n_minim_iter=2 energy=-11281.628407744609 stress="-0.48409839555678935 -0.0003809486283128035 -0.00026303967530472724 -0.0003809486283128035 -0.4835983152023442 -0.0001419896546010828 -0.00026303967530472724 -0.0001419896546010828 -0.4834907197801241" free_energy=-11281.628407744609 pbc="T T T"
In       8.81943982       4.76076171       3.28723906        0       0.06125024       0.03306308       0.02282959
In       6.35192385       3.42878873       2.36753044        1      -0.06125024      -0.03306308      -0.02282959
In       3.76231859       2.03091156       1.40231589        2       0.06125024       0.03306308       0.02282959
In       1.29480262       0.69893858       0.48260727        3      -0.06125024      -0.03306308      -0.02282959
O        5.05875589       1.86721904      -0.10454524        4      -0.00000000      -0.19114688       0.27682950
O        5.77738815       4.42206751       0.73612570        5       0.15979975      -0.29603335      -0.00000000
O        6.86704957       1.53992675       1.98671380        6      -0.15979975       0.10488647       0.27682950
O        3.24719287       3.91977354       1.78313253        7       0.15979975      -0.10488647      -0.27682950
O        5.05548656       3.59248126       3.87439158        8       0.00000000       0.19114688      -0.27682950
O        4.33685429       1.03763279       3.03372063        9      -0.15979975       0.29603335       0.00000000
10
Lattice="5.047086351303184 -0.31402863843770606 -0.2168323621195789 2.506917031377534 4.39170372646643 -0.216832362119592 2.506917031377538 1.3532417989169012 4.183636519582654" Properties=species:S:1:pos:R:3:spacegroup_kinds:I:1:forces:R:3 spacegroup="P 1" unit_cell=conventional occupancy="_JSON {\"0\": {\"In\": 1}, \"1\": {\"In\": 1}, \"2\": {\"In\": 1}, \"3\": {\"In\": 1}, \"4\": {\"O\": 1}, \"5\": {\"O\": 1}, \"6\": {\"O\": 1}, \"7\": {\"O\": 1}, \"8\": {\"O\": 1}, \"9\": {\"O\": 1}}" n_minim_iter=3 energy=-11281.639517369127 stress="-0.47556091401052625 -0.0007979873787698193 -0.0005509990703013293 -0.0007979873787698193 -0.474513376941896 -0.0002974310525949778 -0.0005509990703013293 -0.0002974310525949778 -0.47428799277591643" free_energy=-11281.639517369127 pbc="T T T"
In       8.77443938       4.73647033       3.27046620        0      -0.05369520      -0.02898484      -0.02001363
In       6.31694123       3.40990500       2.35449148        1       0.05369520       0.02898484       0.02001363
In       3.74397917       2.02101189       1.39548031        2      -0.05369520      -0.02898484      -0.02001363
In       1.28648102       0.69444656       0.47950559        3       0.05369520       0.02898484       0.02001363
O        5.03877327       1.84783725      -0.10812167        4      -0.00000000      -0.01051133       0.01522309
O        5.75123428       4.39877929       0.72066058        5       0.00878752      -0.01627912      -0.00000000
O        6.83322930       1.52224563       1.98369659        6      -0.00878752       0.00576779       0.01522309
O        3.22769110       3.90867126       1.76627520        7       0.00878752      -0.00576779      -0.01522309
O        5.02214713       3.58307963       3.85809346        8      -0.00000000       0.01051133      -0.01522309
O        4.30968613       1.03213760       3.02931121        9      -0.00878752       0.01627912      -0.00000000
10
Lattice="5.051179833697259 -0.3093423044524871 -0.21359651435501958 2.513081013168399 4.392554404321737 -0.21359651435503263 2.5130810131684034 1.3565691359219791 4.183285532369844" Properties=species:S:1:pos:R:3:spacegroup_kinds:I:1:forces:R:3 spacegroup="P 1" unit_cell=conventional occupancy="_JSON {\"0\": {\"In\": 1}, \"1\": {\"In\": 1}, \"2\": {\"In\": 1}, \"3\": {\"In\": 1}, \"4\": {\"O\": 1}, \"5\": {\"O\": 1}, \"6\": {\"O\": 1}, \"7\": {\"O\": 1}, \"8\": {\"O\": 1}, \"9\": {\"O\": 1}}" n_minim_iter=4 energy=-11281.639982462366 stress="-0.4748787201080958 0.0009087005187931003 0.0006274449389691232 0.0009087005187931003 -0.4760715929616266 0.0003386967778488868 0.0006274449389691232 0.0003386967778488868 -0.476328247031648" free_energy=-11281.639982462366 pbc="T T T"
In       8.78695915       4.74322854       3.27513265        0      -0.03924982      -0.02118718      -0.01462945
In       6.32905363       3.41644331       2.35900610        1       0.03924982       0.02118718       0.01462945
In       3.74828822       2.02333792       1.39708640        2      -0.03924982      -0.02118718      -0.01462945
In       1.29038270       0.69655270       0.48095985        3       0.03924982       0.02118718       0.01462945
O        5.04492538       1.85167992      -0.10393577        4      -0.00000000       0.00413990      -0.00599564
O        5.76106744       4.40265408       0.72542661        5      -0.00346098       0.00641156      -0.00000000
O        6.84186432       1.52886176       1.98770700        6       0.00346098      -0.00227165      -0.00599564
O        3.23547753       3.91091947       1.76838550        7      -0.00346098       0.00227165       0.00599564
O        5.03241647       3.58810132       3.86002827        8      -0.00000000      -0.00413990       0.00599564
O        4.31627441       1.03712715       3.03066589        9       0.00346098      -0.00641156       0.00000000
10
Lattice="5.0504053061054295 -0.3102283844485937 -0.21420834014115975 2.5119152456641993 4.39239310684451 -0.2142083401411728 2.5119152456642033 1.3559398509098477 4.183351472056324" Properties=species:S:1:pos:R:3:spacegroup_kinds:I:1:forces:R:3 spacegroup="P 1" unit_cell=conventional occupancy="_JSON {\"0\": {\"In\": 1}, \"1\": {\"In\": 1}, \"2\": {\"In\": 1}, \"3\": {\"In\": 1}, \"4\": {\"O\": 1}, \"5\": {\"O\": 1}, \"6\": {\"O\": 1}, \"7\": {\"O\": 1}, \"8\": {\"O\": 1}, \"9\": {\"O\": 1}}" n_minim_iter=5 energy=-11281.640163398877 stress="-0.47465281611919136 0.00037127681086204464 0.00025636142042371053 0.00037127681086204464 -0.4751402000478723 0.00013838471160629168 0.00025636142042371053 0.00013838471160629168 -0.47524506375316555" free_energy=-11281.640163398877 pbc="T T T"
In       8.78335458       4.74128278       3.27378913        0      -0.01607016      -0.00867473      -0.00598978
In       6.32799911       3.41587408       2.35861305        1       0.01607016       0.00867473       0.00598978
In       3.74623668       2.02223050       1.39632174        2      -0.01607016      -0.00867473      -0.00598978
In       1.29088121       0.69682179       0.48114565        3       0.01607016       0.00867473       0.00598978
O        5.04376160       1.85067924      -0.10433057        4       0.00000000       0.00172772      -0.00250217
O        5.75943654       4.40149678       0.72452536        5      -0.00144438       0.00267575       0.00000000
O        6.84000190       1.52776089       1.98734517        6       0.00144438      -0.00094804      -0.00250217
O        3.23423389       3.91034368       1.76758962        7      -0.00144438       0.00094804       0.00250217
O        5.03047419       3.58742533       3.85926536        8      -0.00000000      -0.00172772       0.00250217
O        4.31479924       1.03660779       3.03040943        9       0.00144438      -0.00267575      -0.00000000
10
Lattice="5.049874685902445 -0.310835595013429 -0.21462761050367266 2.511116451707485 4.392282695411305 -0.2146276105036857 2.511116451707488 1.3555086593875842 4.1833967731886785" Properties=species:S:1:pos:R:3:spacegroup_kinds:I:1:forces:R:3 spacegroup="P 1" unit_cell=conventional occupancy="_JSON {\"0\": {\"In\": 1}, \"1\": {\"In\": 1}, \"2\": {\"In\": 1}, \"3\": {\"In\": 1}, \"4\": {\"O\": 1}, \"5\": {\"O\": 1}, \"6\": {\"O\": 1}, \"7\": {\"O\": 1}, \"8\": {\"O\": 1}, \"9\": {\"O\": 1}}" n_minim_iter=6 energy=-11281.640199338155 stress="-0.4745022055868965 -2.8333591071010826e-06 -1.9563950853074106e-06 -2.8333591071010826e-06 -0.4744984861690162 -1.0560677399628693e-06 -1.9563950853074106e-06 -1.0560677399628693e-06 -0.47449768591170394" free_energy=-11281.640199338155 pbc="T T T"
In       8.78087912       4.73994652       3.27286647        0       0.00015065       0.00008132       0.00005615
In       6.32728225       3.41548711       2.35834586        1      -0.00015065      -0.00008132      -0.00005615
In       3.74482533       2.02146864       1.39579569        2       0.00015065       0.00008132       0.00005615
In       1.29122845       0.69700923       0.48127508        3      -0.00015065      -0.00008132      -0.00005615
O        5.04296423       1.84999423      -0.10460208        4       0.00000000      -0.00001383       0.00002004
O        5.75831853       4.40070487       0.72390778        5       0.00001157      -0.00002143       0.00000000
O        6.83872638       1.52700618       1.98709630        6      -0.00001157       0.00000759       0.00002004
O        3.23338119       3.90994958       1.76704525        7       0.00001157      -0.00000759      -0.00002004
O        5.02914334       3.58696153       3.85874363        8       0.00000000       0.00001383      -0.00002004
O        4.31378904       1.03625089       3.03023377        9      -0.00001157       0.00002143      -0.00000000
