10
Lattice="5.6924870035661215 -0.0315901819364441 -0.021812576722757486 3.097182426338541 4.77628173827128 -0.021812576722769282 3.097182426338541 1.6718689393119275 4.474170010360696" Properties=species:S:1:pos:R:3:spacegroup_kinds:I:1:forces:R:3 spacegroup="P 1" unit_cell=conventional occupancy="_JSON {\"0\": {\"In\": 1}, \"1\": {\"In\": 1}, \"2\": {\"In\": 1}, \"3\": {\"In\": 1}, \"4\": {\"O\": 1}, \"5\": {\"O\": 1}, \"6\": {\"O\": 1}, \"7\": {\"O\": 1}, \"8\": {\"O\": 1}, \"9\": {\"O\": 1}}" n_minim_iter=6 energy=-11287.272199613823 stress="-0.08811492022950398 -8.78884313094861e-05 -6.0685725797932334e-05 -8.78884313094861e-05 -0.08799954698942132 -3.2758348173503924e-05 -6.0685725797932334e-05 -3.2758348173503924e-05 -0.08797472371523611" free_energy=-11287.272199613823 pbc="T T T"
In      10.21442645       5.51377993       3.80718756        0       0.00292585       0.00157939       0.00109054
In       7.61585135       4.11106082       2.83862973        1      -0.00292585      -0.00157939      -0.00109054
In       4.27100052       2.30549969       1.59191514        2       0.00292585       0.00157939       0.00109054
In       1.67242542       0.90278057       0.62335730        3      -0.00292585      -0.00157939      -0.00109054
O        5.81795647       2.23614272       0.15855344        4      -0.00000000      -0.00333602       0.00483142
O        6.82498559       4.97974433       1.08582364        5       0.00278893      -0.00516657      -0.00000000
O        7.90810978       2.06881877       2.39563844        6      -0.00278893       0.00183055       0.00483142
O        3.97874209       4.34774174       2.03490642        7       0.00278893      -0.00183055      -0.00483142
O        6.06889539       4.18041779       4.27199142        8       0.00000000       0.00333602      -0.00483142
O        5.06186627       1.43681618       3.34472122        9      -0.00278893       0.00516657      -0.00000000
