10
Lattice="6.281521641780188 0.08520283712886567 0.05883136176959747 3.5180381464938484 5.204630751496385 0.058831361769589884 3.518038146493845 1.899048197619682 4.846159131896822" Properties=species:S:1:pos:R:3:spacegroup_kinds:I:1:forces:R:3 spacegroup="P 1" unit_cell=conventional occupancy="_JSON {\"0\": {\"In\": 1}, \"1\": {\"In\": 1}, \"2\": {\"In\": 1}, \"3\": {\"In\": 1}, \"4\": {\"O\": 1}, \"5\": {\"O\": 1}, \"6\": {\"O\": 1}, \"7\": {\"O\": 1}, \"8\": {\"O\": 1}, \"9\": {\"O\": 1}}" n_minim_iter=5 energy=-11286.308556891592 stress="0.10060378460731657 3.5010036044280054e-05 2.417393740302654e-05 3.5010036044280054e-05 0.10055782609836153 1.3049168480028856e-05 2.417393740302654e-05 1.3049168480028856e-05 0.10054793783676766" free_energy=-11286.308556891592 pbc="T T T"
In      11.33336080       6.11778426       4.22424406        0      -0.00192478      -0.00103900      -0.00071742
In       8.64303612       4.66553843       3.22148872        1       0.00192478       0.00103900       0.00071742
In       4.67456183       2.52334337       1.74233314        2      -0.00192478      -0.00103900      -0.00071742
In       1.98423715       1.07109754       0.73957780        3       0.00192478       0.00103900       0.00071742
O        6.47016031       2.50887693       0.30140854        4      -0.00000000       0.00053347      -0.00077260
O        7.66984601       5.47831744       1.29978683        5      -0.00044598       0.00082620       0.00000000
O        8.78851275       2.42222084       2.72448811        6       0.00044598      -0.00029273      -0.00077260
O        4.52908519       4.76666096       2.23933375        7      -0.00044598       0.00029273       0.00077260
O        6.84743764       4.68000486       4.66241332        8       0.00000000      -0.00053347       0.00077260
O        5.64775193       1.71056436       3.66403503        9       0.00044598      -0.00082620      -0.00000000
