10
Lattice="5.82955543452079 0.005435089268268197 0.0037528527660150926 3.203348180095924 4.870555054757348 0.0037528527660046565 3.2033481800959254 1.7291775513640293 4.553269772502496" Properties=species:S:1:pos:R:3:spacegroup_kinds:I:1:forces:R:3 spacegroup="P 1" unit_cell=conventional occupancy="_JSON {\"0\": {\"In\": 1}, \"1\": {\"In\": 1}, \"2\": {\"In\": 1}, \"3\": {\"In\": 1}, \"4\": {\"O\": 1}, \"5\": {\"O\": 1}, \"6\": {\"O\": 1}, \"7\": {\"O\": 1}, \"8\": {\"O\": 1}, \"9\": {\"O\": 1}}" n_minim_iter=1 energy=-11287.639724876346 stress="-0.026920350172289446 0.0006703709417249435 0.0004628817143316133 0.0006703709417249435 -0.02780036210166621 0.000249865024770243 0.0004628817143316133 0.000249865024770243 -0.027989702182047146" free_energy=-11287.639724876346 pbc="T T T"
In      10.48865288       5.66180824       3.90939903        0       0.02177455       0.01175397       0.00811595
In       7.86572482       4.24594332       2.93176420        1      -0.02177455      -0.01175397      -0.00811595
In       4.37052698       2.35922439       1.62901129        2       0.02177455       0.01175397       0.00811595
In       1.74759893       0.94335947       0.65137646        3      -0.02177455      -0.01175397      -0.00811595
O        5.97384067       2.29367556       0.21567044        4      -0.00000000       0.04545650      -0.06583262
O        7.04075072       5.07995184       1.14394672        5      -0.03800186       0.07039947      -0.00000000
O        8.11027880       2.16759950       2.49230533        6       0.03800186      -0.02494297      -0.06583262
O        4.12597301       4.43756821       2.06847016        7      -0.03800186       0.02494297       0.06583262
O        6.26241113       4.31149215       4.34510504        8       0.00000000      -0.04545650       0.06583262
O        5.19550108       1.52521587       3.41682876        9       0.03800186      -0.07039947      -0.00000000
10
Lattice="5.822568710664211 -0.001769302013858247 -0.0012216781783880612 3.193491505055148 4.868667325662754 -0.001221678178398512 3.1934915050551487 1.7238568867801713 4.553267008904076" Properties=species:S:1:pos:R:3:spacegroup_kinds:I:1:forces:R:3 spacegroup="P 1" unit_cell=conventional occupancy="_JSON {\"0\": {\"In\": 1}, \"1\": {\"In\": 1}, \"2\": {\"In\": 1}, \"3\": {\"In\": 1}, \"4\": {\"O\": 1}, \"5\": {\"O\": 1}, \"6\": {\"O\": 1}, \"7\": {\"O\": 1}, \"8\": {\"O\": 1}, \"9\": {\"O\": 1}}" n_minim_iter=2 energy=-11287.640368370601 stress="-0.027542422370386104 -0.0004112914608611053 -0.0002839909740819936 -0.0004112914608611053 -0.02700251025936378 -0.00015329923247648785 -0.0002839909740819936 -0.00015329923247648785 -0.026886344784114252" free_energy=-11287.640368370601 pbc="T T T"
In      10.46607653       5.64962145       3.90098422        0       0.04489541       0.02423469       0.01673371
In       7.84825106       4.23651092       2.92525126        1      -0.04489541      -0.02423469      -0.01673371
In       4.36130067       2.35424400       1.62557240        2       0.04489541       0.02423469       0.01673371
In       1.74347520       0.94113347       0.64983943        3      -0.04489541      -0.02423469      -0.01673371
O        5.96367229       2.28781929       0.20874134        4      -0.00000000       0.03505734      -0.05077198
O        7.02452613       5.07389200       1.13648424        5      -0.02930811       0.05429406       0.00000000
O        8.09630995       2.15699348       2.48537485        6       0.02930811      -0.01923673      -0.05077198
O        4.11324178       4.43376144       2.06544881        7      -0.02930811       0.01923673       0.05077198
O        6.24587944       4.30293563       4.34208231        8       0.00000000      -0.03505734       0.05077198
O        5.18502560       1.51686292       3.41433942        9       0.02930811      -0.05429406      -0.00000000
10
Lattice="5.8195423274663245 -0.004894429404966735 -0.003379534727745642 3.1892182404010914 4.867852079891531 -0.0033795347277560954 3.1892182404010905 1.7215501649081166 4.553269190665553" Properties=species:S:1:pos:R:3:spacegroup_kinds:I:1:forces:R:3 spacegroup="P 1" unit_cell=conventional occupancy="_JSON {\"0\": {\"In\": 1}, \"1\": {\"In\": 1}, \"2\": {\"In\": 1}, \"3\": {\"In\": 1}, \"4\": {\"O\": 1}, \"5\": {\"O\": 1}, \"6\": {\"O\": 1}, \"7\": {\"O\": 1}, \"8\": {\"O\": 1}, \"9\": {\"O\": 1}}" n_minim_iter=3 energy=-11287.642007207985 stress="-0.026457889840915984 -0.000576112706656847 -0.00039779772812621717 -0.000576112706656847 -0.02570161294582592 -0.00021473248033780214 -0.00039779772812621717 -0.00021473248033780214 -0.025538895230676494" free_energy=-11287.642007207985 pbc="T T T"
In      10.45960563       5.64612844       3.89857235        0       0.04091929       0.02208836       0.01525170
In       7.83736259       4.23063330       2.92119284        1      -0.04091929      -0.02208836      -0.01525170
In       4.36061622       2.35387453       1.62531729        2       0.04091929       0.02208836       0.01525170
In       1.73837319       0.93837939       0.64793778        3      -0.04091929      -0.02208836      -0.01525170
O        5.95926587       2.28888822       0.20051111        4       0.00000000      -0.00881100       0.01276059
O        7.01447749       5.07685425       1.13324800        5       0.00736604      -0.01364580       0.00000000
O        8.09327249       2.15041484       2.47714570        6      -0.00736604       0.00483479       0.01276059
O        4.10470632       4.43409299       2.06936442        7       0.00736604      -0.00483479      -0.01276059
O        6.23871295       4.29561960       4.34599902        8      -0.00000000       0.00881100      -0.01276059
O        5.18350133       1.50765358       3.41326213        9      -0.00736604       0.01364580      -0.00000000
10
Lattice="5.822395644171955 -0.0019479424193271002 -0.0013450268681143387 3.193247195420471 4.868620665105418 -0.001345026868124789 3.1932471954204695 1.7237250076611623 4.553267078456122" Properties=species:S:1:pos:R:3:spacegroup_kinds:I:1:forces:R:3 spacegroup="P 1" unit_cell=conventional occupancy="_JSON {\"0\": {\"In\": 1}, \"1\": {\"In\": 1}, \"2\": {\"In\": 1}, \"3\": {\"In\": 1}, \"4\": {\"O\": 1}, \"5\": {\"O\": 1}, \"6\": {\"O\": 1}, \"7\": {\"O\": 1}, \"8\": {\"O\": 1}, \"9\": {\"O\": 1}}" n_minim_iter=4 energy=-11287.642206055647 stress="-0.025991333163382542 -2.785397213490091e-05 -1.9232776759168157e-05 -2.785397213490091e-05 -0.025954768587575082 -1.0381913158171324e-05 -1.9232776759168157e-05 -1.0381913158171324e-05 -0.025946901491029545" free_energy=-11287.642206055647 pbc="T T T"
In      10.46955095       5.65149696       3.90227923        0       0.02452635       0.01323940       0.00914162
In       7.84378411       4.23409965       2.92358631        1      -0.02452635      -0.01323940      -0.00914162
In       4.36510593       2.35629809       1.62699072        2       0.02452635       0.01323940       0.00914162
In       1.73933909       0.93890079       0.64829780        3      -0.02452635      -0.01323940      -0.00914162
O        5.96342034       2.29157089       0.20292606        4       0.00000000      -0.00654089       0.00947288
O        7.02086635       5.07977686       1.13629923        5       0.00546822      -0.01013002       0.00000000
O        8.09922152       2.15459233       2.47955960        6      -0.00546822       0.00358913       0.00947288
O        4.10966852       4.43580541       2.07101743        7       0.00546822      -0.00358913      -0.00947288
O        6.24546971       4.29882685       4.34765097        8       0.00000000       0.00654089      -0.00947288
O        5.18802370       1.51062088       3.41427780        9      -0.00546822       0.01013002       0.00000000
10
Lattice="5.823198751095602 -0.0011190445674533068 -0.0007726845490449233 3.194380840470713 4.86883723213826 -0.0007726845490553954 3.1943808404707115 1.7243369528703265 4.553266812197926" Properties=species:S:1:pos:R:3:spacegroup_kinds:I:1:forces:R:3 spacegroup="P 1" unit_cell=conventional occupancy="_JSON {\"0\": {\"In\": 1}, \"1\": {\"In\": 1}, \"2\": {\"In\": 1}, \"3\": {\"In\": 1}, \"4\": {\"O\": 1}, \"5\": {\"O\": 1}, \"6\": {\"O\": 1}, \"7\": {\"O\": 1}, \"8\": {\"O\": 1}, \"9\": {\"O\": 1}}" n_minim_iter=5 energy=-11287.642308094904 stress="-0.02562997462707434 0.0003330363202415326 0.00022995689828232422 0.0003330363202415326 -0.02606715934999083 0.0001241314663303927 0.00022995689828232422 0.0001241314663303927 -0.02616122238316142" free_energy=-11287.642308094904 pbc="T T T"
In      10.47360467       5.65368517       3.90379016        0       0.00341119       0.00184137       0.00127144
In       7.84433599       4.23439756       2.92379201        1      -0.00341119      -0.00184137      -0.00127144
In       4.36762445       2.35765759       1.62792944        2       0.00341119       0.00184137       0.00127144
In       1.73835577       0.93836999       0.64793129        3      -0.00341119      -0.00184137      -0.00127144
O        5.96458949       2.29229753       0.20364628        4      -0.00000000      -0.00238244       0.00345039
O        7.02268772       5.08055574       1.13715768        5       0.00199174      -0.00368974      -0.00000000
O        8.10087209       2.15578316       2.48027969        6      -0.00199174       0.00130730       0.00345039
O        4.11108835       4.43627199       2.07144176        7       0.00199174      -0.00130730      -0.00345039
O        6.24737095       4.29975762       4.34807517        8       0.00000000       0.00238244      -0.00345039
O        5.18927272       1.51149941       3.41456377        9      -0.00199174       0.00368974      -0.00000000
