10
Lattice="5.184829229009922 -0.22476319715903847 -0.15519582927214956 2.6571259114309895 4.457875561250539 -0.155195829272164 2.657125911430994 1.4343250308358857 4.223677541069619" Properties=species:S:1:pos:R:3:spacegroup_kinds:I:1:forces:R:3 spacegroup="P 1" unit_cell=conventional occupancy="_JSON {\"0\": {\"In\": 1}, \"1\": {\"In\": 1}, \"2\": {\"In\": 1}, \"3\": {\"In\": 1}, \"4\": {\"O\": 1}, \"5\": {\"O\": 1}, \"6\": {\"O\": 1}, \"7\": {\"O\": 1}, \"8\": {\"O\": 1}, \"9\": {\"O\": 1}}" n_minim_iter=1 energy=-11283.019982920128 stress="-0.38718563388839566 0.007319999930763892 0.005054357091813419 0.007319999930763892 -0.39679477245240385 0.002728358057696213 0.005054357091813419 0.002728358057696213 -0.3988622388308626" free_energy=-11283.019982920128 pbc="T T T"
In       9.13713199       4.93225296       3.40565136        0       0.08979589       0.04847211       0.03346931
In       6.61148958       3.56890314       2.46427746        1      -0.08979589      -0.04847211      -0.03346931
In       3.88759146       2.09853426       1.44900842        2       0.08979589       0.04847211       0.03346931
In       1.36194905       0.73518444       0.50763452        3      -0.08979589      -0.04847211      -0.03346931
O        5.21718487       1.95831796      -0.04620405        4      -0.00000000      -0.05771140       0.08358085
O        5.99913416       4.54603214       0.82312564        5       0.04824702      -0.08937891      -0.00000000
O        7.09236150       1.66286386       2.06563472        6      -0.04824702       0.03166751       0.08358085
O        3.40671954       4.00457353       1.84765116        7       0.04824702      -0.03166751      -0.08358085
O        5.28189617       3.70911944       3.95948993        8       0.00000000       0.05771140      -0.08358085
O        4.49994688       1.12140525       3.09016024        9      -0.04824702       0.08937891       0.00000000
10
Lattice="5.160623197888696 -0.25172717540246364 -0.17381407735216506 2.621301513111483 4.452434922464621 -0.17381407735217952 2.621301513111486 1.4149869065101817 4.2251864014115466" Properties=species:S:1:pos:R:3:spacegroup_kinds:I:1:forces:R:3 spacegroup="P 1" unit_cell=conventional occupancy="_JSON {\"0\": {\"In\": 1}, \"1\": {\"In\": 1}, \"2\": {\"In\": 1}, \"3\": {\"In\": 1}, \"4\": {\"O\": 1}, \"5\": {\"O\": 1}, \"6\": {\"O\": 1}, \"7\": {\"O\": 1}, \"8\": {\"O\": 1}, \"9\": {\"O\": 1}}" n_minim_iter=2 energy=-11283.03137812446 stress="-0.3860797398370801 0.0005749210593870152 0.0003969749125541821 0.0005749210593870152 -0.38683445243114256 0.00021428832331274944 0.0003969749125541821 0.00021428832331274944 -0.386996833575356" free_energy=-11283.03137812446 pbc="T T T"
In       9.05432641       4.88755424       3.37478752        0       0.28719936       0.15503113       0.10704682
In       6.55051291       3.53598774       2.44154984        1      -0.28719936      -0.15503113      -0.10704682
In       3.85271330       2.07970692       1.43600840        2       0.28719936       0.15503113       0.10704682
In       1.34889980       0.72814041       0.50277072        3      -0.28719936      -0.15503113      -0.10704682
O        5.18111815       1.93450494      -0.06821730        4       0.00000000      -0.13592978       0.19686104
O        5.94297773       4.52092804       0.79557548        5       0.11363797      -0.21051742       0.00000000
O        7.04056008       1.62534789       2.04437591        6      -0.11363797       0.07458764       0.19686104
O        3.36266613       3.99034676       1.83318234        7       0.11363797      -0.07458764      -0.19686104
O        5.22210806       3.68118971       3.94577554        8      -0.00000000       0.13592978      -0.19686104
O        4.46024849       1.09476661       3.08198276        9      -0.11363797       0.21051742       0.00000000
10
Lattice="5.1418066095321375 -0.27286473247678583 -0.18840926348762269 2.5933053369192316 4.448302800120997 -0.18840926348763715 2.593305336919234 1.399874481424307 4.226493497970777" Properties=species:S:1:pos:R:3:spacegroup_kinds:I:1:forces:R:3 spacegroup="P 1" unit_cell=conventional occupancy="_JSON {\"0\": {\"In\": 1}, \"1\": {\"In\": 1}, \"2\": {\"In\": 1}, \"3\": {\"In\": 1}, \"4\": {\"O\": 1}, \"5\": {\"O\": 1}, \"6\": {\"O\": 1}, \"7\": {\"O\": 1}, \"8\": {\"O\": 1}, \"9\": {\"O\": 1}}" n_minim_iter=3 energy=-11283.042587532713 stress="-0.380928305967547 -0.003038033951727879 -0.0020977197535756486 -0.003038033951727879 -0.37694020631057923 -0.001132355804228177 -0.0020977197535756486 -0.001132355804228177 -0.37608214167657694" free_energy=-11283.042587532713 pbc="T T T"
In       8.99446490       4.85524081       3.35247555        0       0.25431490       0.13727999       0.09478991
In       6.49816101       3.50772802       2.42203690        1      -0.25431490      -0.13727999      -0.09478991
In       3.83025626       2.06758453       1.42763806        2       0.25431490       0.13727999       0.09478991
In       1.33395237       0.72007174       0.49719942        3      -0.25431490      -0.13727999      -0.09478991
O        5.15300762       1.91357300      -0.08209810        4      -0.00000000      -0.07808024       0.11308013
O        5.90109285       4.49778318       0.77400948        5       0.06527547      -0.12092458       0.00000000
O        6.99822772       1.59727423       2.03114865        6      -0.06527547       0.04284434       0.11308013
O        3.33018955       3.97803832       1.81852632        7       0.06527547      -0.04284434      -0.11308013
O        5.17540965       3.66173955       3.93177307        8       0.00000000       0.07808024      -0.11308013
O        4.42732442       1.07752937       3.07566549        9      -0.06527547       0.12092458       0.00000000
10
Lattice="5.137284811226047 -0.27796792344983223 -0.1919329451446143 2.586557834310432 4.447322786563649 -0.19193294514462872 2.5865578343104345 1.3962321580229975 4.226825520910765" Properties=species:S:1:pos:R:3:spacegroup_kinds:I:1:forces:R:3 spacegroup="P 1" unit_cell=conventional occupancy="_JSON {\"0\": {\"In\": 1}, \"1\": {\"In\": 1}, \"2\": {\"In\": 1}, \"3\": {\"In\": 1}, \"4\": {\"O\": 1}, \"5\": {\"O\": 1}, \"6\": {\"O\": 1}, \"7\": {\"O\": 1}, \"8\": {\"O\": 1}, \"9\": {\"O\": 1}}" n_minim_iter=4 energy=-11283.048853664966 stress="-0.3761918709008914 -0.000867544382220909 -0.0005990272048147146 -0.000867544382220909 -0.3750530246915538 -0.0003233567930146383 -0.0005990272048147146 -0.0003233567930146383 -0.37480799479135596" free_energy=-11283.048853664966 pbc="T T T"
In       8.98509010       4.85018026       3.34898131        0       0.08653312       0.04671085       0.03225319
In       6.48051060       3.49820027       2.41545813        1      -0.08653312      -0.04671085      -0.03225319
In       3.82988986       2.06738675       1.42750150        2       0.08653312       0.04671085       0.03225319
In       1.32531036       0.71540676       0.49397831        3      -0.08653312      -0.04671085      -0.03225319
O        5.14624252       1.90679404      -0.08293774        4      -0.00000000       0.03077002      -0.04456285
O        5.89245545       4.48952872       0.76880696        5      -0.02572389       0.04765420      -0.00000000
O        6.98658742       1.59145558       2.03047502        6       0.02572389      -0.01688418      -0.04456285
O        3.32381304       3.97413144       1.81248461        7      -0.02572389       0.01688418       0.04456285
O        5.16415795       3.65879298       3.92589737        8       0.00000000      -0.03077002       0.04456285
O        4.41794502       1.07605830       3.07415267        9       0.02572389      -0.04765420      -0.00000000
10
Lattice="5.139268159493422 -0.2757284248679153 -0.19038660284317233 2.5895183728123015 4.4477520138077224 -0.19038660284318668 2.5895183728123037 1.3978302661366233 4.226679025185755" Properties=species:S:1:pos:R:3:spacegroup_kinds:I:1:forces:R:3 spacegroup="P 1" unit_cell=conventional occupancy="_JSON {\"0\": {\"In\": 1}, \"1\": {\"In\": 1}, \"2\": {\"In\": 1}, \"3\": {\"In\": 1}, \"4\": {\"O\": 1}, \"5\": {\"O\": 1}, \"6\": {\"O\": 1}, \"7\": {\"O\": 1}, \"8\": {\"O\": 1}, \"9\": {\"O\": 1}}" n_minim_iter=5 energy=-11283.050274677275 stress="-0.3752398545405624 0.0012505950135755475 0.0008635182822901228 0.0012505950135755475 -0.3768815404508689 0.00046612991916417475 0.0008635182822901228 0.00046612991916417475 -0.37723475946405466" free_energy=-11283.050274677275 pbc="T T T"
In       8.99655943       4.85637144       3.35325624        0      -0.01367661      -0.00738268      -0.00509764
In       6.48089792       3.49840934       2.41560249        1       0.01367661       0.00738268       0.00509764
In       3.83740697       2.07144451       1.43030333        2      -0.01367661      -0.00738268      -0.00509764
In       1.32174547       0.71348242       0.49264958        3       0.01367661       0.00738268       0.00509764
O        5.14921030       1.90944602      -0.08210222        4       0.00000000       0.04644805      -0.06726864
O        5.89651432       4.49265076       0.77108985        5      -0.03883080       0.07193512       0.00000000
O        6.99142465       1.59418566       2.03123730        6       0.03883080      -0.02548706      -0.06726864
O        3.32688024       3.97566820       1.81466852        7      -0.03883080       0.02548706       0.06726864
O        5.16909459       3.66040783       3.92800803        8       0.00000000      -0.04644805       0.06726864
O        4.42179057       1.07720310       3.07481597        9       0.03883080      -0.07193512       0.00000000
10
Lattice="5.137930087672419 -0.27723911332620665 -0.19142971199547046 2.587521200490045 4.447462326853597 -0.19142971199548486 2.587521200490045 1.3967521861553986 4.226777710489019" Properties=species:S:1:pos:R:3:spacegroup_kinds:I:1:forces:R:3 spacegroup="P 1" unit_cell=conventional occupancy="_JSON {\"0\": {\"In\": 1}, \"1\": {\"In\": 1}, \"2\": {\"In\": 1}, \"3\": {\"In\": 1}, \"4\": {\"O\": 1}, \"5\": {\"O\": 1}, \"6\": {\"O\": 1}, \"7\": {\"O\": 1}, \"8\": {\"O\": 1}, \"9\": {\"O\": 1}}" n_minim_iter=6 energy=-11283.050822871655 stress="-0.37594340560940126 0.00039435270881558126 0.000272295002918346 0.00039435270881558126 -0.376461081820849 0.00014698571224321854 0.000272295002918346 0.00014698571224321854 -0.37657246310255355" free_energy=-11283.050822871655 pbc="T T T"
In       8.99282705       4.85435669       3.35186508        0      -0.00748044      -0.00403796      -0.00278816
In       6.47663167       3.49610641       2.41401235        1       0.00748044       0.00403796       0.00278816
In       3.83634080       2.07086899       1.42990593        2      -0.00748044      -0.00403796      -0.00278816
In       1.32014543       0.71261871       0.49205320        3       0.00748044       0.00403796       0.00278816
O        5.14720816       1.90892607      -0.08450375        4       0.00000000       0.02039485      -0.02953695
O        5.89271520       4.49251000       0.76954986        5      -0.01705019       0.03158594       0.00000000
O        6.98922232       1.59164762       2.02888510        6       0.01705019      -0.01119110      -0.02953695
O        3.32375016       3.97532778       1.81503318        7      -0.01705019       0.01119110       0.02953695
O        5.16576432       3.65804933       3.92842204        8      -0.00000000      -0.02039485       0.02953695
O        4.42025727       1.07446540       3.07436842        9       0.01705019      -0.03158594       0.00000000
10
Lattice="5.137938199259686 -0.2772299528643082 -0.1914233868252521 2.5875333096869997 4.447464081635429 -0.1914233868252665 2.5875333096869992 1.3967587227384861 4.226777110389769" Properties=species:S:1:pos:R:3:spacegroup_kinds:I:1:forces:R:3 spacegroup="P 1" unit_cell=conventional occupancy="_JSON {\"0\": {\"In\": 1}, \"1\": {\"In\": 1}, \"2\": {\"In\": 1}, \"3\": {\"In\": 1}, \"4\": {\"O\": 1}, \"5\": {\"O\": 1}, \"6\": {\"O\": 1}, \"7\": {\"O\": 1}, \"8\": {\"O\": 1}, \"9\": {\"O\": 1}}" n_minim_iter=7 energy=-11283.050941127756 stress="-0.3765811245429697 3.076094118555888e-05 2.123999774085707e-05 3.076094118555888e-05 -0.3766215051662805 1.1465419361934626e-05 2.123999774085707e-05 1.1465419361934626e-05 -0.3766301933120698" free_energy=-11283.050941127756 pbc="T T T"
In       8.99317491       4.85454447       3.35199474        0       0.00043211       0.00023325       0.00016106
In       6.47633230       3.49594481       2.41390077        1      -0.00043211      -0.00023325      -0.00016106
In       3.83667250       2.07104804       1.43002957        2       0.00043211       0.00023325       0.00016106
In       1.31982990       0.71244838       0.49193560        3      -0.00043211      -0.00023325      -0.00016106
O        5.14722030       1.90960777      -0.08547190        4      -0.00000000      -0.00045237       0.00065514
O        5.89217097       4.49356173       0.76955920        5       0.00037818      -0.00070059       0.00000000
O        6.98980294       1.59129068       2.02791666        6      -0.00037818       0.00024822       0.00065514
O        3.32320187       3.97570217       1.81601368        7       0.00037818      -0.00024822      -0.00065514
O        5.16578451       3.65738508       3.92940223        8       0.00000000       0.00045237      -0.00065514
O        4.42083384       1.07343112       3.07437114        9      -0.00037818       0.00070059       0.00000000
