--------------------------------------------------------------------------
[[64682,1],1]: A high-performance Open MPI point-to-point messaging module
was unable to find any relevant network interfaces:

Module: OpenFabrics (openib)
  Host: node15

Another transport will be used instead, although this may result in
lower performance.

NOTE: You can disable this warning by setting the MCA parameter
btl_base_warn_component_unused to 0.
--------------------------------------------------------------------------

     Program PWSCF v.6.7MaX starts on 16Jul2021 at  0:13:15 

     This program is part of the open-source Quantum ESPRESSO suite
     for quantum simulation of materials; please cite
         "P. Giannozzi et al., J. Phys.:Condens. Matter 21 395502 (2009);
         "P. Giannozzi et al., J. Phys.:Condens. Matter 29 465901 (2017);
          URL http://www.quantum-espresso.org", 
     in publications or presentations arising from this work. More details at
     http://www.quantum-espresso.org/quote

     Parallel version (MPI), running on    16 processors

     MPI processes distributed on     1 nodes
     R & G space division:  proc/nbgrp/npool/nimage =      16
     Reading input from pw.inp

     Current dimensions of program PWSCF are:
     Max number of different atomic species (ntypx) = 10
     Max number of k-points (npk) =  40000
     Max angular momentum in pseudopotentials (lmaxx) =  3
     Message from routine cell_base_init:
     DEPRECATED: use true lattice parameter, not A to a.u. conversion factor
     file In.UPF: wavefunction(s)  5S renormalized
     file O.UPF: wavefunction(s)  2P renormalized

     IMPORTANT: XC functional enforced from input :
     Exchange-correlation= PBE
                           (   1   4   3   4   0   0   0)
     Any further DFT definition will be discarded
     Please, verify this is what you really want


     Subspace diagonalization in iterative solution of the eigenvalue problem:
     a serial algorithm will be used


     Parallelization info
     --------------------
     sticks:   dense  smooth     PW     G-vecs:    dense   smooth      PW
     Min        1067     533    141                89723    31724    4314
     Max        1068     534    142                89725    31725    4317
     Sum       17077    8539   2257              1435587   507593   69037



     bravais-lattice index     =            0
     lattice parameter (alat)  =       1.8897  a.u.
     unit-cell volume          =    7169.5930 (a.u.)^3
     number of atoms/cell      =           80
     number of atomic types    =            2
     number of electrons       =       704.00
     number of Kohn-Sham states=          372
     kinetic-energy cutoff     =      65.0000  Ry
     charge density cutoff     =     520.0000  Ry
     scf convergence threshold =      7.3E-09
     mixing beta               =       0.5000
     number of iterations used =           10  plain     mixing
     Exchange-correlation= PBE
                           (   1   4   3   4   0   0   0)

     celldm(1)=   1.889726  celldm(2)=   0.000000  celldm(3)=   0.000000
     celldm(4)=   0.000000  celldm(5)=   0.000000  celldm(6)=   0.000000

     crystal axes: (cart. coord. in units of alat)
               a(1) = (  11.758272   0.000206   0.000142 )  
               a(2) = (   6.452193   9.829861   0.000142 )  
               a(3) = (   6.452193   3.482914   9.192142 )  

     reciprocal axes: (cart. coord. in units 2 pi/alat)
               b(1) = (  0.085048 -0.055824 -0.038546 )  
               b(2) = ( -0.000001  0.101732 -0.038546 )  
               b(3) = ( -0.000001 -0.000001  0.108790 )  


     PseudoPot. # 1 for In read from file:
     /home/lls34/programs/QuantumExpresso/pseudopotentials/use_pot/In.UPF
     MD5 check sum: b236236d7d320b3bac520569a9051741
     Pseudo is Ultrasoft + core correction, Zval = 13.0
     Generated using "atomic" code by A. Dal Corso  v.5.0.99 svn rev. 10869
     Using radial grid of 1241 points,  6 beta functions with: 
                l(1) =   0
                l(2) =   0
                l(3) =   1
                l(4) =   1
                l(5) =   2
                l(6) =   2
     Q(r) pseudized with 0 coefficients 


     PseudoPot. # 2 for O  read from file:
     /home/lls34/programs/QuantumExpresso/pseudopotentials/use_pot/O.UPF
     MD5 check sum: 3f94a2996a3169367d6eb21d9b593f20
     Pseudo is Projector augmented-wave + core cor, Zval =  6.0
     Generated using "atomic" code by A. Dal Corso  v.5.0.99 svn rev. 10869
     Shape of augmentation charge: BESSEL
     Using radial grid of 1095 points,  4 beta functions with: 
                l(1) =   0
                l(2) =   0
                l(3) =   1
                l(4) =   1
     Q(r) pseudized with 0 coefficients 


     atomic species   valence    mass     pseudopotential
        In1           13.00   114.81800     In( 1.00)
        O1             6.00    15.99900     O ( 1.00)

     Starting magnetic structure 
     atomic species   magnetization
        In1          0.000
        O1           0.000

     No symmetry found



   Cartesian axes

     site n.     atom                  positions (alat units)
         1           In1 tau(   1) = (  10.5706437   5.7060672   3.9399592  )
         2           In1 tau(   2) = (  16.4497798   5.7061700   3.9400302  )
         3           In1 tau(   3) = (  13.7967401  10.6209978   3.9400302  )
         4           In1 tau(   4) = (  19.6758761  10.6211006   3.9401012  )
         5           In1 tau(   5) = (  13.7967401   7.4475242   8.5360304  )
         6           In1 tau(   6) = (  19.6758761   7.4476270   8.5361014  )
         7           In1 tau(   7) = (  17.0228364  12.3624549   8.5361014  )
         8           In1 tau(   8) = (  22.9019725  12.3625577   8.5361724  )
         9           In1 tau(   9) = (   7.9263494   4.2786687   2.9543606  )
        10           In1 tau(  10) = (  13.8054855   4.2787715   2.9544316  )
        11           In1 tau(  11) = (  11.1524457   9.1935993   2.9544316  )
        12           In1 tau(  12) = (  17.0315818   9.1937021   2.9545026  )
        13           In1 tau(  13) = (  11.1524457   6.0201257   7.5504318  )
        14           In1 tau(  14) = (  17.0315818   6.0202285   7.5505028  )
        15           In1 tau(  15) = (  14.3785421  10.9350564   7.5505028  )
        16           In1 tau(  16) = (  20.2576781  10.9351592   7.5505738  )
        17           In1 tau(  17) = (   4.4049794   2.3778219   1.6418526  )
        18           In1 tau(  18) = (  10.2841154   2.3779247   1.6419236  )
        19           In1 tau(  19) = (   7.6310757   7.2927525   1.6419236  )
        20           In1 tau(  20) = (  13.5102117   7.2928553   1.6419946  )
        21           In1 tau(  21) = (   7.6310757   4.1192790   6.2379238  )
        22           In1 tau(  22) = (  13.5102118   4.1193818   6.2379948  )
        23           In1 tau(  23) = (  10.8571720   9.0342096   6.2379948  )
        24           In1 tau(  24) = (  16.7363081   9.0343124   6.2380658  )
        25           In1 tau(  25) = (   1.7606850   0.9504234   0.6562540  )
        26           In1 tau(  26) = (   7.6398211   0.9505262   0.6563250  )
        27           In1 tau(  27) = (   4.9867814   5.8653540   0.6563250  )
        28           In1 tau(  28) = (  10.8659174   5.8654568   0.6563960  )
        29           In1 tau(  29) = (   4.9867814   2.6918805   5.2523252  )
        30           In1 tau(  30) = (  10.8659174   2.6919833   5.2523962  )
        31           In1 tau(  31) = (   8.2128777   7.6068111   5.2523962  )
        32           In1 tau(  32) = (  14.0920138   7.6069139   5.2524672  )
        33           O1  tau(  33) = (   6.0165926   2.3005710   0.2146095  )
        34           O1  tau(  34) = (  11.9015363   2.3095216   0.2146806  )
        35           O1  tau(  35) = (   9.2484966   7.2243494   0.2146806  )
        36           O1  tau(  36) = (  15.1276326   7.2244522   0.2147516  )
        37           O1  tau(  37) = (   9.2484966   4.0508758   4.8106808  )
        38           O1  tau(  38) = (  15.1276326   4.0509787   4.8107518  )
        39           O1  tau(  39) = (  12.4745929   8.9658065   4.8107518  )
        40           O1  tau(  40) = (  18.3537290   8.9659093   4.8108228  )
        41           O1  tau(  41) = (   7.0960206   5.1209440   1.1491243  )
        42           O1  tau(  42) = (  12.9751566   5.1210468   1.1491953  )
        43           O1  tau(  43) = (  10.3221169  10.0358746   1.1491953  )
        44           O1  tau(  44) = (  16.2012530  10.0359774   1.1492663  )
        45           O1  tau(  45) = (  10.3221169   6.8624010   5.7451955  )
        46           O1  tau(  46) = (  16.2012530   6.8625039   5.7452665  )
        47           O1  tau(  47) = (  13.5482133  11.7773317   5.7452665  )
        48           O1  tau(  48) = (  19.4273493  11.7774345   5.7453375  )
        49           O1  tau(  49) = (   8.1748762   2.1808427   2.5126452  )
        50           O1  tau(  50) = (  14.0540123   2.1809455   2.5127162  )
        51           O1  tau(  51) = (  11.4009725   7.0957733   2.5127162  )
        52           O1  tau(  52) = (  17.2801086   7.0958762   2.5127872  )
        53           O1  tau(  53) = (  11.4009725   3.9222998   7.1087164  )
        54           O1  tau(  54) = (  17.2801086   3.9224026   7.1087874  )
        55           O1  tau(  55) = (  14.6270689   8.8372304   7.1087874  )
        56           O1  tau(  56) = (  20.5062049   8.8373332   7.1088584  )
        57           O1  tau(  57) = (   4.1564525   4.4756478   2.0835680  )
        58           O1  tau(  58) = (  10.0355886   4.4757506   2.0836389  )
        59           O1  tau(  59) = (   7.3825489   9.3905785   2.0836389  )
        60           O1  tau(  60) = (  13.2616849   9.3906813   2.0837099  )
        61           O1  tau(  61) = (   7.3825489   6.2171049   6.6796391  )
        62           O1  tau(  62) = (  13.2616849   6.2172077   6.6797101  )
        63           O1  tau(  63) = (  10.6086452  11.1320356   6.6797101  )
        64           O1  tau(  64) = (  16.4877813  11.1321384   6.6797811  )
        65           O1  tau(  65) = (   6.3089285   4.3470718   4.3816035  )
        66           O1  tau(  66) = (  12.1880646   4.3471746   4.3816745  )
        67           O1  tau(  67) = (   9.5350249   9.2620024   4.3816745  )
        68           O1  tau(  68) = (  15.4141609   9.2621052   4.3817455  )
        69           O1  tau(  69) = (   9.5350249   6.0885288   8.9776747  )
        70           O1  tau(  70) = (  15.4141609   6.0886317   8.9777457  )
        71           O1  tau(  71) = (  12.7611212  11.0034595   8.9777457  )
        72           O1  tau(  72) = (  18.6402573  11.0035623   8.9778167  )
        73           O1  tau(  73) = (   5.2353082   1.5355466   3.4470889  )
        74           O1  tau(  74) = (  11.1144442   1.5356494   3.4471599  )
        75           O1  tau(  75) = (   8.4614045   6.4504772   3.4471599  )
        76           O1  tau(  76) = (  14.3405406   6.4505800   3.4472309  )
        77           O1  tau(  77) = (   8.4614045   3.2770037   8.0431601  )
        78           O1  tau(  78) = (  14.3405406   3.2771065   8.0432311  )
        79           O1  tau(  79) = (  11.6875008   8.1919343   8.0432311  )
        80           O1  tau(  80) = (  17.5666369   8.1920371   8.0433021  )

     number of k points=    14  Gaussian smearing, width (Ry)=  0.0073
                       cart. coord. in units 2pi/alat
        k(    1) = (   0.0000000   0.0000000   0.0000000), wk =   0.0370370
        k(    2) = (  -0.0000004  -0.0000002   0.0362633), wk =   0.0740741
        k(    3) = (  -0.0000004   0.0339108  -0.0128485), wk =   0.0740741
        k(    4) = (  -0.0000009   0.0339105   0.0234147), wk =   0.0740741
        k(    5) = (  -0.0000000   0.0339110  -0.0491118), wk =   0.0740741
        k(    6) = (   0.0283493  -0.0186079  -0.0128485), wk =   0.0740741
        k(    7) = (   0.0283489  -0.0186082   0.0234147), wk =   0.0740741
        k(    8) = (   0.0283498  -0.0186077  -0.0491118), wk =   0.0740741
        k(    9) = (   0.0283489   0.0153028  -0.0256970), wk =   0.0740741
        k(   10) = (   0.0283484   0.0153026   0.0105662), wk =   0.0740741
        k(   11) = (   0.0283493   0.0153031  -0.0619603), wk =   0.0740741
        k(   12) = (   0.0283498  -0.0525187  -0.0000000), wk =   0.0740741
        k(   13) = (   0.0283493  -0.0525189   0.0362633), wk =   0.0740741
        k(   14) = (   0.0283502  -0.0525185  -0.0362633), wk =   0.0740741

     Dense  grid:  1435587 G-vectors     FFT dimensions: ( 162, 162, 162)

     Smooth grid:   507593 G-vectors     FFT dimensions: ( 120, 120, 120)

     Estimated max dynamical RAM per process >       1.24 GB

     Estimated total dynamical RAM >      19.91 GB
     Generating pointlists ...
     new r_m :   0.8886 (alat units)  1.6792 (a.u.) for type    1
     new r_m :   0.8886 (alat units)  1.6792 (a.u.) for type    2

     Initial potential from superposition of free atoms

     starting charge  703.88090, renormalised to  704.00000
     Starting wfcs are  480 randomized atomic wfcs
     Checking if some PAW data can be deallocated... 

     total cpu time spent up to now is      315.3 secs

     Self-consistent Calculation

     iteration #  1     ecut=    65.00 Ry     beta= 0.50
     Davidson diagonalization with overlap
     ethr =  1.00E-02,  avg # of iterations =  2.0

     total cpu time spent up to now is      996.5 secs

     total energy              =   -6627.37962018 Ry
     estimated scf accuracy    <      22.66552366 Ry

     total magnetization       =    -0.00 Bohr mag/cell
     absolute magnetization    =     0.08 Bohr mag/cell

     iteration #  2     ecut=    65.00 Ry     beta= 0.50
     Davidson diagonalization with overlap
     ethr =  3.22E-03,  avg # of iterations =  4.0

     total cpu time spent up to now is     1982.1 secs

     total energy              =   -6635.48787366 Ry
     estimated scf accuracy    <       8.36069631 Ry

     total magnetization       =     0.00 Bohr mag/cell
     absolute magnetization    =     0.05 Bohr mag/cell

     iteration #  3     ecut=    65.00 Ry     beta= 0.50
     Davidson diagonalization with overlap
     ethr =  1.19E-03,  avg # of iterations =  2.3

     total cpu time spent up to now is     2762.2 secs

     total energy              =   -6636.77359014 Ry
     estimated scf accuracy    <       0.34027242 Ry

     total magnetization       =     0.00 Bohr mag/cell
     absolute magnetization    =     0.04 Bohr mag/cell

     iteration #  4     ecut=    65.00 Ry     beta= 0.50
     Davidson diagonalization with overlap
     ethr =  4.83E-05,  avg # of iterations =  6.6

     total cpu time spent up to now is     4051.1 secs

     total energy              =   -6636.94787780 Ry
     estimated scf accuracy    <       0.81462545 Ry

     total magnetization       =    -0.00 Bohr mag/cell
     absolute magnetization    =     0.01 Bohr mag/cell

     iteration #  5     ecut=    65.00 Ry     beta= 0.50
     Davidson diagonalization with overlap
     c_bands:  1 eigenvalues not converged
     ethr =  4.83E-05,  avg # of iterations =  3.9

     total cpu time spent up to now is     4903.5 secs

     total energy              =   -6637.00933947 Ry
     estimated scf accuracy    <       0.06890480 Ry

     total magnetization       =     0.00 Bohr mag/cell
     absolute magnetization    =     0.01 Bohr mag/cell

     iteration #  6     ecut=    65.00 Ry     beta= 0.50
     Davidson diagonalization with overlap
     c_bands:  1 eigenvalues not converged
     c_bands:  1 eigenvalues not converged
     c_bands:  2 eigenvalues not converged
     c_bands:  1 eigenvalues not converged
     c_bands:  1 eigenvalues not converged
     ethr =  9.79E-06,  avg # of iterations = 10.3

     total cpu time spent up to now is     6049.5 secs

     total energy              =   -6637.03632579 Ry
     estimated scf accuracy    <       0.00736898 Ry

     total magnetization       =    -0.00 Bohr mag/cell
     absolute magnetization    =     0.01 Bohr mag/cell

     iteration #  7     ecut=    65.00 Ry     beta= 0.50
     Davidson diagonalization with overlap
     c_bands:  2 eigenvalues not converged
     c_bands:  3 eigenvalues not converged
     c_bands:  1 eigenvalues not converged
     c_bands:  2 eigenvalues not converged
     c_bands:  4 eigenvalues not converged
     c_bands:  3 eigenvalues not converged
     ethr =  1.05E-06,  avg # of iterations =  8.1

     total cpu time spent up to now is     6974.7 secs

     total energy              =   -6637.03712333 Ry
     estimated scf accuracy    <       0.00105625 Ry

     total magnetization       =    -0.00 Bohr mag/cell
     absolute magnetization    =     0.00 Bohr mag/cell

     iteration #  8     ecut=    65.00 Ry     beta= 0.50
     Davidson diagonalization with overlap
     c_bands:  2 eigenvalues not converged
     c_bands:  1 eigenvalues not converged
     c_bands:  3 eigenvalues not converged
     c_bands:  3 eigenvalues not converged
     c_bands:  2 eigenvalues not converged
     ethr =  1.50E-07,  avg # of iterations =  7.4

     total cpu time spent up to now is     8012.4 secs

     total energy              =   -6637.03744405 Ry
     estimated scf accuracy    <       0.00003135 Ry

     total magnetization       =     0.00 Bohr mag/cell
     absolute magnetization    =     0.00 Bohr mag/cell

     iteration #  9     ecut=    65.00 Ry     beta= 0.50
     Davidson diagonalization with overlap
     c_bands:  1 eigenvalues not converged
     ethr =  4.45E-09,  avg # of iterations =  6.6

     total cpu time spent up to now is     9443.3 secs

     total energy              =   -6637.03747906 Ry
     estimated scf accuracy    <       0.00000066 Ry

     total magnetization       =    -0.00 Bohr mag/cell
     absolute magnetization    =     0.00 Bohr mag/cell

     iteration # 10     ecut=    65.00 Ry     beta= 0.50
     Davidson diagonalization with overlap
     ethr =  9.31E-11,  avg # of iterations =  6.3

     total cpu time spent up to now is    11097.1 secs

     total energy              =   -6637.03747965 Ry
     estimated scf accuracy    <       0.00000191 Ry

     total magnetization       =     0.00 Bohr mag/cell
     absolute magnetization    =     0.00 Bohr mag/cell

     iteration # 11     ecut=    65.00 Ry     beta= 0.50
     Davidson diagonalization with overlap
     ethr =  9.31E-11,  avg # of iterations =  2.0

     total cpu time spent up to now is    11877.1 secs

     total energy              =   -6637.03747953 Ry
     estimated scf accuracy    <       0.00000056 Ry

     total magnetization       =     0.00 Bohr mag/cell
     absolute magnetization    =     0.00 Bohr mag/cell

     iteration # 12     ecut=    65.00 Ry     beta= 0.50
     Davidson diagonalization with overlap
     ethr =  7.90E-11,  avg # of iterations =  3.5

     Magnetic moment per site:
     atom:    1    charge:    9.3860    magn:   -0.0000    constr:    0.0000
     atom:    2    charge:    9.3860    magn:   -0.0000    constr:    0.0000
     atom:    3    charge:    9.3860    magn:   -0.0000    constr:    0.0000
     atom:    4    charge:    9.3860    magn:   -0.0000    constr:    0.0000
     atom:    5    charge:    9.3857    magn:   -0.0000    constr:    0.0000
     atom:    6    charge:    9.3860    magn:   -0.0000    constr:    0.0000
     atom:    7    charge:    9.3860    magn:   -0.0000    constr:    0.0000
     atom:    8    charge:    9.3860    magn:   -0.0000    constr:    0.0000
     atom:    9    charge:    9.3859    magn:   -0.0000    constr:    0.0000
     atom:   10    charge:    9.3859    magn:   -0.0000    constr:    0.0000
     atom:   11    charge:    9.3859    magn:   -0.0000    constr:    0.0000
     atom:   12    charge:    9.3859    magn:    0.0000    constr:    0.0000
     atom:   13    charge:    9.3859    magn:   -0.0000    constr:    0.0000
     atom:   14    charge:    9.3859    magn:   -0.0000    constr:    0.0000
     atom:   15    charge:    9.3859    magn:   -0.0000    constr:    0.0000
     atom:   16    charge:    9.3859    magn:   -0.0000    constr:    0.0000
     atom:   17    charge:    9.3861    magn:   -0.0000    constr:    0.0000
     atom:   18    charge:    9.3859    magn:   -0.0000    constr:    0.0000
     atom:   19    charge:    9.3859    magn:   -0.0000    constr:    0.0000
     atom:   20    charge:    9.3859    magn:   -0.0000    constr:    0.0000
     atom:   21    charge:    9.3859    magn:   -0.0000    constr:    0.0000
     atom:   22    charge:    9.3859    magn:   -0.0000    constr:    0.0000
     atom:   23    charge:    9.3859    magn:    0.0000    constr:    0.0000
     atom:   24    charge:    9.3859    magn:    0.0000    constr:    0.0000
     atom:   25    charge:    9.3860    magn:   -0.0000    constr:    0.0000
     atom:   26    charge:    9.3861    magn:   -0.0000    constr:    0.0000
     atom:   27    charge:    9.3860    magn:   -0.0000    constr:    0.0000
     atom:   28    charge:    9.3860    magn:   -0.0000    constr:    0.0000
     atom:   29    charge:    9.3860    magn:   -0.0000    constr:    0.0000
     atom:   30    charge:    9.3860    magn:   -0.0000    constr:    0.0000
     atom:   31    charge:    9.3860    magn:   -0.0000    constr:    0.0000
     atom:   32    charge:    9.3860    magn:    0.0000    constr:    0.0000
     atom:   33    charge:    5.7950    magn:   -0.0000    constr:    0.0000
     atom:   34    charge:    5.7948    magn:   -0.0000    constr:    0.0000
     atom:   35    charge:    5.7948    magn:    0.0000    constr:    0.0000
     atom:   36    charge:    5.7948    magn:    0.0000    constr:    0.0000
     atom:   37    charge:    5.7948    magn:    0.0000    constr:    0.0000
     atom:   38    charge:    5.7948    magn:    0.0000    constr:    0.0000
     atom:   39    charge:    5.7948    magn:   -0.0000    constr:    0.0000
     atom:   40    charge:    5.7948    magn:   -0.0000    constr:    0.0000
     atom:   41    charge:    5.7947    magn:    0.0000    constr:    0.0000
     atom:   42    charge:    5.7948    magn:   -0.0000    constr:    0.0000
     atom:   43    charge:    5.7949    magn:    0.0000    constr:    0.0000
     atom:   44    charge:    5.7948    magn:    0.0000    constr:    0.0000
     atom:   45    charge:    5.7948    magn:    0.0000    constr:    0.0000
     atom:   46    charge:    5.7948    magn:    0.0000    constr:    0.0000
     atom:   47    charge:    5.7948    magn:    0.0000    constr:    0.0000
     atom:   48    charge:    5.7948    magn:    0.0000    constr:    0.0000
     atom:   49    charge:    5.7948    magn:   -0.0000    constr:    0.0000
     atom:   50    charge:    5.7948    magn:    0.0000    constr:    0.0000
     atom:   51    charge:    5.7948    magn:   -0.0000    constr:    0.0000
     atom:   52    charge:    5.7948    magn:    0.0000    constr:    0.0000
     atom:   53    charge:    5.7948    magn:   -0.0000    constr:    0.0000
     atom:   54    charge:    5.7948    magn:    0.0000    constr:    0.0000
     atom:   55    charge:    5.7948    magn:   -0.0000    constr:    0.0000
     atom:   56    charge:    5.7948    magn:    0.0000    constr:    0.0000
     atom:   57    charge:    5.7948    magn:    0.0000    constr:    0.0000
     atom:   58    charge:    5.7948    magn:    0.0000    constr:    0.0000
     atom:   59    charge:    5.7948    magn:    0.0000    constr:    0.0000
     atom:   60    charge:    5.7948    magn:    0.0000    constr:    0.0000
     atom:   61    charge:    5.7948    magn:    0.0000    constr:    0.0000
     atom:   62    charge:    5.7947    magn:    0.0000    constr:    0.0000
     atom:   63    charge:    5.7948    magn:   -0.0000    constr:    0.0000
     atom:   64    charge:    5.7948    magn:    0.0000    constr:    0.0000
     atom:   65    charge:    5.7948    magn:   -0.0000    constr:    0.0000
     atom:   66    charge:    5.7948    magn:    0.0000    constr:    0.0000
     atom:   67    charge:    5.7948    magn:    0.0000    constr:    0.0000
     atom:   68    charge:    5.7948    magn:   -0.0000    constr:    0.0000
     atom:   69    charge:    5.7949    magn:    0.0000    constr:    0.0000
     atom:   70    charge:    5.7947    magn:   -0.0000    constr:    0.0000
     atom:   71    charge:    5.7948    magn:    0.0000    constr:    0.0000
     atom:   72    charge:    5.7948    magn:    0.0000    constr:    0.0000
     atom:   73    charge:    5.7948    magn:    0.0000    constr:    0.0000
     atom:   74    charge:    5.7948    magn:    0.0000    constr:    0.0000
     atom:   75    charge:    5.7948    magn:    0.0000    constr:    0.0000
     atom:   76    charge:    5.7948    magn:    0.0000    constr:    0.0000
     atom:   77    charge:    5.7948    magn:    0.0000    constr:    0.0000
     atom:   78    charge:    5.7948    magn:    0.0000    constr:    0.0000
     atom:   79    charge:    5.7947    magn:   -0.0000    constr:    0.0000
     atom:   80    charge:    5.7948    magn:    0.0000    constr:    0.0000

     total cpu time spent up to now is    12715.6 secs

     End of self-consistent calculation

 ------ SPIN UP ------------


          k = 0.0000 0.0000 0.0000 ( 63395 PWs)   bands (ev):

    -9.2334  -8.8485  -8.8483  -8.8480  -8.7284  -8.7279  -8.7275  -8.7273
    -8.7270  -8.7269  -8.7266  -8.7263  -8.6115  -8.6113  -8.6110  -8.4643
    -8.4639  -8.4633  -8.4449  -8.4446  -8.3607  -8.3605  -8.3603  -8.3601
    -8.3599  -8.3597  -8.3496  -8.3495  -8.3494  -8.3493  -8.3319  -8.3318
    -8.3317  -8.3268  -8.3266  -8.3265  -8.3208  -8.3205  -8.3201  -8.3200
    -8.3193  -8.3191  -8.2493  -8.2492  -8.1606  -8.1594  -8.1593  -8.1590
    -4.3162  -4.3161  -4.2846  -4.2843  -4.2841  -4.2674  -4.2671  -4.2669
    -4.2667  -4.2667  -4.2662  -4.2448  -4.2446  -4.2445  -4.2302  -4.2297
    -4.2176  -4.2174  -4.2173  -4.2154  -4.2153  -4.2151  -4.2150  -4.1929
    -4.1867  -4.1865  -4.1864  -4.1821  -4.1820  -4.1777  -4.1775  -4.1774
    -4.1574  -4.1572  -4.1569  -4.1568  -4.1565  -4.1563  -4.1394  -4.1391
    -4.1390  -4.1260  -4.1259  -4.1258  -4.1232  -4.1231  -4.1231  -4.1159
    -4.1157  -4.1153  -4.1151  -4.1150  -4.1147  -4.0956  -4.0953  -4.0948
    -4.0947  -4.0946  -4.0944  -4.0771  -4.0770  -4.0767  -4.0707  -4.0707
    -4.0701  -4.0701  -4.0644  -4.0512  -4.0511  -4.0166  -4.0162  -4.0153
    -4.0151  -4.0149  -4.0147  -4.0145  -4.0142  -3.9759  -3.9758  -3.9663
    -3.9661  -3.9659  -3.9651  -3.9649  -3.9648  -3.9644  -3.9643  -3.9641
    -3.9505  -3.9503  -3.9500  -3.9335  -3.9334  -3.9330  -3.9288  -3.9286
    -3.9284  -3.8888  -3.8887  -3.8883  -3.8882  -3.8760  -3.8760  -3.8742
    -3.8663  -3.8660  -3.8658  -3.8657  -3.8656  -3.8652  -3.8612  -3.8598
    -3.8596  -3.8592  -3.8591  -3.8588  -3.8585  -3.8472  -3.8471  -3.8470
    -3.8318  -3.8316  -3.8315  -3.7937  -3.7932  -3.7931  -3.7838  -3.7832
    -3.7322  -3.7320  -3.7316  -3.6896  -3.6894  -3.6888  -3.6004  -3.6000
    -3.4772  -3.4768  -3.4765  -3.4763  -3.4760  -3.4756  -3.3527  -3.3525
    -3.3520  -3.3515  -3.3176  -3.3174  -3.3173  -3.3052  -3.3049  -3.3044
    -3.3044  -3.3037  -3.3036  -2.9633  -2.9629  -2.8481  -2.8479  -2.8475
     2.6339   3.0036   3.1903   3.1906   3.1908   3.1909   3.1912   3.1920
     3.2102   3.2103   3.2108   3.2877   3.2880   3.7054   3.7057   3.7069
     3.9327   3.9331   3.9334   3.9336   3.9339   3.9347   4.2681   4.2684
     4.4438   4.4442   4.4445   4.4504   4.4509   4.4522   4.5742   4.5751
     4.8969   4.8977   4.8980   4.9688   5.2055   5.3168   5.3168   5.3174
     5.3176   5.3628   5.3630   5.3633   5.3823   5.3827   5.3834   5.4455
     5.4462   5.4467   5.4470   5.4473   5.4481   5.5939   5.5945   5.8027
     5.9245   5.9248   5.9252   5.9254   5.9259   5.9262   5.9336   5.9338
     5.9340   6.0370   6.0371   6.0372   6.2306   6.2316   6.2319   6.2326
     6.2328   6.6546   6.6550   6.6554   6.6557   6.6559   6.6570   7.0640
     7.0643   7.0645   7.0648   7.0667   7.0674   7.0685   7.1520   7.1524
     7.1525   7.1720   7.1722   7.1726   7.1730   7.1731   7.1738   7.1744
     7.1752   7.1756   7.2626   7.2627   7.2636   7.2636   7.2642   7.2650
     7.3066   7.3068   7.3072   7.3692   7.3696   7.3741   7.3743   7.3750
     7.3751   7.3752   7.3759   7.5648   7.5653   7.5656   7.6629   7.7417
     7.7419   7.7420   7.7491   7.7495   7.8551   7.8557   7.8991   7.8993
     7.8995   7.8996   7.9903   7.9906   7.9908   7.9996   7.9997   8.0282
     8.0287   8.0289   8.0292   8.0295   8.0301   8.0425   8.0428   8.0431
     9.0291  12.1669  12.1674  12.6896  12.6912  12.6918  12.6922  12.6929
    12.6938  12.8704  12.8716  12.8730  13.2469  13.2480  13.2487  13.4087
    13.6081  13.6104  13.6107  13.6114

          k =-0.0000-0.0000 0.0363 ( 63469 PWs)   bands (ev):

    -9.1645  -8.9776  -8.8415  -8.8409  -8.8405  -8.8058  -8.8044  -8.8039
    -8.6420  -8.6415  -8.6413  -8.6113  -8.6097  -8.6093  -8.4844  -8.4504
    -8.4496  -8.4448  -8.4360  -8.4306  -8.4117  -8.4105  -8.4048  -8.4014
    -8.3889  -8.3852  -8.3666  -8.3659  -8.3585  -8.3512  -8.3507  -8.3244
    -8.3234  -8.3229  -8.3226  -8.3213  -8.3211  -8.3092  -8.3037  -8.2668
    -8.2637  -8.2520  -8.2513  -8.2477  -8.1904  -8.1866  -8.1856  -8.1851
    -4.2997  -4.2900  -4.2855  -4.2809  -4.2807  -4.2794  -4.2785  -4.2782
    -4.2642  -4.2550  -4.2548  -4.2495  -4.2486  -4.2482  -4.2269  -4.2240
    -4.2230  -4.2225  -4.2155  -4.2154  -4.2103  -4.2070  -4.2007  -4.1982
    -4.1978  -4.1944  -4.1943  -4.1865  -4.1805  -4.1781  -4.1660  -4.1616
    -4.1613  -4.1611  -4.1609  -4.1546  -4.1540  -4.1538  -4.1500  -4.1493
    -4.1466  -4.1437  -4.1435  -4.1415  -4.1370  -4.1219  -4.1217  -4.1183
    -4.1172  -4.1169  -4.1038  -4.1014  -4.1012  -4.0987  -4.0926  -4.0922
    -4.0857  -4.0835  -4.0831  -4.0732  -4.0689  -4.0662  -4.0569  -4.0562
    -4.0466  -4.0431  -4.0370  -4.0316  -4.0275  -4.0270  -4.0268  -4.0224
    -4.0215  -4.0190  -4.0174  -4.0059  -4.0052  -3.9884  -3.9877  -3.9874
    -3.9873  -3.9825  -3.9715  -3.9708  -3.9691  -3.9685  -3.9598  -3.9594
    -3.9539  -3.9530  -3.9441  -3.9438  -3.9377  -3.9315  -3.9268  -3.9242
    -3.9099  -3.9028  -3.9012  -3.9008  -3.9003  -3.8949  -3.8945  -3.8938
    -3.8891  -3.8822  -3.8737  -3.8706  -3.8687  -3.8672  -3.8598  -3.8592
    -3.8585  -3.8583  -3.8448  -3.8444  -3.8402  -3.8399  -3.8310  -3.8228
    -3.8217  -3.8065  -3.8060  -3.7963  -3.7926  -3.7922  -3.7723  -3.7506
    -3.7278  -3.6953  -3.6899  -3.6892  -3.6646  -3.6257  -3.6244  -3.6238
    -3.5958  -3.5859  -3.5695  -3.5691  -3.5598  -3.5424  -3.5075  -3.5069
    -3.3655  -3.3647  -3.3269  -3.3266  -3.2646  -3.2192  -3.1997  -3.1216
    -3.1207  -3.1149  -3.0752  -3.0629  -2.9962  -2.9314  -2.9310  -2.9049
     2.7472   2.9960   3.0026   3.2060   3.2118   3.2157   3.3060   3.3066
     3.3102   3.3107   3.3860   3.3872   3.4964   3.5260   3.5764   3.5775
     3.6355   3.6361   3.8005   3.9353   3.9600   3.9608   3.9641   4.1342
     4.2514   4.2522   4.5251   4.5259   4.6144   4.6245   4.6333   4.6929
     4.7769   4.9846   4.9852   5.0990   5.1105   5.1269   5.1836   5.2840
     5.3112   5.3119   5.3221   5.3227   5.3659   5.3665   5.3950   5.4349
     5.5105   5.6206   5.6208   5.6564   5.6825   5.6897   5.8133   5.8136
     5.8441   5.8469   5.9726   5.9733   5.9738   6.0264   6.0267   6.1305
     6.1322   6.1636   6.1740   6.2034   6.2255   6.2522   6.2529   6.2653
     6.4163   6.4170   6.4837   6.5313   6.5397   6.5870   6.6423   6.6885
     6.6894   6.7812   6.7822   6.9016   6.9291   6.9375   6.9642   6.9653
     7.0099   7.0499   7.0506   7.1191   7.1194   7.1816   7.2072   7.2076
     7.2295   7.2304   7.2563   7.2588   7.2680   7.3031   7.3062   7.4352
     7.4392   7.4404   7.4733   7.4953   7.5361   7.5595   7.5603   7.5823
     7.5830   7.5835   7.6177   7.6285   7.6307   7.6573   7.6629   7.6640
     7.6742   7.7214   7.7226   7.7230   7.7881   7.7884   7.8023   7.8032
     7.8604   7.8854   7.9123   7.9126   7.9163   7.9177   7.9196   7.9202
     7.9321   7.9619   7.9630   7.9669   8.0120   8.0129   8.0407   8.0897
     9.9490  11.3470  12.1354  12.3787  12.3790  12.4933  12.5368  12.5370
    12.7635  13.2128  13.2138  13.4328  13.4340  13.5787  13.6005  13.6682
    13.6698  13.6735  13.7270  13.7487

          k =-0.0000 0.0339-0.0128 ( 63469 PWs)   bands (ev):

    -9.1645  -8.9776  -8.8416  -8.8408  -8.8405  -8.8058  -8.8043  -8.8040
    -8.6419  -8.6416  -8.6413  -8.6113  -8.6096  -8.6095  -8.4845  -8.4501
    -8.4494  -8.4453  -8.4357  -8.4308  -8.4113  -8.4108  -8.4045  -8.4017
    -8.3890  -8.3852  -8.3667  -8.3661  -8.3584  -8.3512  -8.3509  -8.3244
    -8.3233  -8.3230  -8.3223  -8.3215  -8.3207  -8.3092  -8.3037  -8.2668
    -8.2638  -8.2520  -8.2516  -8.2475  -8.1903  -8.1867  -8.1856  -8.1851
    -4.2998  -4.2898  -4.2855  -4.2809  -4.2807  -4.2796  -4.2783  -4.2782
    -4.2642  -4.2550  -4.2549  -4.2492  -4.2485  -4.2484  -4.2269  -4.2242
    -4.2231  -4.2222  -4.2156  -4.2154  -4.2104  -4.2071  -4.2007  -4.1981
    -4.1979  -4.1945  -4.1943  -4.1866  -4.1804  -4.1782  -4.1659  -4.1616
    -4.1613  -4.1611  -4.1609  -4.1545  -4.1541  -4.1537  -4.1498  -4.1495
    -4.1465  -4.1437  -4.1436  -4.1415  -4.1369  -4.1219  -4.1217  -4.1183
    -4.1172  -4.1168  -4.1038  -4.1014  -4.1011  -4.0987  -4.0925  -4.0924
    -4.0857  -4.0833  -4.0833  -4.0732  -4.0688  -4.0661  -4.0569  -4.0563
    -4.0466  -4.0431  -4.0370  -4.0315  -4.0274  -4.0272  -4.0269  -4.0221
    -4.0218  -4.0190  -4.0175  -4.0057  -4.0054  -3.9882  -3.9879  -3.9874
    -3.9872  -3.9824  -3.9715  -3.9707  -3.9690  -3.9685  -3.9597  -3.9595
    -3.9539  -3.9530  -3.9442  -3.9437  -3.9377  -3.9313  -3.9268  -3.9242
    -3.9099  -3.9028  -3.9011  -3.9007  -3.9005  -3.8948  -3.8944  -3.8941
    -3.8891  -3.8822  -3.8738  -3.8707  -3.8687  -3.8671  -3.8596  -3.8592
    -3.8587  -3.8581  -3.8446  -3.8445  -3.8402  -3.8398  -3.8310  -3.8224
    -3.8221  -3.8063  -3.8061  -3.7963  -3.7929  -3.7919  -3.7723  -3.7504
    -3.7278  -3.6955  -3.6895  -3.6892  -3.6646  -3.6259  -3.6245  -3.6242
    -3.5959  -3.5856  -3.5693  -3.5692  -3.5599  -3.5422  -3.5074  -3.5071
    -3.3652  -3.3650  -3.3267  -3.3267  -3.2648  -3.2192  -3.1997  -3.1212
    -3.1210  -3.1148  -3.0753  -3.0632  -2.9959  -2.9313  -2.9310  -2.9049
     2.7474   2.9958   3.0023   3.2060   3.2119   3.2159   3.3061   3.3065
     3.3104   3.3110   3.3861   3.3866   3.4962   3.5261   3.5764   3.5770
     3.6353   3.6363   3.8014   3.9353   3.9602   3.9611   3.9640   4.1348
     4.2513   4.2520   4.5252   4.5257   4.6144   4.6238   4.6332   4.6923
     4.7767   4.9848   4.9853   5.0988   5.1103   5.1270   5.1833   5.2842
     5.3119   5.3123   5.3222   5.3228   5.3658   5.3661   5.3951   5.4350
     5.5110   5.6208   5.6211   5.6563   5.6828   5.6897   5.8137   5.8138
     5.8437   5.8467   5.9723   5.9728   5.9733   6.0260   6.0266   6.1314
     6.1319   6.1635   6.1738   6.2037   6.2251   6.2521   6.2526   6.2654
     6.4161   6.4166   6.4838   6.5315   6.5403   6.5875   6.6420   6.6889
     6.6897   6.7818   6.7821   6.9019   6.9296   6.9371   6.9647   6.9652
     7.0097   7.0503   7.0506   7.1193   7.1195   7.1814   7.2068   7.2074
     7.2297   7.2300   7.2561   7.2589   7.2676   7.3027   7.3055   7.4353
     7.4394   7.4398   7.4737   7.4958   7.5359   7.5596   7.5599   7.5817
     7.5829   7.5835   7.6184   7.6286   7.6303   7.6576   7.6634   7.6641
     7.6736   7.7221   7.7223   7.7229   7.7882   7.7884   7.8024   7.8032
     7.8605   7.8854   7.9121   7.9123   7.9165   7.9179   7.9194   7.9200
     7.9324   7.9624   7.9626   7.9670   8.0123   8.0128   8.0405   8.0897
     9.9490  11.3469  12.1357  12.3784  12.3792  12.4939  12.5362  12.5373
    12.7631  13.2130  13.2140  13.4327  13.4341  13.5787  13.5998  13.6684
    13.6698  13.6725  13.7265  13.7422

          k =-0.0000 0.0339 0.0234 ( 63470 PWs)   bands (ev):

    -9.1466  -8.9554  -8.8745  -8.8731  -8.8624  -8.8623  -8.7788  -8.7787
    -8.6513  -8.6511  -8.5899  -8.5895  -8.5719  -8.5704  -8.5502  -8.4621
    -8.4555  -8.4551  -8.4377  -8.4372  -8.4251  -8.4232  -8.4219  -8.4062
    -8.3907  -8.3904  -8.3585  -8.3532  -8.3451  -8.3367  -8.3364  -8.3263
    -8.3225  -8.3138  -8.3050  -8.2994  -8.2991  -8.2847  -8.2844  -8.2827
    -8.2717  -8.2713  -8.2622  -8.2359  -8.2136  -8.1988  -8.1986  -8.1921
    -4.3091  -4.2934  -4.2833  -4.2784  -4.2747  -4.2745  -4.2737  -4.2735
    -4.2710  -4.2511  -4.2510  -4.2486  -4.2485  -4.2376  -4.2350  -4.2305
    -4.2255  -4.2160  -4.2129  -4.2111  -4.2108  -4.2062  -4.2020  -4.2017
    -4.1993  -4.1864  -4.1822  -4.1818  -4.1815  -4.1779  -4.1758  -4.1710
    -4.1689  -4.1686  -4.1663  -4.1578  -4.1576  -4.1481  -4.1475  -4.1473
    -4.1464  -4.1462  -4.1433  -4.1428  -4.1314  -4.1274  -4.1189  -4.1187
    -4.1146  -4.1060  -4.1058  -4.1009  -4.0994  -4.0990  -4.0970  -4.0965
    -4.0818  -4.0811  -4.0808  -4.0806  -4.0802  -4.0764  -4.0623  -4.0515
    -4.0480  -4.0349  -4.0340  -4.0327  -4.0325  -4.0303  -4.0191  -4.0144
    -4.0051  -4.0045  -4.0044  -4.0012  -4.0009  -3.9920  -3.9915  -3.9792
    -3.9789  -3.9784  -3.9775  -3.9742  -3.9739  -3.9719  -3.9598  -3.9595
    -3.9592  -3.9583  -3.9581  -3.9418  -3.9412  -3.9364  -3.9305  -3.9277
    -3.9195  -3.9080  -3.9033  -3.9024  -3.9022  -3.9008  -3.9006  -3.8904
    -3.8874  -3.8768  -3.8689  -3.8679  -3.8600  -3.8592  -3.8554  -3.8553
    -3.8525  -3.8522  -3.8487  -3.8473  -3.8469  -3.8456  -3.8454  -3.8130
    -3.8049  -3.8047  -3.7887  -3.7856  -3.7849  -3.7658  -3.7656  -3.7556
    -3.7461  -3.7457  -3.7177  -3.7172  -3.6905  -3.6738  -3.6706  -3.6511
    -3.6400  -3.6399  -3.5536  -3.5205  -3.5199  -3.5051  -3.4060  -3.4054
    -3.3810  -3.3097  -3.3070  -3.3066  -3.2569  -3.2263  -3.2259  -3.2008
    -3.2007  -3.1444  -3.0436  -3.0243  -2.9666  -2.9662  -2.9458  -2.8880
     2.7535   3.0207   3.0734   3.1360   3.1366   3.1632   3.3372   3.3795
     3.3809   3.3810   3.3963   3.3968   3.4050   3.4214   3.5323   3.6184
     3.6187   3.7424   3.7431   3.8945   4.0174   4.0447   4.0590   4.0592
     4.2130   4.2135   4.3994   4.3998   4.5605   4.6214   4.7939   4.8362
     4.9089   4.9396   5.0456   5.0740   5.0743   5.1784   5.1788   5.2222
     5.2244   5.2252   5.2800   5.2803   5.2918   5.3810   5.3814   5.3990
     5.4620   5.5393   5.6532   5.6542   5.7260   5.7405   5.7407   5.7857
     5.7917   5.7929   5.8816   5.9639   6.0605   6.0958   6.0965   6.1511
     6.1648   6.1798   6.2482   6.2525   6.2530   6.4274   6.4286   6.4335
     6.4536   6.4934   6.4942   6.4965   6.5159   6.7032   6.7196   6.7411
     6.7416   6.7919   6.7922   6.8533   6.9542   6.9545   6.9728   6.9777
     6.9811   7.0196   7.0200   7.0477   7.0483   7.0544   7.0804   7.0901
     7.1098   7.2367   7.2371   7.2377   7.2381   7.3046   7.3057   7.3062
     7.3879   7.4025   7.4350   7.4583   7.4588   7.4960   7.5206   7.5210
     7.5564   7.5984   7.6030   7.6261   7.6643   7.6648   7.6821   7.7095
     7.7119   7.7636   7.7660   7.7665   7.8040   7.8062   7.8102   7.8281
     7.8285   7.8991   7.8991   7.9070   7.9134   7.9341   7.9613   7.9614
     7.9743   7.9784   7.9786   7.9968   8.0087   8.0145   8.0573   8.0575
    10.1461  11.7342  11.7908  11.9674  12.0655  12.0663  13.0138  13.0587
    13.0603  13.3161  13.3169  13.3595  13.3608  13.5161  13.5175  13.5824
    13.6417  13.6831  13.6842  13.8720

          k =-0.0000 0.0339-0.0491 ( 63467 PWs)   bands (ev):

    -9.0585  -9.0116  -9.0114  -8.8841  -8.8840  -8.7259  -8.7159  -8.7156
    -8.7147  -8.7144  -8.7016  -8.5715  -8.5711  -8.4937  -8.4933  -8.4567
    -8.4478  -8.4261  -8.4206  -8.4203  -8.4189  -8.4185  -8.4131  -8.4126
    -8.3958  -8.3955  -8.3862  -8.3857  -8.3746  -8.3688  -8.3686  -8.3623
    -8.3106  -8.3102  -8.3046  -8.3040  -8.2990  -8.2607  -8.2600  -8.2589
    -8.2531  -8.2529  -8.2283  -8.2277  -8.2274  -8.2268  -8.2200  -8.2198
    -4.2919  -4.2914  -4.2820  -4.2815  -4.2768  -4.2747  -4.2689  -4.2687
    -4.2675  -4.2559  -4.2529  -4.2527  -4.2413  -4.2412  -4.2312  -4.2308
    -4.2251  -4.2248  -4.2214  -4.2203  -4.2200  -4.2135  -4.2066  -4.2062
    -4.1924  -4.1916  -4.1914  -4.1827  -4.1824  -4.1735  -4.1728  -4.1725
    -4.1631  -4.1627  -4.1606  -4.1572  -4.1569  -4.1566  -4.1533  -4.1532
    -4.1514  -4.1512  -4.1325  -4.1322  -4.1307  -4.1300  -4.1165  -4.1161
    -4.1114  -4.1111  -4.0958  -4.0957  -4.0942  -4.0933  -4.0929  -4.0912
    -4.0908  -4.0838  -4.0668  -4.0664  -4.0611  -4.0607  -4.0586  -4.0515
    -4.0444  -4.0281  -4.0276  -4.0273  -4.0271  -4.0197  -4.0193  -4.0116
    -4.0091  -4.0056  -4.0054  -4.0037  -4.0033  -4.0026  -3.9998  -3.9996
    -3.9854  -3.9843  -3.9841  -3.9810  -3.9744  -3.9742  -3.9647  -3.9645
    -3.9630  -3.9537  -3.9534  -3.9519  -3.9401  -3.9401  -3.9389  -3.9385
    -3.9254  -3.9250  -3.9213  -3.9210  -3.9188  -3.8878  -3.8876  -3.8829
    -3.8811  -3.8809  -3.8711  -3.8705  -3.8565  -3.8559  -3.8526  -3.8526
    -3.8475  -3.8472  -3.8384  -3.8351  -3.8343  -3.8338  -3.8306  -3.8302
    -3.7855  -3.7820  -3.7815  -3.7775  -3.7771  -3.7758  -3.7587  -3.7584
    -3.7427  -3.7422  -3.7167  -3.7161  -3.6882  -3.6797  -3.6796  -3.6601
    -3.6228  -3.6220  -3.6046  -3.6035  -3.5804  -3.4897  -3.4523  -3.4521
    -3.3609  -3.3603  -3.2767  -3.2507  -3.2500  -3.1818  -3.1815  -3.1484
    -3.1223  -3.0998  -3.0656  -3.0653  -2.9737  -2.9734  -2.9577  -2.9572
     2.9177   3.0073   3.0076   3.0330   3.1877   3.1880   3.2288   3.2290
     3.4648   3.4651   3.4970   3.5515   3.5522   3.5555   3.5564   3.6151
     3.7072   3.7081   3.7304   3.7311   3.7720   3.8896   3.9030   3.9034
     3.9323   4.2400   4.2408   4.6841   4.7791   4.7794   4.8925   4.8929
     4.9957   4.9962   5.0392   5.0510   5.0514   5.1496   5.1505   5.1774
     5.1778   5.1923   5.2697   5.3513   5.3515   5.3654   5.3663   5.3915
     5.5085   5.6335   5.6345   5.6813   5.6816   5.7590   5.7596   5.7693
     5.7698   5.8103   5.9045   5.9052   5.9470   5.9475   6.1477   6.1641
     6.1785   6.1789   6.2351   6.3373   6.3383   6.4213   6.4218   6.4797
     6.5162   6.5168   6.5176   6.5202   6.5209   6.5538   6.7079   6.7085
     6.7141   6.8683   6.8691   6.8830   6.8837   6.8879   6.8880   6.9181
     6.9184   7.0405   7.0436   7.0511   7.0513   7.1050   7.1058   7.1507
     7.1906   7.2050   7.2060   7.2167   7.2172   7.3506   7.3507   7.3554
     7.3559   7.3611   7.3619   7.3731   7.4123   7.4607   7.4614   7.5700
     7.5777   7.5783   7.6041   7.6044   7.6117   7.6544   7.7039   7.7047
     7.7176   7.7180   7.8211   7.8216   7.8271   7.8274   7.8298   7.8715
     7.8719   7.8807   7.8816   7.8989   7.8990   7.9232   7.9429   7.9446
     7.9449   7.9559   7.9581   7.9585   8.0021   8.0366   8.0366   8.0923
    10.8422  11.1959  11.1965  11.9971  11.9979  12.8892  12.8905  12.9162
    13.0071  13.0080  13.2721  13.2754  13.5473  13.5633  13.5644  13.6403
    13.6420  13.6767  13.6775  13.8512

          k = 0.0283-0.0186-0.0128 ( 63469 PWs)   bands (ev):

    -9.1645  -8.9776  -8.8416  -8.8408  -8.8406  -8.8058  -8.8042  -8.8041
    -8.6420  -8.6416  -8.6412  -8.6114  -8.6096  -8.6093  -8.4844  -8.4502
    -8.4497  -8.4450  -8.4359  -8.4306  -8.4113  -8.4110  -8.4047  -8.4015
    -8.3889  -8.3853  -8.3664  -8.3662  -8.3585  -8.3511  -8.3509  -8.3244
    -8.3233  -8.3228  -8.3225  -8.3214  -8.3210  -8.3092  -8.3038  -8.2669
    -8.2638  -8.2519  -8.2516  -8.2476  -8.1904  -8.1867  -8.1854  -8.1852
    -4.2998  -4.2899  -4.2856  -4.2808  -4.2807  -4.2796  -4.2783  -4.2782
    -4.2642  -4.2550  -4.2548  -4.2492  -4.2486  -4.2484  -4.2268  -4.2240
    -4.2230  -4.2224  -4.2157  -4.2154  -4.2104  -4.2071  -4.2008  -4.1981
    -4.1979  -4.1945  -4.1942  -4.1865  -4.1804  -4.1782  -4.1660  -4.1616
    -4.1614  -4.1610  -4.1609  -4.1547  -4.1540  -4.1538  -4.1498  -4.1495
    -4.1465  -4.1437  -4.1436  -4.1414  -4.1369  -4.1219  -4.1218  -4.1183
    -4.1173  -4.1168  -4.1038  -4.1014  -4.1012  -4.0988  -4.0926  -4.0923
    -4.0857  -4.0834  -4.0832  -4.0732  -4.0689  -4.0662  -4.0567  -4.0562
    -4.0466  -4.0431  -4.0370  -4.0316  -4.0273  -4.0272  -4.0270  -4.0222
    -4.0218  -4.0190  -4.0175  -4.0057  -4.0053  -3.9882  -3.9880  -3.9875
    -3.9872  -3.9825  -3.9715  -3.9707  -3.9690  -3.9686  -3.9598  -3.9595
    -3.9539  -3.9530  -3.9443  -3.9437  -3.9376  -3.9314  -3.9268  -3.9242
    -3.9099  -3.9028  -3.9013  -3.9007  -3.9003  -3.8947  -3.8944  -3.8941
    -3.8891  -3.8822  -3.8737  -3.8706  -3.8687  -3.8672  -3.8595  -3.8593
    -3.8587  -3.8582  -3.8447  -3.8445  -3.8403  -3.8397  -3.8310  -3.8224
    -3.8221  -3.8063  -3.8061  -3.7963  -3.7925  -3.7923  -3.7723  -3.7505
    -3.7279  -3.6955  -3.6895  -3.6893  -3.6645  -3.6258  -3.6245  -3.6241
    -3.5957  -3.5857  -3.5695  -3.5693  -3.5600  -3.5422  -3.5075  -3.5070
    -3.3653  -3.3650  -3.3269  -3.3266  -3.2647  -3.2191  -3.1997  -3.1212
    -3.1211  -3.1148  -3.0753  -3.0630  -2.9961  -2.9313  -2.9310  -2.9051
     2.7473   2.9958   3.0026   3.2065   3.2121   3.2154   3.3060   3.3062
     3.3103   3.3110   3.3862   3.3864   3.4963   3.5258   3.5764   3.5773
     3.6356   3.6360   3.8008   3.9352   3.9602   3.9606   3.9639   4.1344
     4.2517   4.2522   4.5255   4.5259   4.6147   4.6243   4.6331   4.6927
     4.7768   4.9850   4.9852   5.0988   5.1103   5.1268   5.1835   5.2841
     5.3117   5.3119   5.3224   5.3226   5.3661   5.3665   5.3952   5.4349
     5.5103   5.6206   5.6208   5.6565   5.6825   5.6900   5.8134   5.8138
     5.8441   5.8470   5.9728   5.9730   5.9736   6.0262   6.0268   6.1309
     6.1317   6.1634   6.1739   6.2034   6.2255   6.2519   6.2525   6.2654
     6.4159   6.4166   6.4834   6.5312   6.5402   6.5871   6.6425   6.6887
     6.6890   6.7815   6.7818   6.9014   6.9294   6.9375   6.9647   6.9649
     7.0097   7.0501   7.0510   7.1190   7.1195   7.1817   7.2070   7.2076
     7.2298   7.2306   7.2559   7.2591   7.2675   7.3030   7.3058   7.4355
     7.4396   7.4398   7.4737   7.4955   7.5359   7.5596   7.5599   7.5821
     7.5831   7.5836   7.6182   7.6286   7.6303   7.6575   7.6635   7.6637
     7.6739   7.7220   7.7223   7.7229   7.7882   7.7884   7.8026   7.8030
     7.8605   7.8854   7.9122   7.9125   7.9167   7.9177   7.9197   7.9199
     7.9323   7.9624   7.9625   7.9670   8.0123   8.0128   8.0405   8.0897
     9.9490  11.3470  12.1355  12.3780  12.3792  12.4936  12.5359  12.5373
    12.7634  13.2128  13.2141  13.4328  13.4344  13.5781  13.6002  13.6689
    13.6704  13.7265  13.7418  13.7424

          k = 0.0283-0.0186 0.0234 ( 63470 PWs)   bands (ev):

    -9.1466  -8.9554  -8.8746  -8.8732  -8.8625  -8.8622  -8.7789  -8.7785
    -8.6513  -8.6510  -8.5898  -8.5896  -8.5720  -8.5704  -8.5500  -8.4618
    -8.4555  -8.4548  -8.4382  -8.4372  -8.4254  -8.4235  -8.4219  -8.4063
    -8.3907  -8.3902  -8.3584  -8.3530  -8.3452  -8.3364  -8.3363  -8.3264
    -8.3222  -8.3136  -8.3050  -8.2994  -8.2991  -8.2848  -8.2844  -8.2829
    -8.2717  -8.2712  -8.2622  -8.2359  -8.2137  -8.1990  -8.1986  -8.1921
    -4.3091  -4.2933  -4.2833  -4.2784  -4.2748  -4.2746  -4.2736  -4.2734
    -4.2711  -4.2512  -4.2510  -4.2485  -4.2484  -4.2375  -4.2350  -4.2305
    -4.2254  -4.2160  -4.2128  -4.2111  -4.2109  -4.2063  -4.2020  -4.2018
    -4.1993  -4.1865  -4.1822  -4.1818  -4.1816  -4.1779  -4.1757  -4.1708
    -4.1690  -4.1687  -4.1662  -4.1579  -4.1577  -4.1481  -4.1475  -4.1474
    -4.1464  -4.1462  -4.1431  -4.1428  -4.1314  -4.1274  -4.1188  -4.1187
    -4.1147  -4.1060  -4.1058  -4.1009  -4.0992  -4.0990  -4.0971  -4.0966
    -4.0818  -4.0812  -4.0808  -4.0806  -4.0802  -4.0763  -4.0623  -4.0515
    -4.0482  -4.0349  -4.0339  -4.0327  -4.0325  -4.0304  -4.0190  -4.0143
    -4.0051  -4.0045  -4.0044  -4.0012  -4.0009  -3.9920  -3.9915  -3.9794
    -3.9789  -3.9782  -3.9775  -3.9742  -3.9739  -3.9720  -3.9598  -3.9596
    -3.9591  -3.9583  -3.9581  -3.9417  -3.9412  -3.9363  -3.9305  -3.9277
    -3.9195  -3.9081  -3.9031  -3.9027  -3.9022  -3.9008  -3.9006  -3.8904
    -3.8874  -3.8768  -3.8689  -3.8679  -3.8600  -3.8591  -3.8555  -3.8553
    -3.8524  -3.8522  -3.8486  -3.8473  -3.8469  -3.8456  -3.8454  -3.8130
    -3.8049  -3.8048  -3.7887  -3.7856  -3.7849  -3.7659  -3.7657  -3.7556
    -3.7460  -3.7458  -3.7176  -3.7174  -3.6904  -3.6738  -3.6705  -3.6512
    -3.6402  -3.6399  -3.5538  -3.5206  -3.5198  -3.5052  -3.4056  -3.4053
    -3.3810  -3.3097  -3.3069  -3.3066  -3.2569  -3.2263  -3.2259  -3.2009
    -3.2007  -3.1443  -3.0434  -3.0242  -2.9666  -2.9663  -2.9459  -2.8880
     2.7533   3.0202   3.0735   3.1361   3.1364   3.1635   3.3371   3.3792
     3.3808   3.3814   3.3962   3.3965   3.4054   3.4219   3.5322   3.6183
     3.6197   3.7423   3.7428   3.8942   4.0172   4.0446   4.0589   4.0593
     4.2128   4.2135   4.3988   4.3998   4.5604   4.6218   4.7944   4.8366
     4.9086   4.9402   5.0456   5.0739   5.0742   5.1783   5.1788   5.2224
     5.2243   5.2250   5.2799   5.2804   5.2915   5.3808   5.3817   5.3991
     5.4619   5.5390   5.6539   5.6545   5.7260   5.7406   5.7408   5.7855
     5.7923   5.7930   5.8815   5.9640   6.0603   6.0951   6.0961   6.1508
     6.1646   6.1800   6.2478   6.2526   6.2530   6.4277   6.4282   6.4334
     6.4540   6.4930   6.4938   6.4961   6.5158   6.7030   6.7201   6.7408
     6.7416   6.7918   6.7922   6.8530   6.9543   6.9552   6.9726   6.9778
     6.9806   7.0196   7.0200   7.0477   7.0484   7.0548   7.0803   7.0900
     7.1099   7.2367   7.2372   7.2379   7.2387   7.3050   7.3059   7.3067
     7.3879   7.4027   7.4349   7.4581   7.4588   7.4965   7.5205   7.5210
     7.5562   7.5985   7.6031   7.6260   7.6640   7.6649   7.6816   7.7096
     7.7119   7.7637   7.7659   7.7665   7.8039   7.8063   7.8103   7.8279
     7.8284   7.8990   7.8993   7.9069   7.9136   7.9342   7.9613   7.9614
     7.9741   7.9782   7.9786   7.9968   8.0087   8.0145   8.0573   8.0576
    10.1461  11.7343  11.7906  11.9671  12.0657  12.0664  13.0140  13.0587
    13.0604  13.3157  13.3169  13.3597  13.3604  13.5165  13.5176  13.5832
    13.6418  13.6837  13.6850  13.8732

          k = 0.0283-0.0186-0.0491 ( 63467 PWs)   bands (ev):

    -9.0584  -9.0116  -9.0114  -8.8842  -8.8839  -8.7260  -8.7159  -8.7155
    -8.7147  -8.7145  -8.7015  -8.5715  -8.5712  -8.4935  -8.4931  -8.4570
    -8.4480  -8.4261  -8.4204  -8.4203  -8.4186  -8.4183  -8.4132  -8.4129
    -8.3958  -8.3956  -8.3860  -8.3857  -8.3744  -8.3689  -8.3688  -8.3623
    -8.3106  -8.3099  -8.3045  -8.3043  -8.2991  -8.2607  -8.2601  -8.2589
    -8.2532  -8.2530  -8.2283  -8.2276  -8.2274  -8.2267  -8.2199  -8.2198
    -4.2917  -4.2915  -4.2821  -4.2814  -4.2768  -4.2748  -4.2690  -4.2686
    -4.2674  -4.2559  -4.2527  -4.2527  -4.2413  -4.2412  -4.2311  -4.2308
    -4.2251  -4.2249  -4.2212  -4.2203  -4.2202  -4.2136  -4.2066  -4.2062
    -4.1921  -4.1917  -4.1916  -4.1827  -4.1824  -4.1735  -4.1728  -4.1725
    -4.1631  -4.1627  -4.1607  -4.1572  -4.1569  -4.1567  -4.1533  -4.1531
    -4.1514  -4.1512  -4.1325  -4.1323  -4.1306  -4.1300  -4.1165  -4.1161
    -4.1114  -4.1110  -4.0959  -4.0957  -4.0942  -4.0933  -4.0929  -4.0912
    -4.0908  -4.0837  -4.0668  -4.0664  -4.0609  -4.0608  -4.0586  -4.0515
    -4.0444  -4.0282  -4.0277  -4.0271  -4.0268  -4.0198  -4.0194  -4.0115
    -4.0091  -4.0057  -4.0054  -4.0037  -4.0034  -4.0026  -3.9998  -3.9995
    -3.9852  -3.9844  -3.9842  -3.9811  -3.9744  -3.9742  -3.9647  -3.9646
    -3.9630  -3.9536  -3.9533  -3.9521  -3.9401  -3.9400  -3.9390  -3.9385
    -3.9254  -3.9250  -3.9211  -3.9209  -3.9189  -3.8878  -3.8875  -3.8828
    -3.8811  -3.8810  -3.8711  -3.8705  -3.8564  -3.8559  -3.8527  -3.8525
    -3.8474  -3.8472  -3.8384  -3.8351  -3.8343  -3.8338  -3.8306  -3.8302
    -3.7855  -3.7820  -3.7814  -3.7775  -3.7771  -3.7760  -3.7587  -3.7584
    -3.7426  -3.7423  -3.7167  -3.7162  -3.6883  -3.6797  -3.6795  -3.6602
    -3.6227  -3.6222  -3.6045  -3.6038  -3.5802  -3.4894  -3.4524  -3.4521
    -3.3607  -3.3603  -3.2767  -3.2506  -3.2499  -3.1818  -3.1817  -3.1484
    -3.1222  -3.0997  -3.0656  -3.0654  -2.9737  -2.9735  -2.9577  -2.9571
     2.9175   3.0070   3.0073   3.0330   3.1876   3.1886   3.2290   3.2296
     3.4648   3.4652   3.4970   3.5515   3.5519   3.5555   3.5559   3.6150
     3.7071   3.7078   3.7305   3.7306   3.7724   3.8901   3.9031   3.9037
     3.9319   4.2399   4.2406   4.6839   4.7793   4.7797   4.8929   4.8940
     4.9955   4.9959   5.0393   5.0510   5.0515   5.1497   5.1502   5.1773
     5.1778   5.1921   5.2697   5.3513   5.3514   5.3653   5.3660   5.3916
     5.5086   5.6339   5.6344   5.6809   5.6815   5.7587   5.7593   5.7697
     5.7705   5.8101   5.9043   5.9051   5.9469   5.9478   6.1472   6.1638
     6.1785   6.1787   6.2350   6.3373   6.3380   6.4216   6.4223   6.4800
     6.5165   6.5174   6.5177   6.5203   6.5208   6.5536   6.7075   6.7080
     6.7141   6.8685   6.8687   6.8830   6.8834   6.8876   6.8881   6.9179
     6.9183   7.0401   7.0434   7.0512   7.0515   7.1049   7.1056   7.1509
     7.1910   7.2051   7.2057   7.2166   7.2170   7.3503   7.3510   7.3555
     7.3563   7.3612   7.3617   7.3734   7.4127   7.4609   7.4617   7.5700
     7.5775   7.5781   7.6042   7.6047   7.6121   7.6542   7.7040   7.7045
     7.7178   7.7180   7.8213   7.8216   7.8268   7.8272   7.8296   7.8713
     7.8716   7.8812   7.8814   7.8988   7.8992   7.9234   7.9428   7.9448
     7.9450   7.9559   7.9582   7.9586   8.0019   8.0364   8.0367   8.0922
    10.8423  11.1962  11.1963  11.9964  11.9981  12.8894  12.8906  12.9164
    13.0065  13.0080  13.2719  13.2756  13.5469  13.5632  13.5651  13.6409
    13.6424  13.6767  13.6773  13.8506

          k = 0.0283 0.0153-0.0257 ( 63470 PWs)   bands (ev):

    -9.1466  -8.9555  -8.8745  -8.8731  -8.8625  -8.8621  -8.7790  -8.7785
    -8.6516  -8.6508  -8.5902  -8.5892  -8.5719  -8.5704  -8.5501  -8.4621
    -8.4558  -8.4548  -8.4375  -8.4372  -8.4251  -8.4232  -8.4219  -8.4062
    -8.3909  -8.3902  -8.3585  -8.3531  -8.3453  -8.3375  -8.3355  -8.3263
    -8.3224  -8.3138  -8.3049  -8.2998  -8.2990  -8.2845  -8.2841  -8.2830
    -8.2718  -8.2714  -8.2624  -8.2358  -8.2136  -8.1988  -8.1985  -8.1921
    -4.3092  -4.2934  -4.2832  -4.2784  -4.2751  -4.2741  -4.2738  -4.2735
    -4.2710  -4.2511  -4.2510  -4.2488  -4.2484  -4.2375  -4.2350  -4.2306
    -4.2255  -4.2159  -4.2129  -4.2111  -4.2108  -4.2063  -4.2021  -4.2017
    -4.1992  -4.1865  -4.1823  -4.1820  -4.1813  -4.1778  -4.1758  -4.1709
    -4.1689  -4.1687  -4.1662  -4.1581  -4.1573  -4.1481  -4.1475  -4.1473
    -4.1466  -4.1461  -4.1431  -4.1429  -4.1315  -4.1274  -4.1188  -4.1186
    -4.1147  -4.1060  -4.1058  -4.1010  -4.0994  -4.0989  -4.0970  -4.0966
    -4.0819  -4.0809  -4.0808  -4.0806  -4.0803  -4.0764  -4.0624  -4.0514
    -4.0481  -4.0347  -4.0341  -4.0329  -4.0322  -4.0305  -4.0191  -4.0144
    -4.0052  -4.0048  -4.0039  -4.0012  -4.0008  -3.9920  -3.9915  -3.9792
    -3.9790  -3.9785  -3.9774  -3.9744  -3.9736  -3.9719  -3.9601  -3.9596
    -3.9590  -3.9586  -3.9578  -3.9417  -3.9412  -3.9364  -3.9304  -3.9278
    -3.9195  -3.9081  -3.9033  -3.9025  -3.9021  -3.9009  -3.9005  -3.8904
    -3.8874  -3.8768  -3.8691  -3.8677  -3.8599  -3.8593  -3.8558  -3.8550
    -3.8528  -3.8519  -3.8486  -3.8472  -3.8470  -3.8456  -3.8454  -3.8130
    -3.8051  -3.8046  -3.7887  -3.7857  -3.7848  -3.7662  -3.7652  -3.7555
    -3.7460  -3.7458  -3.7176  -3.7173  -3.6907  -3.6740  -3.6704  -3.6511
    -3.6403  -3.6394  -3.5536  -3.5203  -3.5198  -3.5051  -3.4060  -3.4053
    -3.3808  -3.3097  -3.3077  -3.3063  -3.2570  -3.2262  -3.2260  -3.2010
    -3.2006  -3.1444  -3.0436  -3.0244  -2.9666  -2.9663  -2.9456  -2.8878
     2.7534   3.0203   3.0734   3.1361   3.1366   3.1634   3.3371   3.3794
     3.3809   3.3814   3.3961   3.3970   3.4054   3.4212   3.5321   3.6180
     3.6186   3.7422   3.7432   3.8947   4.0176   4.0448   4.0587   4.0601
     4.2128   4.2140   4.3990   4.3996   4.5603   4.6215   4.7940   4.8364
     4.9090   4.9396   5.0455   5.0736   5.0742   5.1777   5.1789   5.2222
     5.2245   5.2254   5.2796   5.2802   5.2921   5.3808   5.3814   5.3990
     5.4621   5.5395   5.6529   5.6544   5.7258   5.7406   5.7412   5.7855
     5.7918   5.7925   5.8817   5.9641   6.0603   6.0960   6.0969   6.1508
     6.1649   6.1797   6.2481   6.2527   6.2532   6.4278   6.4283   6.4335
     6.4535   6.4934   6.4938   6.4964   6.5165   6.7035   6.7197   6.7409
     6.7420   6.7915   6.7925   6.8531   6.9543   6.9547   6.9726   6.9776
     6.9808   7.0197   7.0200   7.0477   7.0480   7.0547   7.0800   7.0896
     7.1095   7.2360   7.2373   7.2376   7.2378   7.3053   7.3056   7.3068
     7.3880   7.4022   7.4347   7.4582   7.4590   7.4957   7.5204   7.5213
     7.5570   7.5982   7.6031   7.6264   7.6645   7.6648   7.6821   7.7099
     7.7117   7.7635   7.7661   7.7664   7.8039   7.8064   7.8102   7.8282
     7.8288   7.8990   7.8991   7.9070   7.9134   7.9340   7.9611   7.9616
     7.9743   7.9784   7.9786   7.9968   8.0088   8.0145   8.0567   8.0580
    10.1461  11.7340  11.7908  11.9674  12.0659  12.0663  13.0136  13.0595
    13.0600  13.3160  13.3172  13.3596  13.3606  13.5150  13.5173  13.5826
    13.6416  13.6830  13.6846  13.8721

          k = 0.0283 0.0153 0.0106 ( 63420 PWs)   bands (ev):

    -9.1687  -8.9872  -8.8356  -8.8354  -8.8351  -8.7947  -8.7944  -8.7941
    -8.6538  -8.6534  -8.6529  -8.6148  -8.6143  -8.6138  -8.4673  -8.4664
    -8.4659  -8.4527  -8.4381  -8.4373  -8.4367  -8.4324  -8.4321  -8.3978
    -8.3976  -8.3307  -8.3305  -8.3303  -8.3262  -8.3258  -8.3254  -8.3241
    -8.3239  -8.3236  -8.3204  -8.3202  -8.3199  -8.3001  -8.2999  -8.2659
    -8.2655  -8.2652  -8.2630  -8.2628  -8.2407  -8.1892  -8.1890  -8.1887
    -4.3044  -4.3043  -4.2807  -4.2803  -4.2799  -4.2768  -4.2764  -4.2761
    -4.2691  -4.2691  -4.2499  -4.2497  -4.2495  -4.2323  -4.2320  -4.2319
    -4.2284  -4.2282  -4.2279  -4.2164  -4.2100  -4.2098  -4.2097  -4.2050
    -4.1983  -4.1779  -4.1776  -4.1774  -4.1759  -4.1753  -4.1748  -4.1688
    -4.1688  -4.1660  -4.1658  -4.1518  -4.1513  -4.1510  -4.1303  -4.1301
    -4.1298  -4.1291  -4.1219  -4.1216  -4.1213  -4.1151  -4.1147  -4.1146
    -4.1132  -4.1129  -4.1129  -4.1002  -4.1000  -4.0999  -4.0886  -4.0884
    -4.0881  -4.0879  -4.0878  -4.0876  -4.0874  -4.0871  -4.0699  -4.0695
    -4.0484  -4.0480  -4.0478  -4.0458  -4.0454  -4.0235  -4.0232  -4.0166
    -4.0162  -4.0158  -3.9854  -3.9852  -3.9849  -3.9787  -3.9783  -3.9781
    -3.9717  -3.9713  -3.9710  -3.9675  -3.9674  -3.9673  -3.9621  -3.9618
    -3.9519  -3.9515  -3.9511  -3.9386  -3.9381  -3.9377  -3.9350  -3.9348
    -3.9345  -3.9263  -3.9259  -3.9006  -3.9003  -3.9001  -3.8729  -3.8728
    -3.8709  -3.8707  -3.8644  -3.8642  -3.8639  -3.8608  -3.8605  -3.8602
    -3.8551  -3.8548  -3.8547  -3.8524  -3.8415  -3.8412  -3.8410  -3.8225
    -3.8207  -3.8103  -3.8099  -3.8093  -3.8006  -3.8003  -3.8001  -3.7747
    -3.7360  -3.7357  -3.7351  -3.7022  -3.7020  -3.7017  -3.6384  -3.6381
    -3.6378  -3.5757  -3.5752  -3.4954  -3.4948  -3.4780  -3.4776  -3.4772
    -3.3161  -3.3158  -3.3155  -3.2977  -3.2975  -3.2973  -3.1739  -3.1733
    -3.1058  -3.1055  -3.1050  -3.0228  -3.0223  -2.9197  -2.9195  -2.9190
     2.7075   2.9286   3.0635   3.0638   3.0640   3.1332   3.1333   3.1338
     3.1996   3.5456   3.5461   3.5467   3.7230   3.7233   3.7244   3.7496
     3.7807   3.7843   3.7847   3.7856   4.0303   4.0308   4.0316   4.1874
     4.1882   4.1884   4.3937   4.3938   4.3947   4.4688   4.4692   4.4694
     4.7604   4.7606   4.9924   4.9929   4.9934   5.2060   5.2066   5.2072
     5.3958   5.3959   5.3963   5.4845   5.4852   5.4856   5.5209   5.5536
     5.5539   5.5544   5.6270   5.6276   5.6276   5.6741   5.7301   5.7307
     5.8361   5.8365   5.8727   6.0523   6.1040   6.1043   6.1048   6.1988
     6.1994   6.1998   6.2585   6.2593   6.2600   6.2922   6.3482   6.3489
     6.3494   6.3763   6.3773   6.3776   6.6610   6.6616   6.7684   6.7690
     6.7696   6.8730   6.8735   6.8740   6.8996   6.9001   6.9009   6.9151
     6.9154   6.9158   6.9165   6.9446   6.9451   6.9455   7.0230   7.0235
     7.1767   7.1768   7.1775   7.2149   7.2154   7.2160   7.4039   7.4042
     7.4047   7.4830   7.4831   7.4836   7.5353   7.5357   7.5362   7.5714
     7.5717   7.6976   7.6981   7.6987   7.7091   7.7095   7.7628   7.7636
     7.7640   7.7658   7.7660   7.7662   7.8228   7.8233   7.8602   7.8604
     7.8606   7.9159   7.9160   7.9351   7.9354   7.9361   7.9631   7.9637
     7.9643   7.9798   7.9800   7.9909   7.9913   7.9918   7.9970   7.9972
     9.8431  11.0583  12.5567  12.5575  12.5581  12.6952  12.6963  12.6969
    12.9595  13.1306  13.1317  13.1322  13.3426  13.3441  13.3451  13.3876
    13.3885  13.7300  13.7315  13.7319

          k = 0.0283 0.0153-0.0620 ( 63467 PWs)   bands (ev):

    -9.0663  -9.0169  -9.0070  -8.8744  -8.8740  -8.7287  -8.7247  -8.7236
    -8.7052  -8.7044  -8.7006  -8.5827  -8.5818  -8.4929  -8.4897  -8.4552
    -8.4495  -8.4481  -8.4468  -8.4461  -8.4369  -8.4289  -8.4194  -8.3855
    -8.3843  -8.3694  -8.3683  -8.3660  -8.3621  -8.3578  -8.3569  -8.3345
    -8.3343  -8.3101  -8.2989  -8.2901  -8.2893  -8.2725  -8.2715  -8.2565
    -8.2435  -8.2422  -8.2408  -8.2382  -8.2362  -8.2340  -8.2285  -8.2281
    -4.3001  -4.2987  -4.2789  -4.2782  -4.2779  -4.2778  -4.2749  -4.2728
    -4.2575  -4.2520  -4.2442  -4.2405  -4.2402  -4.2394  -4.2390  -4.2316
    -4.2299  -4.2246  -4.2237  -4.2202  -4.2197  -4.2195  -4.2161  -4.2099
    -4.1907  -4.1904  -4.1896  -4.1761  -4.1759  -4.1747  -4.1648  -4.1629
    -4.1609  -4.1606  -4.1576  -4.1571  -4.1568  -4.1509  -4.1500  -4.1496
    -4.1451  -4.1403  -4.1321  -4.1320  -4.1289  -4.1192  -4.1189  -4.1167
    -4.1161  -4.1071  -4.1065  -4.1052  -4.1047  -4.0970  -4.0923  -4.0918
    -4.0823  -4.0815  -4.0814  -4.0812  -4.0773  -4.0709  -4.0652  -4.0589
    -4.0563  -4.0559  -4.0440  -4.0277  -4.0272  -4.0205  -4.0162  -4.0116
    -4.0053  -3.9978  -3.9971  -3.9951  -3.9948  -3.9889  -3.9882  -3.9832
    -3.9830  -3.9726  -3.9721  -3.9712  -3.9695  -3.9646  -3.9576  -3.9565
    -3.9534  -3.9504  -3.9495  -3.9490  -3.9455  -3.9396  -3.9393  -3.9357
    -3.9300  -3.9192  -3.9076  -3.9070  -3.8953  -3.8829  -3.8825  -3.8808
    -3.8794  -3.8788  -3.8738  -3.8676  -3.8670  -3.8652  -3.8624  -3.8621
    -3.8596  -3.8506  -3.8469  -3.8465  -3.8407  -3.8393  -3.8387  -3.8151
    -3.8149  -3.8119  -3.8076  -3.7771  -3.7763  -3.7740  -3.7718  -3.7714
    -3.7611  -3.7589  -3.7131  -3.7117  -3.7047  -3.6796  -3.6762  -3.6641
    -3.6632  -3.6270  -3.6266  -3.5201  -3.4949  -3.4944  -3.4399  -3.3728
    -3.3726  -3.3709  -3.3585  -3.3012  -3.2739  -3.1725  -3.1713  -3.1322
    -3.0734  -3.0721  -3.0379  -3.0375  -3.0168  -3.0112  -2.9630  -2.9559
     2.8928   2.8976   2.9268   3.1502   3.1507   3.2124   3.2889   3.2918
     3.3239   3.3243   3.4406   3.4414   3.4782   3.6963   3.7604   3.7613
     3.7829   3.7838   3.8056   3.8060   3.8114   3.8119   3.9039   3.9677
     4.1206   4.1219   4.2784   4.5374   4.5381   4.6902   4.7082   4.7546
     4.8378   4.8954   5.0249   5.0262   5.1395   5.1401   5.1575   5.1795
     5.2346   5.3414   5.3556   5.3564   5.3572   5.3577   5.4517   5.5437
     5.5718   5.5966   5.6045   5.6051   5.6424   5.6430   5.6736   5.6891
     5.8746   6.0066   6.1151   6.1175   6.1260   6.1268   6.1389   6.1404
     6.2701   6.3099   6.3106   6.3107   6.3115   6.3338   6.3508   6.3601
     6.4012   6.4885   6.5118   6.5122   6.5423   6.6180   6.6624   6.6646
     6.6660   6.6927   6.7217   6.7223   6.8108   6.8396   6.8880   6.8892
     6.9153   6.9158   6.9184   6.9876   6.9887   7.0089   7.0708   7.1411
     7.1757   7.1760   7.2613   7.2627   7.2656   7.3316   7.3483   7.3562
     7.4129   7.4153   7.4165   7.5417   7.5453   7.5460   7.5785   7.5825
     7.6135   7.6200   7.6713   7.6726   7.6787   7.6988   7.7014   7.7263
     7.7274   7.7910   7.7918   7.7942   7.8200   7.8263   7.8429   7.8499
     7.8504   7.8516   7.8521   7.9155   7.9344   7.9373   7.9386   7.9407
     7.9430   7.9442   7.9492   7.9533   7.9549   7.9552   7.9967   8.0489
    10.7288  11.0811  11.2604  12.1414  12.1417  12.8163  12.9614  12.9619
    13.2335  13.2705  13.2718  13.3685  13.3694  13.4094  13.4473  13.4480
    13.5111  13.7205  13.7224  13.7922

          k = 0.0283-0.0525-0.0000 ( 63467 PWs)   bands (ev):

    -9.0585  -9.0120  -9.0110  -8.8842  -8.8838  -8.7258  -8.7162  -8.7156
    -8.7145  -8.7144  -8.7016  -8.5715  -8.5711  -8.4940  -8.4929  -8.4566
    -8.4477  -8.4262  -8.4209  -8.4204  -8.4186  -8.4184  -8.4131  -8.4128
    -8.3960  -8.3955  -8.3860  -8.3857  -8.3746  -8.3692  -8.3684  -8.3623
    -8.3105  -8.3103  -8.3047  -8.3038  -8.2993  -8.2608  -8.2598  -8.2591
    -8.2530  -8.2528  -8.2281  -8.2280  -8.2277  -8.2267  -8.2206  -8.2190
    -4.2922  -4.2912  -4.2817  -4.2816  -4.2769  -4.2746  -4.2689  -4.2687
    -4.2675  -4.2559  -4.2529  -4.2527  -4.2415  -4.2410  -4.2311  -4.2309
    -4.2250  -4.2249  -4.2213  -4.2205  -4.2201  -4.2136  -4.2067  -4.2062
    -4.1922  -4.1918  -4.1914  -4.1827  -4.1824  -4.1734  -4.1727  -4.1725
    -4.1630  -4.1628  -4.1606  -4.1571  -4.1569  -4.1567  -4.1534  -4.1531
    -4.1514  -4.1512  -4.1325  -4.1323  -4.1307  -4.1300  -4.1164  -4.1162
    -4.1114  -4.1110  -4.0959  -4.0957  -4.0943  -4.0933  -4.0928  -4.0912
    -4.0908  -4.0838  -4.0667  -4.0665  -4.0614  -4.0605  -4.0586  -4.0515
    -4.0443  -4.0283  -4.0276  -4.0273  -4.0269  -4.0197  -4.0192  -4.0115
    -4.0091  -4.0056  -4.0054  -4.0037  -4.0034  -4.0026  -3.9998  -3.9996
    -3.9853  -3.9845  -3.9839  -3.9810  -3.9744  -3.9742  -3.9647  -3.9646
    -3.9630  -3.9538  -3.9532  -3.9520  -3.9403  -3.9399  -3.9388  -3.9386
    -3.9253  -3.9250  -3.9213  -3.9208  -3.9189  -3.8878  -3.8875  -3.8829
    -3.8811  -3.8809  -3.8709  -3.8707  -3.8566  -3.8558  -3.8529  -3.8523
    -3.8475  -3.8472  -3.8384  -3.8351  -3.8343  -3.8338  -3.8305  -3.8303
    -3.7855  -3.7817  -3.7816  -3.7775  -3.7771  -3.7756  -3.7587  -3.7585
    -3.7428  -3.7422  -3.7165  -3.7162  -3.6881  -3.6800  -3.6795  -3.6600
    -3.6227  -3.6221  -3.6042  -3.6040  -3.5805  -3.4899  -3.4524  -3.4517
    -3.3613  -3.3598  -3.2767  -3.2504  -3.2504  -3.1819  -3.1815  -3.1484
    -3.1222  -3.0999  -3.0656  -3.0652  -2.9739  -2.9729  -2.9577  -2.9574
     2.9178   3.0070   3.0076   3.0328   3.1873   3.1882   3.2289   3.2293
     3.4649   3.4653   3.4972   3.5515   3.5523   3.5555   3.5563   3.6148
     3.7072   3.7082   3.7304   3.7311   3.7718   3.8896   3.9031   3.9040
     3.9317   4.2398   4.2411   4.6840   4.7789   4.7798   4.8926   4.8928
     4.9959   4.9963   5.0394   5.0508   5.0514   5.1498   5.1504   5.1771
     5.1778   5.1923   5.2696   5.3510   5.3513   5.3657   5.3661   5.3916
     5.5088   5.6339   5.6343   5.6812   5.6822   5.7588   5.7592   5.7694
     5.7697   5.8100   5.9045   5.9049   5.9472   5.9478   6.1474   6.1642
     6.1783   6.1794   6.2356   6.3374   6.3380   6.4210   6.4214   6.4795
     6.5161   6.5170   6.5175   6.5204   6.5208   6.5541   6.7076   6.7086
     6.7140   6.8680   6.8694   6.8830   6.8839   6.8878   6.8883   6.9178
     6.9182   7.0410   7.0440   7.0509   7.0517   7.1050   7.1055   7.1510
     7.1906   7.2048   7.2054   7.2168   7.2176   7.3500   7.3508   7.3556
     7.3559   7.3612   7.3615   7.3727   7.4126   7.4603   7.4613   7.5701
     7.5775   7.5785   7.6040   7.6043   7.6118   7.6543   7.7042   7.7042
     7.7171   7.7185   7.8209   7.8219   7.8271   7.8274   7.8295   7.8718
     7.8719   7.8808   7.8819   7.8990   7.8992   7.9234   7.9430   7.9447
     7.9450   7.9558   7.9581   7.9586   8.0019   8.0364   8.0368   8.0922
    10.8423  11.1952  11.1970  11.9973  11.9977  12.8894  12.8906  12.9162
    13.0069  13.0081  13.2721  13.2752  13.5471  13.5633  13.5644  13.6405
    13.6426  13.6756  13.6782  13.8508

          k = 0.0283-0.0525 0.0363 ( 63467 PWs)   bands (ev):

    -9.0663  -9.0168  -9.0071  -8.8744  -8.8740  -8.7288  -8.7242  -8.7239
    -8.7050  -8.7047  -8.7007  -8.5824  -8.5823  -8.4928  -8.4896  -8.4556
    -8.4489  -8.4485  -8.4470  -8.4460  -8.4371  -8.4290  -8.4193  -8.3849
    -8.3846  -8.3694  -8.3682  -8.3661  -8.3618  -8.3575  -8.3574  -8.3348
    -8.3344  -8.3101  -8.2986  -8.2898  -8.2893  -8.2725  -8.2721  -8.2566
    -8.2432  -8.2429  -8.2407  -8.2378  -8.2367  -8.2339  -8.2284  -8.2281
    -4.3001  -4.2988  -4.2786  -4.2785  -4.2780  -4.2778  -4.2750  -4.2727
    -4.2575  -4.2519  -4.2441  -4.2405  -4.2403  -4.2392  -4.2391  -4.2316
    -4.2298  -4.2243  -4.2242  -4.2200  -4.2199  -4.2196  -4.2161  -4.2099
    -4.1908  -4.1903  -4.1896  -4.1760  -4.1758  -4.1746  -4.1649  -4.1629
    -4.1608  -4.1608  -4.1574  -4.1571  -4.1569  -4.1506  -4.1504  -4.1496
    -4.1451  -4.1403  -4.1322  -4.1319  -4.1289  -4.1193  -4.1189  -4.1166
    -4.1163  -4.1071  -4.1066  -4.1050  -4.1047  -4.0970  -4.0923  -4.0918
    -4.0823  -4.0817  -4.0814  -4.0811  -4.0772  -4.0709  -4.0653  -4.0589
    -4.0565  -4.0557  -4.0440  -4.0276  -4.0274  -4.0205  -4.0162  -4.0116
    -4.0052  -3.9975  -3.9973  -3.9950  -3.9949  -3.9887  -3.9884  -3.9832
    -3.9829  -3.9727  -3.9717  -3.9716  -3.9695  -3.9644  -3.9575  -3.9565
    -3.9535  -3.9502  -3.9495  -3.9491  -3.9454  -3.9396  -3.9394  -3.9358
    -3.9300  -3.9193  -3.9076  -3.9071  -3.8953  -3.8830  -3.8824  -3.8808
    -3.8792  -3.8791  -3.8738  -3.8675  -3.8672  -3.8652  -3.8623  -3.8620
    -3.8595  -3.8506  -3.8467  -3.8466  -3.8407  -3.8391  -3.8389  -3.8151
    -3.8149  -3.8119  -3.8076  -3.7768  -3.7767  -3.7740  -3.7716  -3.7714
    -3.7610  -3.7589  -3.7130  -3.7119  -3.7046  -3.6798  -3.6760  -3.6640
    -3.6638  -3.6269  -3.6267  -3.5203  -3.4946  -3.4943  -3.4396  -3.3728
    -3.3724  -3.3711  -3.3584  -3.3012  -3.2741  -3.1720  -3.1719  -3.1323
    -3.0730  -3.0727  -3.0378  -3.0375  -3.0171  -3.0110  -2.9627  -2.9561
     2.8930   2.8974   2.9266   3.1502   3.1506   3.2128   3.2885   3.2919
     3.3240   3.3245   3.4405   3.4409   3.4786   3.6964   3.7604   3.7607
     3.7826   3.7838   3.8054   3.8063   3.8117   3.8133   3.9037   3.9672
     4.1205   4.1210   4.2794   4.5373   4.5382   4.6904   4.7082   4.7540
     4.8376   4.8958   5.0253   5.0258   5.1398   5.1403   5.1569   5.1795
     5.2344   5.3412   5.3560   5.3564   5.3572   5.3579   5.4514   5.5434
     5.5721   5.5966   5.6044   5.6048   5.6429   5.6434   5.6735   5.6893
     5.8754   6.0055   6.1152   6.1174   6.1253   6.1262   6.1398   6.1403
     6.2708   6.3096   6.3105   6.3109   6.3114   6.3335   6.3503   6.3605
     6.4010   6.4887   6.5114   6.5121   6.5422   6.6180   6.6629   6.6650
     6.6655   6.6932   6.7214   6.7220   6.8105   6.8391   6.8885   6.8889
     6.9156   6.9164   6.9181   6.9878   6.9886   7.0091   7.0711   7.1411
     7.1756   7.1760   7.2620   7.2623   7.2658   7.3311   7.3484   7.3563
     7.4122   7.4155   7.4160   7.5419   7.5453   7.5457   7.5786   7.5829
     7.6134   7.6199   7.6719   7.6722   7.6787   7.6992   7.7019   7.7268
     7.7274   7.7908   7.7916   7.7942   7.8202   7.8259   7.8424   7.8497
     7.8504   7.8514   7.8523   7.9154   7.9345   7.9379   7.9381   7.9407
     7.9435   7.9437   7.9493   7.9532   7.9547   7.9551   7.9967   8.0489
    10.7287  11.0813  11.2606  12.1411  12.1418  12.8158  12.9612  12.9620
    13.2342  13.2706  13.2716  13.3678  13.3693  13.4090  13.4468  13.4484
    13.5109  13.7217  13.7227  13.7929

          k = 0.0284-0.0525-0.0363 ( 63467 PWs)   bands (ev):

    -9.0663  -9.0169  -9.0070  -8.8743  -8.8742  -8.7289  -8.7242  -8.7240
    -8.7049  -8.7046  -8.7006  -8.5824  -8.5821  -8.4929  -8.4898  -8.4553
    -8.4489  -8.4487  -8.4466  -8.4464  -8.4368  -8.4289  -8.4193  -8.3848
    -8.3848  -8.3696  -8.3681  -8.3660  -8.3619  -8.3575  -8.3573  -8.3345
    -8.3344  -8.3102  -8.2987  -8.2898  -8.2895  -8.2722  -8.2721  -8.2566
    -8.2430  -8.2429  -8.2407  -8.2379  -8.2366  -8.2340  -8.2284  -8.2281
    -4.3001  -4.2988  -4.2785  -4.2784  -4.2780  -4.2778  -4.2750  -4.2728
    -4.2575  -4.2520  -4.2442  -4.2405  -4.2402  -4.2392  -4.2392  -4.2316
    -4.2298  -4.2243  -4.2242  -4.2200  -4.2199  -4.2194  -4.2162  -4.2099
    -4.1907  -4.1904  -4.1895  -4.1760  -4.1759  -4.1747  -4.1649  -4.1628
    -4.1609  -4.1607  -4.1574  -4.1571  -4.1570  -4.1506  -4.1503  -4.1496
    -4.1450  -4.1402  -4.1322  -4.1319  -4.1289  -4.1192  -4.1189  -4.1167
    -4.1163  -4.1070  -4.1067  -4.1050  -4.1049  -4.0970  -4.0922  -4.0918
    -4.0824  -4.0816  -4.0814  -4.0811  -4.0772  -4.0709  -4.0651  -4.0589
    -4.0563  -4.0560  -4.0440  -4.0276  -4.0274  -4.0204  -4.0162  -4.0116
    -4.0053  -3.9975  -3.9973  -3.9950  -3.9948  -3.9887  -3.9884  -3.9833
    -3.9829  -3.9727  -3.9718  -3.9715  -3.9694  -3.9645  -3.9576  -3.9565
    -3.9534  -3.9503  -3.9495  -3.9490  -3.9454  -3.9396  -3.9394  -3.9357
    -3.9301  -3.9192  -3.9075  -3.9072  -3.8953  -3.8830  -3.8824  -3.8808
    -3.8792  -3.8790  -3.8738  -3.8675  -3.8672  -3.8653  -3.8624  -3.8620
    -3.8596  -3.8506  -3.8467  -3.8467  -3.8407  -3.8390  -3.8389  -3.8151
    -3.8148  -3.8119  -3.8076  -3.7768  -3.7766  -3.7739  -3.7717  -3.7715
    -3.7610  -3.7589  -3.7130  -3.7119  -3.7046  -3.6798  -3.6761  -3.6639
    -3.6636  -3.6270  -3.6266  -3.5202  -3.4947  -3.4944  -3.4397  -3.3731
    -3.3725  -3.3708  -3.3585  -3.3012  -3.2739  -3.1720  -3.1719  -3.1320
    -3.0729  -3.0726  -3.0378  -3.0375  -3.0170  -3.0113  -2.9628  -2.9560
     2.8927   2.8977   2.9269   3.1502   3.1505   3.2124   3.2887   3.2922
     3.3239   3.3243   3.4405   3.4414   3.4784   3.6960   3.7603   3.7608
     3.7828   3.7838   3.8057   3.8063   3.8117   3.8122   3.9037   3.9676
     4.1208   4.1213   4.2786   4.5379   4.5383   4.6902   4.7082   4.7543
     4.8378   4.8954   5.0255   5.0259   5.1397   5.1401   5.1572   5.1797
     5.2344   5.3413   5.3563   5.3564   5.3572   5.3576   5.4519   5.5432
     5.5718   5.5966   5.6045   5.6047   5.6427   5.6430   5.6736   5.6893
     5.8750   6.0058   6.1152   6.1174   6.1260   6.1266   6.1390   6.1399
     6.2705   6.3097   6.3105   6.3108   6.3118   6.3339   6.3509   6.3601
     6.4013   6.4888   6.5114   6.5118   6.5422   6.6178   6.6627   6.6646
     6.6652   6.6925   6.7217   6.7219   6.8106   6.8392   6.8886   6.8888
     6.9155   6.9157   6.9187   6.9881   6.9889   7.0092   7.0712   7.1409
     7.1756   7.1763   7.2620   7.2623   7.2657   7.3310   7.3485   7.3562
     7.4126   7.4158   7.4161   7.5417   7.5454   7.5458   7.5787   7.5825
     7.6135   7.6201   7.6717   7.6720   7.6788   7.6991   7.7017   7.7268
     7.7269   7.7910   7.7914   7.7943   7.8202   7.8259   7.8428   7.8499
     7.8502   7.8516   7.8521   7.9155   7.9344   7.9379   7.9381   7.9408
     7.9436   7.9438   7.9491   7.9534   7.9548   7.9550   7.9968   8.0489
    10.7289  11.0812  11.2606  12.1408  12.1418  12.8162  12.9606  12.9622
    13.2337  13.2704  13.2718  13.3683  13.3696  13.4093  13.4469  13.4486
    13.5109  13.7210  13.7229  13.7922

 ------ SPIN DOWN ----------


          k = 0.0000 0.0000 0.0000 ( 63395 PWs)   bands (ev):

    -9.2334  -8.8485  -8.8483  -8.8480  -8.7284  -8.7279  -8.7275  -8.7273
    -8.7270  -8.7269  -8.7266  -8.7263  -8.6115  -8.6113  -8.6110  -8.4643
    -8.4639  -8.4633  -8.4449  -8.4446  -8.3607  -8.3605  -8.3603  -8.3601
    -8.3599  -8.3597  -8.3496  -8.3495  -8.3494  -8.3493  -8.3319  -8.3318
    -8.3317  -8.3268  -8.3266  -8.3265  -8.3208  -8.3205  -8.3201  -8.3200
    -8.3193  -8.3191  -8.2493  -8.2492  -8.1606  -8.1594  -8.1593  -8.1590
    -4.3162  -4.3161  -4.2846  -4.2843  -4.2841  -4.2674  -4.2671  -4.2669
    -4.2667  -4.2667  -4.2662  -4.2448  -4.2446  -4.2445  -4.2302  -4.2297
    -4.2176  -4.2174  -4.2173  -4.2154  -4.2153  -4.2151  -4.2150  -4.1929
    -4.1867  -4.1865  -4.1864  -4.1821  -4.1820  -4.1777  -4.1775  -4.1774
    -4.1574  -4.1572  -4.1569  -4.1568  -4.1565  -4.1563  -4.1394  -4.1391
    -4.1390  -4.1260  -4.1259  -4.1258  -4.1232  -4.1231  -4.1231  -4.1159
    -4.1157  -4.1153  -4.1151  -4.1150  -4.1147  -4.0956  -4.0953  -4.0948
    -4.0947  -4.0946  -4.0944  -4.0771  -4.0770  -4.0767  -4.0707  -4.0707
    -4.0701  -4.0701  -4.0644  -4.0512  -4.0511  -4.0166  -4.0162  -4.0153
    -4.0151  -4.0149  -4.0147  -4.0145  -4.0142  -3.9759  -3.9758  -3.9663
    -3.9661  -3.9659  -3.9651  -3.9649  -3.9648  -3.9644  -3.9643  -3.9641
    -3.9505  -3.9503  -3.9500  -3.9335  -3.9334  -3.9330  -3.9288  -3.9286
    -3.9284  -3.8888  -3.8887  -3.8883  -3.8882  -3.8760  -3.8760  -3.8742
    -3.8663  -3.8660  -3.8658  -3.8657  -3.8656  -3.8652  -3.8612  -3.8598
    -3.8596  -3.8592  -3.8591  -3.8588  -3.8585  -3.8472  -3.8471  -3.8470
    -3.8318  -3.8316  -3.8315  -3.7937  -3.7932  -3.7931  -3.7838  -3.7832
    -3.7322  -3.7320  -3.7316  -3.6896  -3.6894  -3.6888  -3.6004  -3.6000
    -3.4772  -3.4768  -3.4765  -3.4763  -3.4760  -3.4756  -3.3527  -3.3525
    -3.3520  -3.3515  -3.3176  -3.3174  -3.3173  -3.3052  -3.3049  -3.3044
    -3.3044  -3.3037  -3.3036  -2.9633  -2.9629  -2.8481  -2.8479  -2.8475
     2.6339   3.0036   3.1903   3.1906   3.1908   3.1909   3.1912   3.1920
     3.2102   3.2103   3.2108   3.2877   3.2880   3.7054   3.7057   3.7069
     3.9327   3.9331   3.9334   3.9336   3.9339   3.9347   4.2681   4.2684
     4.4438   4.4442   4.4445   4.4504   4.4509   4.4522   4.5742   4.5751
     4.8969   4.8977   4.8980   4.9688   5.2055   5.3168   5.3168   5.3174
     5.3177   5.3628   5.3630   5.3633   5.3823   5.3827   5.3834   5.4455
     5.4462   5.4467   5.4470   5.4473   5.4481   5.5939   5.5945   5.8027
     5.9245   5.9248   5.9252   5.9254   5.9259   5.9262   5.9336   5.9338
     5.9340   6.0370   6.0371   6.0372   6.2306   6.2316   6.2319   6.2326
     6.2328   6.6546   6.6550   6.6554   6.6557   6.6559   6.6570   7.0640
     7.0643   7.0645   7.0648   7.0667   7.0674   7.0685   7.1520   7.1524
     7.1525   7.1720   7.1722   7.1726   7.1730   7.1731   7.1738   7.1744
     7.1752   7.1756   7.2626   7.2627   7.2636   7.2636   7.2642   7.2650
     7.3066   7.3068   7.3072   7.3692   7.3696   7.3741   7.3743   7.3750
     7.3751   7.3752   7.3759   7.5648   7.5653   7.5656   7.6629   7.7417
     7.7419   7.7420   7.7491   7.7495   7.8551   7.8557   7.8991   7.8993
     7.8995   7.8996   7.9903   7.9906   7.9908   7.9996   7.9997   8.0282
     8.0287   8.0289   8.0292   8.0295   8.0301   8.0425   8.0428   8.0431
     9.0291  12.1669  12.1674  12.6896  12.6912  12.6918  12.6922  12.6929
    12.6938  12.8704  12.8716  12.8730  13.2469  13.2480  13.2487  13.4085
    13.6071  13.6100  13.6104  13.6108

          k =-0.0000-0.0000 0.0363 ( 63469 PWs)   bands (ev):

    -9.1645  -8.9776  -8.8415  -8.8409  -8.8405  -8.8058  -8.8044  -8.8039
    -8.6420  -8.6415  -8.6413  -8.6113  -8.6097  -8.6093  -8.4844  -8.4504
    -8.4496  -8.4448  -8.4359  -8.4305  -8.4117  -8.4105  -8.4048  -8.4014
    -8.3889  -8.3852  -8.3666  -8.3659  -8.3585  -8.3512  -8.3507  -8.3244
    -8.3234  -8.3229  -8.3226  -8.3213  -8.3211  -8.3092  -8.3037  -8.2668
    -8.2637  -8.2520  -8.2513  -8.2477  -8.1903  -8.1866  -8.1856  -8.1851
    -4.2997  -4.2900  -4.2855  -4.2809  -4.2807  -4.2794  -4.2785  -4.2782
    -4.2642  -4.2550  -4.2548  -4.2495  -4.2486  -4.2482  -4.2269  -4.2240
    -4.2230  -4.2225  -4.2155  -4.2154  -4.2103  -4.2070  -4.2007  -4.1982
    -4.1978  -4.1944  -4.1943  -4.1865  -4.1805  -4.1781  -4.1660  -4.1616
    -4.1613  -4.1611  -4.1609  -4.1546  -4.1540  -4.1538  -4.1500  -4.1493
    -4.1466  -4.1437  -4.1435  -4.1415  -4.1370  -4.1219  -4.1217  -4.1183
    -4.1172  -4.1169  -4.1038  -4.1014  -4.1012  -4.0987  -4.0926  -4.0922
    -4.0857  -4.0835  -4.0831  -4.0732  -4.0689  -4.0662  -4.0569  -4.0562
    -4.0466  -4.0431  -4.0370  -4.0316  -4.0275  -4.0270  -4.0268  -4.0224
    -4.0215  -4.0190  -4.0174  -4.0059  -4.0052  -3.9884  -3.9877  -3.9874
    -3.9873  -3.9825  -3.9715  -3.9708  -3.9691  -3.9685  -3.9598  -3.9594
[...]
    -4.1922  -4.1918  -4.1914  -4.1827  -4.1824  -4.1734  -4.1727  -4.1725
    -4.1630  -4.1628  -4.1606  -4.1571  -4.1569  -4.1567  -4.1534  -4.1531
    -4.1514  -4.1512  -4.1325  -4.1323  -4.1307  -4.1300  -4.1164  -4.1162
    -4.1114  -4.1110  -4.0959  -4.0957  -4.0943  -4.0933  -4.0928  -4.0912
    -4.0908  -4.0838  -4.0667  -4.0665  -4.0614  -4.0605  -4.0586  -4.0515
    -4.0443  -4.0283  -4.0276  -4.0273  -4.0269  -4.0197  -4.0192  -4.0115
    -4.0091  -4.0056  -4.0054  -4.0037  -4.0034  -4.0026  -3.9998  -3.9996
    -3.9853  -3.9845  -3.9839  -3.9810  -3.9744  -3.9742  -3.9647  -3.9646
    -3.9630  -3.9538  -3.9532  -3.9520  -3.9403  -3.9399  -3.9388  -3.9386
    -3.9253  -3.9250  -3.9213  -3.9208  -3.9189  -3.8878  -3.8875  -3.8829
    -3.8811  -3.8809  -3.8709  -3.8707  -3.8566  -3.8558  -3.8529  -3.8523
    -3.8475  -3.8472  -3.8384  -3.8351  -3.8343  -3.8338  -3.8305  -3.8303
    -3.7855  -3.7817  -3.7816  -3.7775  -3.7771  -3.7756  -3.7587  -3.7585
    -3.7428  -3.7422  -3.7165  -3.7162  -3.6881  -3.6800  -3.6795  -3.6600
    -3.6227  -3.6221  -3.6042  -3.6040  -3.5805  -3.4899  -3.4524  -3.4517
    -3.3613  -3.3598  -3.2767  -3.2504  -3.2504  -3.1819  -3.1815  -3.1484
    -3.1222  -3.0999  -3.0656  -3.0652  -2.9739  -2.9729  -2.9577  -2.9574
     2.9178   3.0070   3.0076   3.0328   3.1873   3.1882   3.2289   3.2293
     3.4649   3.4653   3.4972   3.5515   3.5523   3.5555   3.5563   3.6148
     3.7072   3.7082   3.7304   3.7311   3.7718   3.8896   3.9031   3.9040
     3.9317   4.2398   4.2411   4.6840   4.7789   4.7798   4.8926   4.8928
     4.9959   4.9963   5.0394   5.0508   5.0514   5.1498   5.1504   5.1771
     5.1778   5.1923   5.2696   5.3510   5.3513   5.3657   5.3661   5.3916
     5.5088   5.6339   5.6343   5.6812   5.6822   5.7588   5.7592   5.7694
     5.7697   5.8100   5.9045   5.9049   5.9472   5.9478   6.1474   6.1642
     6.1783   6.1794   6.2356   6.3374   6.3380   6.4210   6.4214   6.4795
     6.5161   6.5170   6.5175   6.5204   6.5208   6.5541   6.7076   6.7086
     6.7140   6.8680   6.8694   6.8830   6.8839   6.8878   6.8883   6.9178
     6.9182   7.0410   7.0440   7.0509   7.0517   7.1050   7.1055   7.1510
     7.1906   7.2048   7.2054   7.2168   7.2176   7.3500   7.3508   7.3556
     7.3559   7.3612   7.3615   7.3727   7.4126   7.4603   7.4613   7.5701
     7.5775   7.5785   7.6040   7.6043   7.6118   7.6543   7.7042   7.7042
     7.7172   7.7185   7.8209   7.8219   7.8271   7.8274   7.8295   7.8718
     7.8719   7.8808   7.8819   7.8990   7.8992   7.9234   7.9430   7.9447
     7.9450   7.9558   7.9582   7.9586   8.0019   8.0364   8.0369   8.0922
    10.8423  11.1952  11.1970  11.9973  11.9977  12.8894  12.8906  12.9162
    13.0069  13.0081  13.2721  13.2752  13.5471  13.5631  13.5644  13.6405
    13.6426  13.6756  13.6782  13.8508

          k = 0.0283-0.0525 0.0363 ( 63467 PWs)   bands (ev):

    -9.0663  -9.0168  -9.0071  -8.8744  -8.8740  -8.7288  -8.7242  -8.7239
    -8.7050  -8.7046  -8.7007  -8.5824  -8.5823  -8.4928  -8.4896  -8.4556
    -8.4488  -8.4485  -8.4470  -8.4460  -8.4371  -8.4290  -8.4193  -8.3848
    -8.3846  -8.3694  -8.3682  -8.3661  -8.3618  -8.3574  -8.3573  -8.3348
    -8.3344  -8.3101  -8.2986  -8.2898  -8.2893  -8.2725  -8.2721  -8.2566
    -8.2432  -8.2428  -8.2406  -8.2378  -8.2367  -8.2339  -8.2284  -8.2281
    -4.3001  -4.2988  -4.2786  -4.2785  -4.2780  -4.2778  -4.2750  -4.2727
    -4.2575  -4.2519  -4.2441  -4.2405  -4.2403  -4.2392  -4.2391  -4.2316
    -4.2298  -4.2243  -4.2242  -4.2200  -4.2199  -4.2196  -4.2161  -4.2099
    -4.1908  -4.1903  -4.1896  -4.1760  -4.1759  -4.1746  -4.1649  -4.1629
    -4.1608  -4.1608  -4.1574  -4.1571  -4.1569  -4.1506  -4.1504  -4.1496
    -4.1452  -4.1403  -4.1322  -4.1319  -4.1289  -4.1193  -4.1189  -4.1166
    -4.1163  -4.1071  -4.1066  -4.1050  -4.1047  -4.0970  -4.0923  -4.0918
    -4.0823  -4.0817  -4.0814  -4.0811  -4.0772  -4.0709  -4.0653  -4.0589
    -4.0565  -4.0557  -4.0440  -4.0276  -4.0274  -4.0205  -4.0162  -4.0116
    -4.0052  -3.9975  -3.9973  -3.9950  -3.9949  -3.9887  -3.9884  -3.9832
    -3.9829  -3.9727  -3.9717  -3.9716  -3.9695  -3.9644  -3.9575  -3.9565
    -3.9535  -3.9502  -3.9495  -3.9491  -3.9454  -3.9396  -3.9394  -3.9358
    -3.9300  -3.9193  -3.9076  -3.9071  -3.8953  -3.8830  -3.8824  -3.8808
    -3.8792  -3.8791  -3.8738  -3.8675  -3.8672  -3.8652  -3.8623  -3.8620
    -3.8595  -3.8506  -3.8467  -3.8466  -3.8407  -3.8391  -3.8389  -3.8151
    -3.8149  -3.8119  -3.8076  -3.7768  -3.7767  -3.7740  -3.7716  -3.7714
    -3.7610  -3.7589  -3.7130  -3.7119  -3.7046  -3.6798  -3.6760  -3.6640
    -3.6638  -3.6269  -3.6267  -3.5203  -3.4946  -3.4943  -3.4396  -3.3728
    -3.3724  -3.3711  -3.3584  -3.3012  -3.2741  -3.1720  -3.1719  -3.1323
    -3.0730  -3.0727  -3.0378  -3.0375  -3.0171  -3.0110  -2.9627  -2.9561
     2.8930   2.8974   2.9266   3.1502   3.1506   3.2128   3.2885   3.2919
     3.3240   3.3245   3.4405   3.4409   3.4786   3.6964   3.7604   3.7607
     3.7826   3.7838   3.8054   3.8063   3.8117   3.8133   3.9037   3.9672
     4.1205   4.1210   4.2794   4.5373   4.5382   4.6904   4.7082   4.7540
     4.8376   4.8958   5.0253   5.0258   5.1398   5.1403   5.1569   5.1795
     5.2344   5.3412   5.3560   5.3564   5.3572   5.3579   5.4514   5.5434
     5.5721   5.5967   5.6044   5.6048   5.6429   5.6434   5.6735   5.6893
     5.8754   6.0055   6.1152   6.1174   6.1253   6.1262   6.1398   6.1403
     6.2708   6.3096   6.3105   6.3109   6.3114   6.3335   6.3503   6.3605
     6.4010   6.4887   6.5114   6.5121   6.5422   6.6181   6.6629   6.6650
     6.6655   6.6932   6.7214   6.7220   6.8105   6.8391   6.8885   6.8889
     6.9156   6.9164   6.9181   6.9878   6.9886   7.0091   7.0711   7.1411
     7.1756   7.1760   7.2620   7.2623   7.2658   7.3311   7.3484   7.3563
     7.4122   7.4155   7.4160   7.5419   7.5453   7.5457   7.5786   7.5829
     7.6134   7.6199   7.6719   7.6722   7.6787   7.6992   7.7019   7.7268
     7.7274   7.7908   7.7916   7.7942   7.8202   7.8259   7.8424   7.8497
     7.8504   7.8514   7.8523   7.9154   7.9345   7.9379   7.9381   7.9407
     7.9435   7.9437   7.9493   7.9532   7.9547   7.9551   7.9967   8.0489
    10.7287  11.0813  11.2606  12.1411  12.1418  12.8158  12.9612  12.9621
    13.2342  13.2706  13.2716  13.3678  13.3693  13.4090  13.4468  13.4484
    13.5110  13.7217  13.7225  13.7927

          k = 0.0284-0.0525-0.0363 ( 63467 PWs)   bands (ev):

    -9.0663  -9.0169  -9.0070  -8.8743  -8.8742  -8.7289  -8.7242  -8.7240
    -8.7049  -8.7046  -8.7006  -8.5824  -8.5821  -8.4929  -8.4898  -8.4553
    -8.4489  -8.4487  -8.4466  -8.4463  -8.4368  -8.4289  -8.4193  -8.3848
    -8.3847  -8.3696  -8.3681  -8.3660  -8.3619  -8.3575  -8.3573  -8.3345
    -8.3344  -8.3102  -8.2987  -8.2898  -8.2895  -8.2722  -8.2721  -8.2566
    -8.2430  -8.2429  -8.2407  -8.2379  -8.2366  -8.2340  -8.2284  -8.2281
    -4.3001  -4.2988  -4.2785  -4.2784  -4.2780  -4.2778  -4.2750  -4.2728
    -4.2575  -4.2520  -4.2442  -4.2405  -4.2402  -4.2392  -4.2392  -4.2316
    -4.2298  -4.2243  -4.2242  -4.2200  -4.2199  -4.2194  -4.2162  -4.2099
    -4.1907  -4.1904  -4.1895  -4.1760  -4.1759  -4.1747  -4.1649  -4.1628
    -4.1609  -4.1607  -4.1574  -4.1571  -4.1570  -4.1506  -4.1503  -4.1496
    -4.1450  -4.1402  -4.1322  -4.1319  -4.1289  -4.1192  -4.1189  -4.1167
    -4.1163  -4.1070  -4.1067  -4.1050  -4.1049  -4.0970  -4.0922  -4.0918
    -4.0824  -4.0816  -4.0814  -4.0811  -4.0772  -4.0709  -4.0651  -4.0589
    -4.0563  -4.0560  -4.0440  -4.0276  -4.0274  -4.0204  -4.0162  -4.0116
    -4.0053  -3.9975  -3.9973  -3.9950  -3.9948  -3.9887  -3.9884  -3.9833
    -3.9829  -3.9727  -3.9718  -3.9715  -3.9694  -3.9645  -3.9576  -3.9565
    -3.9534  -3.9503  -3.9495  -3.9490  -3.9454  -3.9396  -3.9394  -3.9357
    -3.9301  -3.9192  -3.9075  -3.9072  -3.8953  -3.8830  -3.8824  -3.8808
    -3.8792  -3.8790  -3.8738  -3.8675  -3.8672  -3.8653  -3.8624  -3.8620
    -3.8596  -3.8506  -3.8467  -3.8467  -3.8407  -3.8390  -3.8389  -3.8151
    -3.8148  -3.8119  -3.8076  -3.7768  -3.7766  -3.7739  -3.7717  -3.7715
    -3.7610  -3.7590  -3.7130  -3.7119  -3.7046  -3.6798  -3.6761  -3.6639
    -3.6636  -3.6270  -3.6266  -3.5202  -3.4947  -3.4944  -3.4397  -3.3731
    -3.3725  -3.3708  -3.3585  -3.3012  -3.2739  -3.1720  -3.1719  -3.1320
    -3.0729  -3.0726  -3.0378  -3.0375  -3.0170  -3.0113  -2.9628  -2.9560
     2.8927   2.8977   2.9269   3.1502   3.1505   3.2124   3.2887   3.2922
     3.3239   3.3243   3.4405   3.4414   3.4784   3.6960   3.7603   3.7608
     3.7828   3.7838   3.8057   3.8063   3.8117   3.8122   3.9037   3.9676
     4.1208   4.1213   4.2786   4.5379   4.5383   4.6902   4.7082   4.7543
     4.8378   4.8954   5.0255   5.0259   5.1397   5.1401   5.1572   5.1797
     5.2344   5.3413   5.3563   5.3564   5.3572   5.3576   5.4519   5.5432
     5.5718   5.5966   5.6045   5.6047   5.6427   5.6430   5.6736   5.6893
     5.8750   6.0058   6.1152   6.1174   6.1260   6.1266   6.1390   6.1399
     6.2705   6.3097   6.3105   6.3108   6.3118   6.3339   6.3509   6.3601
     6.4013   6.4888   6.5114   6.5118   6.5422   6.6178   6.6627   6.6646
     6.6652   6.6925   6.7217   6.7219   6.8106   6.8392   6.8886   6.8888
     6.9155   6.9157   6.9187   6.9881   6.9889   7.0092   7.0712   7.1409
     7.1756   7.1763   7.2620   7.2623   7.2657   7.3310   7.3485   7.3562
     7.4126   7.4158   7.4161   7.5417   7.5454   7.5458   7.5787   7.5825
     7.6135   7.6201   7.6717   7.6721   7.6788   7.6991   7.7017   7.7268
     7.7269   7.7910   7.7914   7.7943   7.8202   7.8259   7.8428   7.8499
     7.8502   7.8516   7.8521   7.9155   7.9344   7.9379   7.9381   7.9408
     7.9436   7.9438   7.9491   7.9534   7.9548   7.9550   7.9968   8.0489
    10.7289  11.0812  11.2606  12.1409  12.1418  12.8162  12.9606  12.9622
    13.2337  13.2704  13.2718  13.3683  13.3696  13.4093  13.4469  13.4486
    13.5109  13.7200  13.7224  13.7928

     the Fermi energy is     8.5655 ev

!    total energy              =   -6637.03747966 Ry
     estimated scf accuracy    <          3.5E-09 Ry
     smearing contrib. (-TS)   =      -0.00000000 Ry
     internal energy E=F+TS    =   -6637.03747966 Ry

     The total energy is F=E-TS. E is the sum of the following terms:
     one-electron contribution =   -1621.73701127 Ry
     hartree contribution      =    1435.97131799 Ry
     xc contribution           =   -1885.87806167 Ry
     ewald contribution        =   -4108.43310681 Ry
     one-center paw contrib.   =    -456.96061790 Ry

     total magnetization       =     0.00 Bohr mag/cell
     absolute magnetization    =     0.00 Bohr mag/cell

     convergence has been achieved in  12 iterations

     Forces acting on atoms (cartesian axes, Ry/au):

     atom    1 type  1   force =     0.00016116    0.00007430    0.00005491
     atom    2 type  1   force =     0.00010020    0.00004170    0.00005595
     atom    3 type  1   force =     0.00003856    0.00002697    0.00001179
     atom    4 type  1   force =     0.00016683    0.00009152    0.00004088
     atom    5 type  1   force =    -0.00034122   -0.00049761    0.00013386
     atom    6 type  1   force =     0.00023394   -0.00000801    0.00007942
     atom    7 type  1   force =     0.00021875    0.00029202    0.00014814
     atom    8 type  1   force =     0.00007288    0.00007916    0.00002475
     atom    9 type  1   force =    -0.00004248   -0.00008289    0.00014014
     atom   10 type  1   force =    -0.00014135   -0.00011180   -0.00005508
     atom   11 type  1   force =    -0.00015063    0.00002262   -0.00021091
     atom   12 type  1   force =    -0.00010869   -0.00003731   -0.00003861
     atom   13 type  1   force =    -0.00042396   -0.00038967   -0.00007838
     atom   14 type  1   force =     0.00001052   -0.00007600   -0.00014450
     atom   15 type  1   force =    -0.00008335    0.00000625   -0.00006331
     atom   16 type  1   force =    -0.00016160   -0.00002761   -0.00005196
     atom   17 type  1   force =    -0.00052369   -0.00018291    0.00053498
     atom   18 type  1   force =     0.00022132    0.00004104    0.00014357
     atom   19 type  1   force =     0.00019763    0.00025270    0.00006638
     atom   20 type  1   force =     0.00008435    0.00014503    0.00005428
     atom   21 type  1   force =     0.00016564    0.00006354    0.00008202
     atom   22 type  1   force =     0.00005333   -0.00006130    0.00010027
     atom   23 type  1   force =     0.00005936    0.00011287   -0.00009283
     atom   24 type  1   force =     0.00015971    0.00011315    0.00003324
     atom   25 type  1   force =     0.00004865   -0.00007360   -0.00004531
     atom   26 type  1   force =    -0.00019548   -0.00048155    0.00002648
     atom   27 type  1   force =    -0.00027207    0.00004655    0.00000387
     atom   28 type  1   force =    -0.00008090   -0.00001058   -0.00004084
     atom   29 type  1   force =    -0.00013998   -0.00012295   -0.00010902
     atom   30 type  1   force =    -0.00009076   -0.00002421    0.00004840
     atom   31 type  1   force =    -0.00011877   -0.00004560   -0.00002543
     atom   32 type  1   force =    -0.00011498   -0.00002103   -0.00013288
     atom   33 type  2   force =     0.00212426    0.00244450   -0.00141712
     atom   34 type  2   force =    -0.00012715    0.00030682   -0.00043777
     atom   35 type  2   force =    -0.00006911    0.00022293   -0.00041648
     atom   36 type  2   force =     0.00004761    0.00027109   -0.00043509
     atom   37 type  2   force =    -0.00003091    0.00031239   -0.00047663
     atom   38 type  2   force =     0.00000293    0.00032579   -0.00042379
     atom   39 type  2   force =     0.00000731    0.00026026   -0.00035958
     atom   40 type  2   force =    -0.00001386    0.00028419   -0.00042941
     atom   41 type  2   force =    -0.00035518    0.00001086   -0.00024037
     atom   42 type  2   force =    -0.00025925    0.00047162    0.00000892
     atom   43 type  2   force =    -0.00056182    0.00013969    0.00010330
     atom   44 type  2   force =    -0.00024539    0.00050004   -0.00001046
     atom   45 type  2   force =    -0.00022928    0.00048885    0.00000895
     atom   46 type  2   force =    -0.00026582    0.00045922    0.00002864
     atom   47 type  2   force =    -0.00023838    0.00045759    0.00000821
     atom   48 type  2   force =    -0.00023086    0.00043631   -0.00001693
     atom   49 type  2   force =     0.00020412   -0.00007821   -0.00056877
     atom   50 type  2   force =     0.00022061   -0.00013196   -0.00039797
     atom   51 type  2   force =     0.00023539   -0.00021927   -0.00041387
     atom   52 type  2   force =     0.00028624   -0.00020445   -0.00046238
     atom   53 type  2   force =     0.00020387   -0.00033726   -0.00073257
     atom   54 type  2   force =     0.00023509   -0.00013587   -0.00041857
     atom   55 type  2   force =     0.00022014   -0.00021019   -0.00038943
     atom   56 type  2   force =     0.00028615   -0.00015433   -0.00043759
     atom   57 type  2   force =    -0.00017477    0.00022031    0.00040080
     atom   58 type  2   force =    -0.00029420    0.00013171    0.00040542
     atom   59 type  2   force =    -0.00030668    0.00013072    0.00045078
     atom   60 type  2   force =    -0.00017423    0.00004130    0.00055867
     atom   61 type  2   force =    -0.00027786    0.00016454    0.00040443
     atom   62 type  2   force =    -0.00021777    0.00029101    0.00073683
     atom   63 type  2   force =    -0.00022828    0.00012240    0.00045589
     atom   64 type  2   force =    -0.00027825    0.00010495    0.00042853
     atom   65 type  2   force =     0.00001498   -0.00027960    0.00039922
     atom   66 type  2   force =     0.00001505   -0.00026812    0.00041704
     atom   67 type  2   force =    -0.00001973   -0.00032378    0.00047403
     atom   68 type  2   force =     0.00001112   -0.00030534    0.00044568
     atom   69 type  2   force =    -0.00032815   -0.00012950    0.00034657
     atom   70 type  2   force =    -0.00049327   -0.00019307    0.00048789
     atom   71 type  2   force =     0.00000096   -0.00035713    0.00046051
     atom   72 type  2   force =     0.00001249   -0.00034894    0.00042631
     atom   73 type  2   force =     0.00028279   -0.00043978    0.00018896
     atom   74 type  2   force =     0.00022254   -0.00045787   -0.00001505
     atom   75 type  2   force =     0.00021234   -0.00049450   -0.00006027
     atom   76 type  2   force =     0.00026803   -0.00047065    0.00003762
     atom   77 type  2   force =     0.00019508   -0.00048990   -0.00004564
     atom   78 type  2   force =     0.00035261   -0.00048469   -0.00004728
     atom   79 type  2   force =     0.00054173   -0.00074362    0.00027935
     atom   80 type  2   force =     0.00021384   -0.00049578   -0.00000380

     Total force =     0.005486     Total SCF correction =     0.000142


     Computing stress (Cartesian axis) and pressure

          total   stress  (Ry/bohr**3)                   (kbar)     P=       -4.55
  -0.00002224   0.00000880   0.00000598           -3.27        1.29        0.88
   0.00000880  -0.00003420   0.00000332            1.29       -5.03        0.49
   0.00000598   0.00000332  -0.00003631            0.88        0.49       -5.34


     Writing output data file ./calc.save/

     init_run     :    309.20s CPU    315.08s WALL (       1 calls)
     electrons    :  12220.50s CPU  12400.51s WALL (       1 calls)
     forces       :    138.02s CPU    139.20s WALL (       1 calls)
     stress       :    944.61s CPU    947.56s WALL (       1 calls)

     Called by init_run:
     wfcinit      :    295.74s CPU    301.30s WALL (       1 calls)
     potinit      :      4.81s CPU      4.89s WALL (       1 calls)
     hinit0       :      6.71s CPU      6.73s WALL (       1 calls)

     Called by electrons:
     c_bands      :  11160.36s CPU  11314.78s WALL (      12 calls)
     sum_band     :   1012.45s CPU   1035.13s WALL (      12 calls)
     v_of_rho     :     17.65s CPU     18.23s WALL (      13 calls)
     newd         :     17.37s CPU     19.72s WALL (      13 calls)
     PAW_pot      :     11.40s CPU     11.41s WALL (      13 calls)
     mix_rho      :      2.92s CPU      3.02s WALL (      12 calls)

     Called by c_bands:
     init_us_2    :     39.79s CPU     40.31s WALL (     756 calls)
     cegterg      :  11077.53s CPU  11228.97s WALL (     336 calls)

     Called by *egterg:
     cdiaghg      :   1288.43s CPU   1288.82s WALL (    2099 calls)
     h_psi        :   5557.94s CPU   5684.03s WALL (    2127 calls)
     s_psi        :   1076.01s CPU   1076.40s WALL (    2127 calls)
     g_psi        :     13.25s CPU     13.28s WALL (    1763 calls)

     Called by h_psi:
     h_psi:calbec :   1129.04s CPU   1135.66s WALL (    2127 calls)
     vloc_psi     :   3327.74s CPU   3438.89s WALL (    2127 calls)
     add_vuspsi   :   1085.58s CPU   1086.25s WALL (    2127 calls)

     General routines
     calbec       :   1626.82s CPU   1635.89s WALL (    2603 calls)
     fft          :     14.41s CPU     14.92s WALL (     363 calls)
     ffts         :      0.39s CPU      0.40s WALL (      50 calls)
     fftw         :   3115.25s CPU   3225.99s WALL (  900212 calls)
     interpolate  :      1.31s CPU      1.35s WALL (      26 calls)

     Parallel routines
     fft_scatt_xy :    502.94s CPU    529.07s WALL (  900625 calls)
     fft_scatt_yz :    548.44s CPU    577.70s WALL (  900625 calls)

     PWSCF        :      3h47m CPU      3h50m WALL


   This run was terminated on:   4: 3:55  16Jul2021            

=------------------------------------------------------------------------------=
   JOB DONE.
=------------------------------------------------------------------------------=
# python dir           : /home/lls34/GitHub/10_QE_Interface/ase-espresso/espresso
# espresso dir         : /opt/womble/qe-6.7/bin
# pseudo dir           : /home/lls34/programs/QuantumExpresso/pseudopotentials/use_pot
# ase-espresso version : 0.3.3


