--------------------------------------------------------------------------
[[28141,1],8]: A high-performance Open MPI point-to-point messaging module
was unable to find any relevant network interfaces:

Module: OpenFabrics (openib)
  Host: node25

Another transport will be used instead, although this may result in
lower performance.

NOTE: You can disable this warning by setting the MCA parameter
btl_base_warn_component_unused to 0.
--------------------------------------------------------------------------

     Program PWSCF v.6.7MaX starts on 16Jul2021 at  0:13:17 

     This program is part of the open-source Quantum ESPRESSO suite
     for quantum simulation of materials; please cite
         "P. Giannozzi et al., J. Phys.:Condens. Matter 21 395502 (2009);
         "P. Giannozzi et al., J. Phys.:Condens. Matter 29 465901 (2017);
          URL http://www.quantum-espresso.org", 
     in publications or presentations arising from this work. More details at
     http://www.quantum-espresso.org/quote

     Parallel version (MPI), running on    16 processors

     MPI processes distributed on     1 nodes
     R & G space division:  proc/nbgrp/npool/nimage =      16
     Reading input from pw.inp

     Current dimensions of program PWSCF are:
     Max number of different atomic species (ntypx) = 10
     Max number of k-points (npk) =  40000
     Max angular momentum in pseudopotentials (lmaxx) =  3
     Message from routine cell_base_init:
     DEPRECATED: use true lattice parameter, not A to a.u. conversion factor
     file In.UPF: wavefunction(s)  5S renormalized
     file O.UPF: wavefunction(s)  2P renormalized

     IMPORTANT: XC functional enforced from input :
     Exchange-correlation= PBE
                           (   1   4   3   4   0   0   0)
     Any further DFT definition will be discarded
     Please, verify this is what you really want


     Subspace diagonalization in iterative solution of the eigenvalue problem:
     a serial algorithm will be used


     Parallelization info
     --------------------
     sticks:   dense  smooth     PW     G-vecs:    dense   smooth      PW
     Min        1067     533    141                89723    31724    4314
     Max        1068     534    142                89725    31725    4317
     Sum       17077    8539   2257              1435587   507593   69037



     bravais-lattice index     =            0
     lattice parameter (alat)  =       1.8897  a.u.
     unit-cell volume          =    7169.5930 (a.u.)^3
     number of atoms/cell      =           80
     number of atomic types    =            2
     number of electrons       =       704.00
     number of Kohn-Sham states=          372
     kinetic-energy cutoff     =      65.0000  Ry
     charge density cutoff     =     520.0000  Ry
     scf convergence threshold =      7.3E-09
     mixing beta               =       0.5000
     number of iterations used =           10  plain     mixing
     Exchange-correlation= PBE
                           (   1   4   3   4   0   0   0)

     celldm(1)=   1.889726  celldm(2)=   0.000000  celldm(3)=   0.000000
     celldm(4)=   0.000000  celldm(5)=   0.000000  celldm(6)=   0.000000

     crystal axes: (cart. coord. in units of alat)
               a(1) = (  11.758272   0.000206   0.000142 )  
               a(2) = (   6.452193   9.829861   0.000142 )  
               a(3) = (   6.452193   3.482914   9.192142 )  

     reciprocal axes: (cart. coord. in units 2 pi/alat)
               b(1) = (  0.085048 -0.055824 -0.038546 )  
               b(2) = ( -0.000001  0.101732 -0.038546 )  
               b(3) = ( -0.000001 -0.000001  0.108790 )  


     PseudoPot. # 1 for In read from file:
     /home/lls34/programs/QuantumExpresso/pseudopotentials/use_pot/In.UPF
     MD5 check sum: b236236d7d320b3bac520569a9051741
     Pseudo is Ultrasoft + core correction, Zval = 13.0
     Generated using "atomic" code by A. Dal Corso  v.5.0.99 svn rev. 10869
     Using radial grid of 1241 points,  6 beta functions with: 
                l(1) =   0
                l(2) =   0
                l(3) =   1
                l(4) =   1
                l(5) =   2
                l(6) =   2
     Q(r) pseudized with 0 coefficients 


     PseudoPot. # 2 for O  read from file:
     /home/lls34/programs/QuantumExpresso/pseudopotentials/use_pot/O.UPF
     MD5 check sum: 3f94a2996a3169367d6eb21d9b593f20
     Pseudo is Projector augmented-wave + core cor, Zval =  6.0
     Generated using "atomic" code by A. Dal Corso  v.5.0.99 svn rev. 10869
     Shape of augmentation charge: BESSEL
     Using radial grid of 1095 points,  4 beta functions with: 
                l(1) =   0
                l(2) =   0
                l(3) =   1
                l(4) =   1
     Q(r) pseudized with 0 coefficients 


     atomic species   valence    mass     pseudopotential
        In1           13.00   114.81800     In( 1.00)
        O1             6.00    15.99900     O ( 1.00)

     Starting magnetic structure 
     atomic species   magnetization
        In1          0.000
        O1           0.000

     No symmetry found



   Cartesian axes

     site n.     atom                  positions (alat units)
         1           In1 tau(   1) = (  10.5706437   5.7060672   3.9399592  )
         2           In1 tau(   2) = (  16.4497798   5.7061700   3.9400302  )
         3           In1 tau(   3) = (  13.7967401  10.6209978   3.9400302  )
         4           In1 tau(   4) = (  19.6758761  10.6211006   3.9401012  )
         5           In1 tau(   5) = (  13.7967401   7.4475242   8.5360304  )
         6           In1 tau(   6) = (  19.6758761   7.4476270   8.5361014  )
         7           In1 tau(   7) = (  17.0228364  12.3624549   8.5361014  )
         8           In1 tau(   8) = (  22.9019725  12.3625577   8.5361724  )
         9           In1 tau(   9) = (   7.9263494   4.2786687   2.9543606  )
        10           In1 tau(  10) = (  13.8054855   4.2787715   2.9544316  )
        11           In1 tau(  11) = (  11.1524457   9.1935993   2.9544316  )
        12           In1 tau(  12) = (  17.0315818   9.1937021   2.9545026  )
        13           In1 tau(  13) = (  11.1524457   6.0201257   7.5504318  )
        14           In1 tau(  14) = (  17.0315818   6.0202285   7.5505028  )
        15           In1 tau(  15) = (  14.3785421  10.9350564   7.5505028  )
        16           In1 tau(  16) = (  20.2576781  10.9351592   7.5505738  )
        17           In1 tau(  17) = (   4.4049794   2.3778219   1.6418526  )
        18           In1 tau(  18) = (  10.2841154   2.3779247   1.6419236  )
        19           In1 tau(  19) = (   7.6310757   7.2927525   1.6419236  )
        20           In1 tau(  20) = (  13.5102117   7.2928553   1.6419946  )
        21           In1 tau(  21) = (   7.6310757   4.1192790   6.2379238  )
        22           In1 tau(  22) = (  13.5102118   4.1193818   6.2379948  )
        23           In1 tau(  23) = (  10.8571720   9.0342096   6.2379948  )
        24           In1 tau(  24) = (  16.7363081   9.0343124   6.2380658  )
        25           In1 tau(  25) = (   1.7606850   0.9504234   0.6562540  )
        26           In1 tau(  26) = (   7.6398211   0.9505262   0.6563250  )
        27           In1 tau(  27) = (   4.9867814   5.8653540   0.6563250  )
        28           In1 tau(  28) = (  10.8659174   5.8654568   0.6563960  )
        29           In1 tau(  29) = (   4.9867814   2.6918805   5.2523252  )
        30           In1 tau(  30) = (  10.8659174   2.6919833   5.2523962  )
        31           In1 tau(  31) = (   8.2128777   7.6068111   5.2523962  )
        32           In1 tau(  32) = (  14.0920138   7.6069139   5.2524672  )
        33           O1  tau(  33) = (   6.0329838   2.3094190   0.2146098  )
        34           O1  tau(  34) = (  11.9015363   2.3095216   0.2146806  )
        35           O1  tau(  35) = (   9.2484966   7.2243494   0.2146806  )
        36           O1  tau(  36) = (  15.1276326   7.2244522   0.2147516  )
        37           O1  tau(  37) = (   9.2484966   4.0508758   4.8106808  )
        38           O1  tau(  38) = (  15.1276326   4.0509787   4.8107518  )
        39           O1  tau(  39) = (  12.4745929   8.9658065   4.8107518  )
        40           O1  tau(  40) = (  18.3537290   8.9659093   4.8108228  )
        41           O1  tau(  41) = (   7.0960206   5.1209440   1.1491243  )
        42           O1  tau(  42) = (  12.9751566   5.1210468   1.1491953  )
        43           O1  tau(  43) = (  10.3221169  10.0358746   1.1491953  )
        44           O1  tau(  44) = (  16.2012530  10.0359774   1.1492663  )
        45           O1  tau(  45) = (  10.3221169   6.8624010   5.7451955  )
        46           O1  tau(  46) = (  16.2012530   6.8625039   5.7452665  )
        47           O1  tau(  47) = (  13.5482133  11.7773317   5.7452665  )
        48           O1  tau(  48) = (  19.4273493  11.7774345   5.7453375  )
        49           O1  tau(  49) = (   8.1748762   2.1808427   2.5126452  )
        50           O1  tau(  50) = (  14.0540123   2.1809455   2.5127162  )
        51           O1  tau(  51) = (  11.4009725   7.0957733   2.5127162  )
        52           O1  tau(  52) = (  17.2801086   7.0958762   2.5127872  )
        53           O1  tau(  53) = (  11.4009725   3.9222998   7.1087164  )
        54           O1  tau(  54) = (  17.2801086   3.9224026   7.1087874  )
        55           O1  tau(  55) = (  14.6270689   8.8372304   7.1087874  )
        56           O1  tau(  56) = (  20.5062049   8.8373332   7.1088584  )
        57           O1  tau(  57) = (   4.1564525   4.4756478   2.0835680  )
        58           O1  tau(  58) = (  10.0355886   4.4757506   2.0836389  )
        59           O1  tau(  59) = (   7.3825489   9.3905785   2.0836389  )
        60           O1  tau(  60) = (  13.2616849   9.3906813   2.0837099  )
        61           O1  tau(  61) = (   7.3825489   6.2171049   6.6796391  )
        62           O1  tau(  62) = (  13.2616849   6.2172077   6.6797101  )
        63           O1  tau(  63) = (  10.6086452  11.1320356   6.6797101  )
        64           O1  tau(  64) = (  16.4877813  11.1321384   6.6797811  )
        65           O1  tau(  65) = (   6.3089285   4.3470718   4.3816035  )
        66           O1  tau(  66) = (  12.1880646   4.3471746   4.3816745  )
        67           O1  tau(  67) = (   9.5350249   9.2620024   4.3816745  )
        68           O1  tau(  68) = (  15.4141609   9.2621052   4.3817455  )
        69           O1  tau(  69) = (   9.5350249   6.0885288   8.9776747  )
        70           O1  tau(  70) = (  15.4141609   6.0886317   8.9777457  )
        71           O1  tau(  71) = (  12.7611212  11.0034595   8.9777457  )
        72           O1  tau(  72) = (  18.6402573  11.0035623   8.9778167  )
        73           O1  tau(  73) = (   5.2353082   1.5355466   3.4470889  )
        74           O1  tau(  74) = (  11.1144442   1.5356494   3.4471599  )
        75           O1  tau(  75) = (   8.4614045   6.4504772   3.4471599  )
        76           O1  tau(  76) = (  14.3405406   6.4505800   3.4472309  )
        77           O1  tau(  77) = (   8.4614045   3.2770037   8.0431601  )
        78           O1  tau(  78) = (  14.3405406   3.2771065   8.0432311  )
        79           O1  tau(  79) = (  11.6875008   8.1919343   8.0432311  )
        80           O1  tau(  80) = (  17.5666369   8.1920371   8.0433021  )

     number of k points=    14  Gaussian smearing, width (Ry)=  0.0073
                       cart. coord. in units 2pi/alat
        k(    1) = (   0.0000000   0.0000000   0.0000000), wk =   0.0370370
        k(    2) = (  -0.0000004  -0.0000002   0.0362633), wk =   0.0740741
        k(    3) = (  -0.0000004   0.0339108  -0.0128485), wk =   0.0740741
        k(    4) = (  -0.0000009   0.0339105   0.0234147), wk =   0.0740741
        k(    5) = (  -0.0000000   0.0339110  -0.0491118), wk =   0.0740741
        k(    6) = (   0.0283493  -0.0186079  -0.0128485), wk =   0.0740741
        k(    7) = (   0.0283489  -0.0186082   0.0234147), wk =   0.0740741
        k(    8) = (   0.0283498  -0.0186077  -0.0491118), wk =   0.0740741
        k(    9) = (   0.0283489   0.0153028  -0.0256970), wk =   0.0740741
        k(   10) = (   0.0283484   0.0153026   0.0105662), wk =   0.0740741
        k(   11) = (   0.0283493   0.0153031  -0.0619603), wk =   0.0740741
        k(   12) = (   0.0283498  -0.0525187  -0.0000000), wk =   0.0740741
        k(   13) = (   0.0283493  -0.0525189   0.0362633), wk =   0.0740741
        k(   14) = (   0.0283502  -0.0525185  -0.0362633), wk =   0.0740741

     Dense  grid:  1435587 G-vectors     FFT dimensions: ( 162, 162, 162)

     Smooth grid:   507593 G-vectors     FFT dimensions: ( 120, 120, 120)

     Estimated max dynamical RAM per process >       1.24 GB

     Estimated total dynamical RAM >      19.91 GB
     Generating pointlists ...
     new r_m :   0.8870 (alat units)  1.6762 (a.u.) for type    1
     new r_m :   0.8870 (alat units)  1.6762 (a.u.) for type    2

     Initial potential from superposition of free atoms

     starting charge  703.88090, renormalised to  704.00000
     Starting wfcs are  480 randomized atomic wfcs
     Checking if some PAW data can be deallocated... 

     total cpu time spent up to now is      284.0 secs

     Self-consistent Calculation

     iteration #  1     ecut=    65.00 Ry     beta= 0.50
     Davidson diagonalization with overlap
     ethr =  1.00E-02,  avg # of iterations =  2.0

     total cpu time spent up to now is      897.2 secs

     total energy              =   -6627.37945250 Ry
     estimated scf accuracy    <      22.66584851 Ry

     total magnetization       =    -0.00 Bohr mag/cell
     absolute magnetization    =     0.08 Bohr mag/cell

     iteration #  2     ecut=    65.00 Ry     beta= 0.50
     Davidson diagonalization with overlap
     ethr =  3.22E-03,  avg # of iterations =  4.0

     total cpu time spent up to now is     1793.3 secs

     total energy              =   -6635.48677829 Ry
     estimated scf accuracy    <       8.36985148 Ry

     total magnetization       =     0.00 Bohr mag/cell
     absolute magnetization    =     0.05 Bohr mag/cell

     iteration #  3     ecut=    65.00 Ry     beta= 0.50
     Davidson diagonalization with overlap
     ethr =  1.19E-03,  avg # of iterations =  2.2

     total cpu time spent up to now is     2502.6 secs

     total energy              =   -6636.77395956 Ry
     estimated scf accuracy    <       0.34017115 Ry

     total magnetization       =     0.00 Bohr mag/cell
     absolute magnetization    =     0.04 Bohr mag/cell

     iteration #  4     ecut=    65.00 Ry     beta= 0.50
     Davidson diagonalization with overlap
     ethr =  4.83E-05,  avg # of iterations =  7.9

     total cpu time spent up to now is     3692.9 secs

     total energy              =   -6636.94922627 Ry
     estimated scf accuracy    <       0.81400414 Ry

     total magnetization       =    -0.00 Bohr mag/cell
     absolute magnetization    =     0.01 Bohr mag/cell

     iteration #  5     ecut=    65.00 Ry     beta= 0.50
     Davidson diagonalization with overlap
     ethr =  4.83E-05,  avg # of iterations =  3.3

     total cpu time spent up to now is     4452.2 secs

     total energy              =   -6637.00887568 Ry
     estimated scf accuracy    <       0.07077440 Ry

     total magnetization       =    -0.00 Bohr mag/cell
     absolute magnetization    =     0.01 Bohr mag/cell

     iteration #  6     ecut=    65.00 Ry     beta= 0.50
     Davidson diagonalization with overlap
     c_bands:  2 eigenvalues not converged
     c_bands:  2 eigenvalues not converged
     c_bands:  2 eigenvalues not converged
     c_bands:  1 eigenvalues not converged
     c_bands:  1 eigenvalues not converged
     c_bands:  1 eigenvalues not converged
     ethr =  1.01E-05,  avg # of iterations = 10.7

     total cpu time spent up to now is     5508.8 secs

     total energy              =   -6637.03630183 Ry
     estimated scf accuracy    <       0.00718306 Ry

     total magnetization       =    -0.00 Bohr mag/cell
     absolute magnetization    =     0.01 Bohr mag/cell

     iteration #  7     ecut=    65.00 Ry     beta= 0.50
     Davidson diagonalization with overlap
     c_bands:  1 eigenvalues not converged
     c_bands:  2 eigenvalues not converged
     c_bands:  1 eigenvalues not converged
     c_bands:  1 eigenvalues not converged
     c_bands:  1 eigenvalues not converged
     c_bands:  4 eigenvalues not converged
     ethr =  1.02E-06,  avg # of iterations =  8.5

     total cpu time spent up to now is     6358.6 secs

     total energy              =   -6637.03710893 Ry
     estimated scf accuracy    <       0.00104985 Ry

     total magnetization       =    -0.00 Bohr mag/cell
     absolute magnetization    =     0.00 Bohr mag/cell

     iteration #  8     ecut=    65.00 Ry     beta= 0.50
     Davidson diagonalization with overlap
     c_bands:  2 eigenvalues not converged
     c_bands:  2 eigenvalues not converged
     c_bands:  3 eigenvalues not converged
     c_bands:  2 eigenvalues not converged
     c_bands:  2 eigenvalues not converged
     c_bands:  2 eigenvalues not converged
     ethr =  1.49E-07,  avg # of iterations =  7.4

     total cpu time spent up to now is     7296.0 secs

     total energy              =   -6637.03742437 Ry
     estimated scf accuracy    <       0.00003277 Ry

     total magnetization       =    -0.00 Bohr mag/cell
     absolute magnetization    =     0.00 Bohr mag/cell

     iteration #  9     ecut=    65.00 Ry     beta= 0.50
     Davidson diagonalization with overlap
     c_bands:  3 eigenvalues not converged
     c_bands:  2 eigenvalues not converged
     c_bands:  1 eigenvalues not converged
     c_bands:  2 eigenvalues not converged
     ethr =  4.65E-09,  avg # of iterations =  7.5

     total cpu time spent up to now is     8632.9 secs

     total energy              =   -6637.03746033 Ry
     estimated scf accuracy    <       0.00000080 Ry

     total magnetization       =     0.00 Bohr mag/cell
     absolute magnetization    =     0.00 Bohr mag/cell

     iteration # 10     ecut=    65.00 Ry     beta= 0.50
     Davidson diagonalization with overlap
     ethr =  1.14E-10,  avg # of iterations =  5.9

     total cpu time spent up to now is    10042.6 secs

     total energy              =   -6637.03746072 Ry
     estimated scf accuracy    <       0.00000204 Ry

     total magnetization       =    -0.00 Bohr mag/cell
     absolute magnetization    =     0.00 Bohr mag/cell

     iteration # 11     ecut=    65.00 Ry     beta= 0.50
     Davidson diagonalization with overlap
     ethr =  1.14E-10,  avg # of iterations =  2.0

     total cpu time spent up to now is    10747.4 secs

     total energy              =   -6637.03746064 Ry
     estimated scf accuracy    <       0.00000052 Ry

     total magnetization       =    -0.00 Bohr mag/cell
     absolute magnetization    =     0.00 Bohr mag/cell

     iteration # 12     ecut=    65.00 Ry     beta= 0.50
     Davidson diagonalization with overlap
     ethr =  7.42E-11,  avg # of iterations =  3.1

     Magnetic moment per site:
     atom:    1    charge:    9.3755    magn:   -0.0000    constr:    0.0000
     atom:    2    charge:    9.3755    magn:   -0.0000    constr:    0.0000
     atom:    3    charge:    9.3755    magn:    0.0000    constr:    0.0000
     atom:    4    charge:    9.3755    magn:    0.0000    constr:    0.0000
     atom:    5    charge:    9.3757    magn:    0.0000    constr:    0.0000
     atom:    6    charge:    9.3755    magn:    0.0000    constr:    0.0000
     atom:    7    charge:    9.3755    magn:    0.0000    constr:    0.0000
     atom:    8    charge:    9.3755    magn:   -0.0000    constr:    0.0000
     atom:    9    charge:    9.3753    magn:   -0.0000    constr:    0.0000
     atom:   10    charge:    9.3753    magn:   -0.0000    constr:    0.0000
     atom:   11    charge:    9.3753    magn:   -0.0000    constr:    0.0000
     atom:   12    charge:    9.3753    magn:    0.0000    constr:    0.0000
     atom:   13    charge:    9.3751    magn:    0.0000    constr:    0.0000
     atom:   14    charge:    9.3753    magn:    0.0000    constr:    0.0000
     atom:   15    charge:    9.3753    magn:    0.0000    constr:    0.0000
     atom:   16    charge:    9.3753    magn:    0.0000    constr:    0.0000
     atom:   17    charge:    9.3748    magn:   -0.0000    constr:    0.0000
     atom:   18    charge:    9.3753    magn:    0.0000    constr:    0.0000
     atom:   19    charge:    9.3753    magn:    0.0000    constr:    0.0000
     atom:   20    charge:    9.3753    magn:    0.0000    constr:    0.0000
     atom:   21    charge:    9.3753    magn:   -0.0000    constr:    0.0000
     atom:   22    charge:    9.3753    magn:    0.0000    constr:    0.0000
     atom:   23    charge:    9.3753    magn:    0.0000    constr:    0.0000
     atom:   24    charge:    9.3753    magn:    0.0000    constr:    0.0000
     atom:   25    charge:    9.3755    magn:    0.0000    constr:    0.0000
     atom:   26    charge:    9.3760    magn:   -0.0000    constr:    0.0000
     atom:   27    charge:    9.3755    magn:   -0.0000    constr:    0.0000
     atom:   28    charge:    9.3755    magn:    0.0000    constr:    0.0000
     atom:   29    charge:    9.3755    magn:    0.0000    constr:    0.0000
     atom:   30    charge:    9.3755    magn:    0.0000    constr:    0.0000
     atom:   31    charge:    9.3755    magn:    0.0000    constr:    0.0000
     atom:   32    charge:    9.3755    magn:    0.0000    constr:    0.0000
     atom:   33    charge:    5.7867    magn:   -0.0000    constr:    0.0000
     atom:   34    charge:    5.7866    magn:   -0.0000    constr:    0.0000
     atom:   35    charge:    5.7866    magn:   -0.0000    constr:    0.0000
     atom:   36    charge:    5.7866    magn:   -0.0000    constr:    0.0000
     atom:   37    charge:    5.7866    magn:    0.0000    constr:    0.0000
     atom:   38    charge:    5.7866    magn:   -0.0000    constr:    0.0000
     atom:   39    charge:    5.7866    magn:   -0.0000    constr:    0.0000
     atom:   40    charge:    5.7866    magn:   -0.0000    constr:    0.0000
     atom:   41    charge:    5.7866    magn:    0.0000    constr:    0.0000
     atom:   42    charge:    5.7866    magn:   -0.0000    constr:    0.0000
     atom:   43    charge:    5.7865    magn:    0.0000    constr:    0.0000
     atom:   44    charge:    5.7865    magn:    0.0000    constr:    0.0000
     atom:   45    charge:    5.7866    magn:    0.0000    constr:    0.0000
     atom:   46    charge:    5.7866    magn:   -0.0000    constr:    0.0000
     atom:   47    charge:    5.7866    magn:    0.0000    constr:    0.0000
     atom:   48    charge:    5.7866    magn:   -0.0000    constr:    0.0000
     atom:   49    charge:    5.7867    magn:   -0.0000    constr:    0.0000
     atom:   50    charge:    5.7866    magn:    0.0000    constr:    0.0000
     atom:   51    charge:    5.7866    magn:   -0.0000    constr:    0.0000
     atom:   52    charge:    5.7866    magn:    0.0000    constr:    0.0000
     atom:   53    charge:    5.7865    magn:   -0.0000    constr:    0.0000
     atom:   54    charge:    5.7866    magn:    0.0000    constr:    0.0000
     atom:   55    charge:    5.7866    magn:   -0.0000    constr:    0.0000
     atom:   56    charge:    5.7866    magn:   -0.0000    constr:    0.0000
     atom:   57    charge:    5.7865    magn:    0.0000    constr:    0.0000
     atom:   58    charge:    5.7866    magn:    0.0000    constr:    0.0000
     atom:   59    charge:    5.7866    magn:   -0.0000    constr:    0.0000
     atom:   60    charge:    5.7866    magn:   -0.0000    constr:    0.0000
     atom:   61    charge:    5.7866    magn:    0.0000    constr:    0.0000
     atom:   62    charge:    5.7866    magn:    0.0000    constr:    0.0000
     atom:   63    charge:    5.7866    magn:   -0.0000    constr:    0.0000
     atom:   64    charge:    5.7866    magn:    0.0000    constr:    0.0000
     atom:   65    charge:    5.7866    magn:   -0.0000    constr:    0.0000
     atom:   66    charge:    5.7866    magn:   -0.0000    constr:    0.0000
     atom:   67    charge:    5.7866    magn:   -0.0000    constr:    0.0000
     atom:   68    charge:    5.7866    magn:   -0.0000    constr:    0.0000
     atom:   69    charge:    5.7864    magn:    0.0000    constr:    0.0000
     atom:   70    charge:    5.7868    magn:   -0.0000    constr:    0.0000
     atom:   71    charge:    5.7866    magn:   -0.0000    constr:    0.0000
     atom:   72    charge:    5.7866    magn:   -0.0000    constr:    0.0000
     atom:   73    charge:    5.7865    magn:    0.0000    constr:    0.0000
     atom:   74    charge:    5.7866    magn:   -0.0000    constr:    0.0000
     atom:   75    charge:    5.7866    magn:    0.0000    constr:    0.0000
     atom:   76    charge:    5.7866    magn:   -0.0000    constr:    0.0000
     atom:   77    charge:    5.7866    magn:   -0.0000    constr:    0.0000
     atom:   78    charge:    5.7867    magn:   -0.0000    constr:    0.0000
     atom:   79    charge:    5.7866    magn:   -0.0000    constr:    0.0000
     atom:   80    charge:    5.7866    magn:   -0.0000    constr:    0.0000

     total cpu time spent up to now is    11493.0 secs

     End of self-consistent calculation

 ------ SPIN UP ------------


          k = 0.0000 0.0000 0.0000 ( 63395 PWs)   bands (ev):

    -9.2335  -8.8486  -8.8483  -8.8480  -8.7289  -8.7283  -8.7275  -8.7274
    -8.7272  -8.7271  -8.7262  -8.7257  -8.6115  -8.6113  -8.6111  -8.4641
    -8.4638  -8.4635  -8.4448  -8.4446  -8.3612  -8.3606  -8.3602  -8.3601
    -8.3596  -8.3593  -8.3495  -8.3494  -8.3493  -8.3492  -8.3322  -8.3316
    -8.3315  -8.3269  -8.3266  -8.3262  -8.3208  -8.3205  -8.3201  -8.3197
    -8.3193  -8.3186  -8.2493  -8.2490  -8.1607  -8.1593  -8.1591  -8.1588
    -4.3161  -4.3160  -4.2846  -4.2843  -4.2839  -4.2677  -4.2676  -4.2670
    -4.2666  -4.2662  -4.2660  -4.2448  -4.2446  -4.2444  -4.2301  -4.2297
    -4.2176  -4.2175  -4.2172  -4.2154  -4.2153  -4.2150  -4.2150  -4.1929
    -4.1867  -4.1865  -4.1862  -4.1821  -4.1819  -4.1777  -4.1775  -4.1773
    -4.1576  -4.1572  -4.1570  -4.1567  -4.1566  -4.1560  -4.1394  -4.1391
    -4.1388  -4.1261  -4.1259  -4.1256  -4.1232  -4.1232  -4.1230  -4.1161
    -4.1159  -4.1154  -4.1150  -4.1145  -4.1142  -4.0956  -4.0953  -4.0950
    -4.0946  -4.0943  -4.0940  -4.0771  -4.0769  -4.0767  -4.0706  -4.0704
    -4.0702  -4.0701  -4.0643  -4.0511  -4.0511  -4.0169  -4.0162  -4.0154
    -4.0153  -4.0150  -4.0146  -4.0143  -4.0135  -3.9759  -3.9758  -3.9665
    -3.9662  -3.9660  -3.9650  -3.9649  -3.9646  -3.9644  -3.9640  -3.9638
    -3.9505  -3.9502  -3.9498  -3.9337  -3.9332  -3.9329  -3.9288  -3.9285
    -3.9282  -3.8887  -3.8886  -3.8883  -3.8883  -3.8760  -3.8759  -3.8742
    -3.8666  -3.8664  -3.8658  -3.8657  -3.8651  -3.8649  -3.8611  -3.8602
    -3.8598  -3.8592  -3.8590  -3.8582  -3.8579  -3.8471  -3.8469  -3.8467
    -3.8318  -3.8315  -3.8313  -3.7937  -3.7933  -3.7928  -3.7836  -3.7831
    -3.7324  -3.7319  -3.7315  -3.6895  -3.6893  -3.6891  -3.6003  -3.6001
    -3.4777  -3.4771  -3.4764  -3.4763  -3.4756  -3.4750  -3.3528  -3.3524
    -3.3519  -3.3516  -3.3179  -3.3174  -3.3168  -3.3055  -3.3053  -3.3045
    -3.3042  -3.3034  -3.3029  -2.9631  -2.9630  -2.8483  -2.8478  -2.8472
     2.6339   3.0034   3.1903   3.1906   3.1909   3.1911   3.1913   3.1916
     3.2098   3.2106   3.2116   3.2874   3.2887   3.7052   3.7059   3.7065
     3.9322   3.9332   3.9335   3.9337   3.9340   3.9351   4.2683   4.2684
     4.4437   4.4444   4.4450   4.4504   4.4510   4.4517   4.5742   4.5746
     4.8971   4.8975   4.8979   4.9686   5.2060   5.3169   5.3171   5.3173
     5.3175   5.3623   5.3630   5.3637   5.3823   5.3828   5.3833   5.4458
     5.4462   5.4467   5.4469   5.4474   5.4478   5.5941   5.5941   5.8029
     5.9243   5.9245   5.9253   5.9253   5.9258   5.9263   5.9331   5.9336
     5.9346   6.0368   6.0372   6.0377   6.2312   6.2315   6.2317   6.2327
     6.2332   6.6541   6.6553   6.6554   6.6557   6.6558   6.6570   7.0638
     7.0644   7.0645   7.0651   7.0669   7.0672   7.0676   7.1520   7.1523
     7.1524   7.1720   7.1724   7.1727   7.1729   7.1732   7.1733   7.1744
     7.1750   7.1759   7.2619   7.2631   7.2637   7.2637   7.2642   7.2655
     7.3068   7.3070   7.3072   7.3692   7.3700   7.3743   7.3746   7.3750
     7.3752   7.3757   7.3760   7.5653   7.5653   7.5653   7.6626   7.7416
     7.7419   7.7423   7.7491   7.7493   7.8555   7.8555   7.8993   7.8994
     7.8995   7.8996   7.9903   7.9906   7.9909   7.9998   7.9999   8.0278
     8.0283   8.0291   8.0292   8.0300   8.0305   8.0426   8.0429   8.0431
     9.0291  12.1667  12.1675  12.6884  12.6909  12.6918  12.6921  12.6929
    12.6953  12.8696  12.8715  12.8736  13.2466  13.2479  13.2491  13.4081
    13.6060  13.6088  13.6102  13.6118

          k =-0.0000-0.0000 0.0363 ( 63469 PWs)   bands (ev):

    -9.1645  -8.9777  -8.8417  -8.8409  -8.8404  -8.8059  -8.8044  -8.8039
    -8.6419  -8.6417  -8.6413  -8.6112  -8.6098  -8.6095  -8.4845  -8.4502
    -8.4494  -8.4451  -8.4358  -8.4305  -8.4116  -8.4103  -8.4047  -8.4015
    -8.3888  -8.3851  -8.3668  -8.3656  -8.3585  -8.3514  -8.3504  -8.3241
    -8.3235  -8.3230  -8.3221  -8.3214  -8.3208  -8.3091  -8.3038  -8.2669
    -8.2637  -8.2520  -8.2513  -8.2474  -8.1905  -8.1867  -8.1855  -8.1848
    -4.2998  -4.2900  -4.2856  -4.2810  -4.2806  -4.2794  -4.2785  -4.2779
    -4.2642  -4.2551  -4.2547  -4.2494  -4.2486  -4.2481  -4.2267  -4.2241
    -4.2230  -4.2224  -4.2157  -4.2153  -4.2104  -4.2070  -4.2008  -4.1982
    -4.1976  -4.1945  -4.1942  -4.1864  -4.1805  -4.1781  -4.1659  -4.1616
    -4.1614  -4.1611  -4.1607  -4.1547  -4.1539  -4.1536  -4.1501  -4.1492
    -4.1464  -4.1437  -4.1435  -4.1414  -4.1368  -4.1220  -4.1217  -4.1183
    -4.1172  -4.1165  -4.1038  -4.1015  -4.1010  -4.0987  -4.0927  -4.0924
    -4.0856  -4.0834  -4.0831  -4.0732  -4.0687  -4.0661  -4.0567  -4.0561
    -4.0466  -4.0431  -4.0370  -4.0315  -4.0276  -4.0271  -4.0267  -4.0226
    -4.0213  -4.0189  -4.0174  -4.0060  -4.0051  -3.9883  -3.9877  -3.9875
    -3.9871  -3.9823  -3.9715  -3.9706  -3.9692  -3.9682  -3.9599  -3.9593
    -3.9539  -3.9529  -3.9444  -3.9435  -3.9376  -3.9313  -3.9268  -3.9241
    -3.9098  -3.9028  -3.9013  -3.9010  -3.9000  -3.8951  -3.8943  -3.8936
    -3.8891  -3.8821  -3.8737  -3.8706  -3.8687  -3.8672  -3.8600  -3.8593
    -3.8585  -3.8576  -3.8448  -3.8442  -3.8403  -3.8395  -3.8309  -3.8229
    -3.8214  -3.8066  -3.8058  -3.7963  -3.7924  -3.7920  -3.7722  -3.7504
    -3.7278  -3.6956  -3.6898  -3.6889  -3.6645  -3.6258  -3.6245  -3.6241
    -3.5958  -3.5856  -3.5694  -3.5690  -3.5599  -3.5422  -3.5076  -3.5069
    -3.3657  -3.3643  -3.3270  -3.3261  -3.2646  -3.2192  -3.1998  -3.1217
    -3.1205  -3.1148  -3.0753  -3.0629  -2.9961  -2.9316  -2.9307  -2.9048
     2.7474   2.9956   3.0022   3.2056   3.2118   3.2160   3.3062   3.3069
     3.3107   3.3115   3.3859   3.3866   3.4962   3.5264   3.5763   3.5771
     3.6358   3.6362   3.8011   3.9354   3.9602   3.9609   3.9644   4.1345
     4.2510   4.2521   4.5249   4.5257   4.6145   4.6242   4.6333   4.6925
     4.7766   4.9849   4.9852   5.0988   5.1101   5.1268   5.1835   5.2839
     5.3119   5.3125   5.3223   5.3229   5.3657   5.3662   5.3954   5.4349
     5.5110   5.6207   5.6213   5.6568   5.6831   5.6896   5.8134   5.8141
     5.8439   5.8464   5.9722   5.9727   5.9733   6.0257   6.0265   6.1310
     6.1320   6.1639   6.1737   6.2036   6.2253   6.2518   6.2524   6.2661
     6.4156   6.4166   6.4837   6.5313   6.5402   6.5879   6.6421   6.6889
     6.6898   6.7814   6.7826   6.9018   6.9298   6.9369   6.9645   6.9660
     7.0099   7.0499   7.0505   7.1192   7.1195   7.1816   7.2069   7.2078
     7.2296   7.2303   7.2563   7.2589   7.2677   7.3027   7.3055   7.4354
     7.4391   7.4407   7.4736   7.4958   7.5360   7.5592   7.5602   7.5818
     7.5829   7.5835   7.6182   7.6287   7.6306   7.6576   7.6629   7.6647
     7.6737   7.7217   7.7228   7.7232   7.7881   7.7885   7.8023   7.8034
     7.8605   7.8855   7.9121   7.9125   7.9163   7.9180   7.9193   7.9204
     7.9324   7.9620   7.9631   7.9669   8.0122   8.0133   8.0406   8.0897
     9.9490  11.3469  12.1356  12.3779  12.3796  12.4936  12.5358  12.5378
    12.7631  13.2120  13.2147  13.4322  13.4350  13.5784  13.5999  13.6679
    13.6712  13.6727  13.7262  13.7434

          k =-0.0000 0.0339-0.0128 ( 63469 PWs)   bands (ev):

    -9.1645  -8.9776  -8.8415  -8.8410  -8.8406  -8.8058  -8.8045  -8.8040
    -8.6420  -8.6415  -8.6413  -8.6115  -8.6095  -8.6093  -8.4844  -8.4502
    -8.4495  -8.4449  -8.4357  -8.4307  -8.4117  -8.4104  -8.4046  -8.4013
    -8.3890  -8.3852  -8.3669  -8.3657  -8.3583  -8.3516  -8.3506  -8.3244
    -8.3233  -8.3228  -8.3225  -8.3212  -8.3206  -8.3092  -8.3036  -8.2666
    -8.2635  -8.2520  -8.2513  -8.2476  -8.1900  -8.1868  -8.1855  -8.1851
    -4.2998  -4.2899  -4.2855  -4.2811  -4.2806  -4.2794  -4.2785  -4.2781
    -4.2641  -4.2551  -4.2547  -4.2494  -4.2487  -4.2481  -4.2269  -4.2239
    -4.2230  -4.2225  -4.2156  -4.2153  -4.2103  -4.2070  -4.2007  -4.1984
    -4.1976  -4.1944  -4.1942  -4.1866  -4.1804  -4.1782  -4.1660  -4.1616
    -4.1615  -4.1609  -4.1608  -4.1547  -4.1541  -4.1536  -4.1502  -4.1491
    -4.1465  -4.1438  -4.1434  -4.1412  -4.1369  -4.1220  -4.1216  -4.1184
    -4.1174  -4.1167  -4.1038  -4.1015  -4.1010  -4.0987  -4.0925  -4.0921
    -4.0856  -4.0833  -4.0830  -4.0732  -4.0688  -4.0662  -4.0570  -4.0561
    -4.0466  -4.0431  -4.0370  -4.0315  -4.0275  -4.0270  -4.0267  -4.0225
    -4.0214  -4.0190  -4.0174  -4.0059  -4.0050  -3.9884  -3.9877  -3.9875
    -3.9872  -3.9824  -3.9715  -3.9708  -3.9691  -3.9683  -3.9598  -3.9592
    -3.9539  -3.9530  -3.9444  -3.9434  -3.9376  -3.9314  -3.9268  -3.9241
    -3.9099  -3.9028  -3.9015  -3.9006  -3.9001  -3.8950  -3.8945  -3.8935
    -3.8890  -3.8821  -3.8737  -3.8706  -3.8687  -3.8671  -3.8602  -3.8591
    -3.8584  -3.8579  -3.8447  -3.8443  -3.8404  -3.8394  -3.8309  -3.8229
    -3.8214  -3.8065  -3.8058  -3.7963  -3.7924  -3.7922  -3.7722  -3.7505
    -3.7278  -3.6954  -3.6900  -3.6890  -3.6646  -3.6257  -3.6244  -3.6240
    -3.5957  -3.5857  -3.5695  -3.5691  -3.5599  -3.5422  -3.5075  -3.5069
    -3.3658  -3.3644  -3.3271  -3.3262  -3.2647  -3.2190  -3.1996  -3.1217
    -3.1205  -3.1147  -3.0753  -3.0629  -2.9961  -2.9315  -2.9307  -2.9050
     2.7472   2.9959   3.0027   3.2069   3.2125   3.2155   3.3053   3.3066
     3.3102   3.3107   3.3863   3.3869   3.4965   3.5258   3.5764   3.5772
     3.6356   3.6360   3.8005   3.9354   3.9601   3.9609   3.9638   4.1341
     4.2515   4.2526   4.5254   4.5262   4.6145   4.6242   4.6331   4.6926
     4.7768   4.9848   4.9851   5.0990   5.1106   5.1269   5.1834   5.2843
     5.3112   5.3117   5.3220   5.3226   5.3661   5.3666   5.3949   5.4350
     5.5103   5.6202   5.6208   5.6560   5.6828   5.6899   5.8132   5.8139
     5.8440   5.8474   5.9727   5.9731   5.9739   6.0264   6.0272   6.1312
     6.1322   6.1634   6.1743   6.2037   6.2257   6.2523   6.2529   6.2647
     6.4164   6.4174   6.4839   6.5317   6.5399   6.5868   6.6422   6.6883
     6.6892   6.7811   6.7823   6.9014   6.9290   6.9378   6.9639   6.9653
     7.0098   7.0500   7.0505   7.1190   7.1193   7.1818   7.2070   7.2078
     7.2297   7.2304   7.2558   7.2593   7.2677   7.3033   7.3060   7.4353
     7.4388   7.4404   7.4738   7.4954   7.5358   7.5595   7.5605   7.5821
     7.5830   7.5839   7.6180   7.6284   7.6304   7.6575   7.6625   7.6642
     7.6742   7.7217   7.7225   7.7232   7.7883   7.7887   7.8024   7.8034
     7.8605   7.8856   7.9122   7.9127   7.9164   7.9179   7.9195   7.9206
     7.9322   7.9619   7.9631   7.9672   8.0119   8.0130   8.0407   8.0898
     9.9490  11.3470  12.1354  12.3779  12.3795  12.4935  12.5357  12.5377
    12.7634  13.2120  13.2147  13.4319  13.4347  13.5784  13.6002  13.6689
    13.6700  13.6734  13.7266  13.7416

          k =-0.0000 0.0339 0.0234 ( 63470 PWs)   bands (ev):

    -9.1466  -8.9555  -8.8746  -8.8732  -8.8624  -8.8623  -8.7790  -8.7786
    -8.6514  -8.6510  -8.5898  -8.5897  -8.5720  -8.5704  -8.5501  -8.4619
    -8.4552  -8.4551  -8.4375  -8.4374  -8.4251  -8.4231  -8.4219  -8.4061
    -8.3905  -8.3904  -8.3585  -8.3531  -8.3451  -8.3364  -8.3363  -8.3264
    -8.3222  -8.3137  -8.3049  -8.2993  -8.2992  -8.2846  -8.2840  -8.2828
    -8.2715  -8.2714  -8.2621  -8.2358  -8.2136  -8.1988  -8.1984  -8.1920
    -4.3091  -4.2933  -4.2834  -4.2784  -4.2750  -4.2745  -4.2736  -4.2733
    -4.2709  -4.2514  -4.2510  -4.2486  -4.2483  -4.2376  -4.2349  -4.2306
    -4.2255  -4.2160  -4.2128  -4.2111  -4.2108  -4.2062  -4.2019  -4.2018
    -4.1992  -4.1864  -4.1823  -4.1818  -4.1814  -4.1778  -4.1757  -4.1708
    -4.1690  -4.1686  -4.1662  -4.1578  -4.1576  -4.1479  -4.1477  -4.1474
    -4.1463  -4.1459  -4.1431  -4.1429  -4.1314  -4.1273  -4.1188  -4.1187
    -4.1145  -4.1061  -4.1057  -4.1009  -4.0993  -4.0989  -4.0970  -4.0965
    -4.0818  -4.0812  -4.0807  -4.0806  -4.0799  -4.0764  -4.0623  -4.0514
    -4.0480  -4.0350  -4.0339  -4.0326  -4.0325  -4.0303  -4.0190  -4.0143
    -4.0051  -4.0045  -4.0044  -4.0013  -4.0007  -3.9917  -3.9916  -3.9796
    -3.9787  -3.9782  -3.9775  -3.9742  -3.9739  -3.9716  -3.9601  -3.9595
    -3.9592  -3.9582  -3.9577  -3.9415  -3.9413  -3.9363  -3.9305  -3.9276
    -3.9195  -3.9080  -3.9034  -3.9025  -3.9020  -3.9009  -3.9004  -3.8903
    -3.8874  -3.8768  -3.8689  -3.8679  -3.8602  -3.8587  -3.8559  -3.8553
    -3.8526  -3.8519  -3.8485  -3.8473  -3.8468  -3.8455  -3.8449  -3.8129
    -3.8050  -3.8046  -3.7886  -3.7856  -3.7848  -3.7659  -3.7655  -3.7555
    -3.7460  -3.7457  -3.7177  -3.7172  -3.6905  -3.6738  -3.6705  -3.6511
    -3.6400  -3.6399  -3.5536  -3.5206  -3.5197  -3.5051  -3.4055  -3.4055
    -3.3809  -3.3098  -3.3069  -3.3066  -3.2569  -3.2261  -3.2259  -3.2008
    -3.2005  -3.1444  -3.0435  -3.0243  -2.9665  -2.9662  -2.9457  -2.8879
     2.7535   3.0205   3.0733   3.1358   3.1368   3.1635   3.3372   3.3794
     3.3805   3.3818   3.3961   3.3970   3.4054   3.4215   3.5323   3.6186
     3.6186   3.7423   3.7430   3.8943   4.0175   4.0448   4.0589   4.0596
     4.2131   4.2133   4.3994   4.3996   4.5604   4.6215   4.7940   4.8364
     4.9089   4.9398   5.0455   5.0738   5.0743   5.1783   5.1786   5.2223
     5.2245   5.2251   5.2799   5.2803   5.2918   5.3812   5.3813   5.3990
     5.4620   5.5395   5.6535   5.6543   5.7259   5.7405   5.7408   5.7855
     5.7916   5.7933   5.8816   5.9641   6.0603   6.0958   6.0965   6.1510
     6.1649   6.1800   6.2481   6.2524   6.2533   6.4275   6.4285   6.4336
     6.4538   6.4932   6.4940   6.4964   6.5161   6.7033   6.7199   6.7412
     6.7414   6.7921   6.7921   6.8533   6.9544   6.9546   6.9726   6.9778
     6.9810   7.0197   7.0199   7.0479   7.0480   7.0545   7.0802   7.0899
     7.1098   7.2367   7.2371   7.2378   7.2381   7.3046   7.3061   7.3068
     7.3879   7.4025   7.4350   7.4584   7.4588   7.4959   7.5207   7.5208
     7.5566   7.5984   7.6031   7.6262   7.6644   7.6648   7.6821   7.7097
     7.7119   7.7637   7.7660   7.7667   7.8040   7.8064   7.8103   7.8283
     7.8284   7.8991   7.8992   7.9071   7.9135   7.9342   7.9613   7.9615
     7.9743   7.9785   7.9786   7.9970   8.0089   8.0145   8.0574   8.0575
    10.1461  11.7341  11.7907  11.9673  12.0659  12.0661  13.0137  13.0595
    13.0597  13.3154  13.3175  13.3595  13.3605  13.5149  13.5183  13.5825
    13.6417  13.6833  13.6841  13.8718

          k =-0.0000 0.0339-0.0491 ( 63467 PWs)   bands (ev):

    -9.0585  -9.0116  -9.0115  -8.8841  -8.8840  -8.7260  -8.7161  -8.7156
    -8.7148  -8.7143  -8.7016  -8.5716  -8.5711  -8.4934  -8.4934  -8.4567
    -8.4478  -8.4263  -8.4204  -8.4202  -8.4185  -8.4184  -8.4135  -8.4124
    -8.3958  -8.3955  -8.3862  -8.3854  -8.3744  -8.3687  -8.3686  -8.3622
    -8.3106  -8.3100  -8.3044  -8.3041  -8.2991  -8.2609  -8.2598  -8.2587
    -8.2531  -8.2527  -8.2284  -8.2277  -8.2272  -8.2266  -8.2198  -8.2196
    -4.2918  -4.2915  -4.2822  -4.2812  -4.2768  -4.2748  -4.2691  -4.2688
    -4.2672  -4.2559  -4.2528  -4.2526  -4.2414  -4.2411  -4.2311  -4.2308
    -4.2253  -4.2249  -4.2211  -4.2203  -4.2200  -4.2135  -4.2067  -4.2061
    -4.1921  -4.1917  -4.1915  -4.1828  -4.1822  -4.1735  -4.1729  -4.1722
    -4.1632  -4.1626  -4.1607  -4.1574  -4.1569  -4.1562  -4.1533  -4.1531
    -4.1513  -4.1511  -4.1325  -4.1321  -4.1306  -4.1299  -4.1166  -4.1159
    -4.1114  -4.1111  -4.0959  -4.0956  -4.0942  -4.0935  -4.0926  -4.0912
    -4.0906  -4.0837  -4.0669  -4.0664  -4.0610  -4.0605  -4.0586  -4.0515
    -4.0443  -4.0284  -4.0278  -4.0271  -4.0266  -4.0198  -4.0192  -4.0115
    -4.0090  -4.0058  -4.0053  -4.0039  -4.0032  -4.0024  -4.0000  -3.9993
    -3.9854  -3.9844  -3.9839  -3.9811  -3.9743  -3.9741  -3.9648  -3.9645
    -3.9628  -3.9535  -3.9533  -3.9521  -3.9401  -3.9398  -3.9392  -3.9382
    -3.9255  -3.9250  -3.9210  -3.9207  -3.9188  -3.8879  -3.8875  -3.8827
    -3.8811  -3.8809  -3.8713  -3.8701  -3.8564  -3.8560  -3.8526  -3.8525
    -3.8476  -3.8469  -3.8385  -3.8353  -3.8341  -3.8334  -3.8304  -3.8301
    -3.7855  -3.7821  -3.7812  -3.7773  -3.7770  -3.7758  -3.7587  -3.7584
    -3.7426  -3.7423  -3.7167  -3.7160  -3.6881  -3.6797  -3.6795  -3.6601
    -3.6229  -3.6219  -3.6049  -3.6032  -3.5803  -3.4896  -3.4522  -3.4521
    -3.3608  -3.3603  -3.2767  -3.2508  -3.2497  -3.1819  -3.1814  -3.1483
    -3.1222  -3.0998  -3.0656  -3.0652  -2.9737  -2.9733  -2.9576  -2.9572
     2.9177   3.0071   3.0076   3.0329   3.1875   3.1881   3.2286   3.2300
     3.4645   3.4658   3.4971   3.5516   3.5521   3.5553   3.5564   3.6151
     3.7070   3.7081   3.7305   3.7311   3.7721   3.8897   3.9028   3.9040
     3.9320   4.2400   4.2405   4.6839   4.7792   4.7794   4.8928   4.8931
     4.9956   4.9962   5.0392   5.0510   5.0513   5.1497   5.1503   5.1774
     5.1777   5.1922   5.2697   5.3512   5.3514   5.3655   5.3662   5.3916
     5.5086   5.6334   5.6348   5.6812   5.6817   5.7589   5.7593   5.7694
     5.7701   5.8103   5.9043   5.9052   5.9472   5.9479   6.1477   6.1641
     6.1784   6.1793   6.2352   6.3371   6.3383   6.4215   6.4217   6.4798
     6.5160   6.5166   6.5181   6.5201   6.5214   6.5540   6.7077   6.7085
     6.7142   6.8686   6.8689   6.8832   6.8837   6.8879   6.8879   6.9181
     6.9181   7.0406   7.0436   7.0506   7.0520   7.1048   7.1059   7.1511
     7.1906   7.2048   7.2059   7.2166   7.2175   7.3505   7.3508   7.3555
     7.3561   7.3607   7.3620   7.3733   7.4127   7.4608   7.4611   7.5700
     7.5775   7.5785   7.6041   7.6046   7.6119   7.6543   7.7038   7.7048
     7.7177   7.7181   7.8212   7.8216   7.8270   7.8275   7.8298   7.8715
     7.8720   7.8812   7.8814   7.8989   7.8994   7.9234   7.9428   7.9446
     7.9454   7.9559   7.9580   7.9588   8.0020   8.0366   8.0368   8.0923
    10.8422  11.1960  11.1963  11.9963  11.9985  12.8891  12.8907  12.9163
    13.0065  13.0084  13.2721  13.2753  13.5471  13.5630  13.5646  13.6401
    13.6426  13.6758  13.6783  13.8505

          k = 0.0283-0.0186-0.0128 ( 63469 PWs)   bands (ev):

    -9.1645  -8.9777  -8.8416  -8.8408  -8.8406  -8.8059  -8.8042  -8.8041
    -8.6421  -8.6416  -8.6412  -8.6114  -8.6096  -8.6093  -8.4844  -8.4500
    -8.4498  -8.4449  -8.4358  -8.4305  -8.4112  -8.4110  -8.4045  -8.4014
    -8.3888  -8.3852  -8.3663  -8.3662  -8.3584  -8.3510  -8.3509  -8.3243
    -8.3235  -8.3228  -8.3223  -8.3214  -8.3205  -8.3092  -8.3037  -8.2669
    -8.2635  -8.2519  -8.2515  -8.2474  -8.1903  -8.1869  -8.1854  -8.1849
    -4.2998  -4.2899  -4.2856  -4.2810  -4.2807  -4.2796  -4.2784  -4.2779
    -4.2642  -4.2550  -4.2548  -4.2491  -4.2485  -4.2483  -4.2270  -4.2243
    -4.2230  -4.2220  -4.2156  -4.2154  -4.2103  -4.2071  -4.2007  -4.1982
    -4.1978  -4.1944  -4.1941  -4.1865  -4.1804  -4.1781  -4.1660  -4.1616
    -4.1615  -4.1611  -4.1608  -4.1548  -4.1540  -4.1536  -4.1500  -4.1493
    -4.1465  -4.1435  -4.1434  -4.1414  -4.1369  -4.1219  -4.1217  -4.1183
    -4.1170  -4.1169  -4.1038  -4.1014  -4.1011  -4.0987  -4.0925  -4.0922
    -4.0856  -4.0834  -4.0830  -4.0731  -4.0688  -4.0662  -4.0569  -4.0562
    -4.0466  -4.0431  -4.0370  -4.0315  -4.0273  -4.0271  -4.0270  -4.0222
    -4.0216  -4.0189  -4.0173  -4.0056  -4.0055  -3.9881  -3.9878  -3.9874
    -3.9873  -3.9824  -3.9715  -3.9707  -3.9688  -3.9686  -3.9597  -3.9595
    -3.9539  -3.9529  -3.9440  -3.9438  -3.9376  -3.9314  -3.9267  -3.9242
    -3.9099  -3.9027  -3.9012  -3.9008  -3.9002  -3.8948  -3.8945  -3.8939
    -3.8890  -3.8822  -3.8738  -3.8708  -3.8685  -3.8669  -3.8601  -3.8592
    -3.8586  -3.8578  -3.8447  -3.8443  -3.8401  -3.8397  -3.8309  -3.8225
    -3.8219  -3.8064  -3.8059  -3.7964  -3.7931  -3.7915  -3.7722  -3.7504
    -3.7278  -3.6955  -3.6895  -3.6893  -3.6645  -3.6258  -3.6244  -3.6241
    -3.5957  -3.5856  -3.5693  -3.5693  -3.5599  -3.5422  -3.5075  -3.5069
    -3.3655  -3.3646  -3.3268  -3.3264  -3.2647  -3.2191  -3.1997  -3.1213
    -3.1209  -3.1148  -3.0753  -3.0629  -2.9961  -2.9313  -2.9310  -2.9049
     2.7473   2.9957   3.0025   3.2063   3.2121   3.2157   3.3057   3.3071
     3.3103   3.3109   3.3863   3.3866   3.4963   3.5261   3.5765   3.5770
     3.6354   3.6363   3.8008   3.9354   3.9603   3.9607   3.9642   4.1343
     4.2516   4.2520   4.5255   4.5256   4.6145   4.6242   4.6332   4.6926
     4.7767   4.9849   4.9851   5.0989   5.1104   5.1269   5.1834   5.2841
     5.3116   5.3120   5.3223   5.3227   5.3660   5.3662   5.3952   5.4349
     5.5107   5.6207   5.6208   5.6564   5.6829   5.6898   5.8135   5.8137
     5.8440   5.8469   5.9728   5.9730   5.9731   6.0261   6.0268   6.1315
     6.1317   6.1637   6.1740   6.2037   6.2255   6.2520   6.2527   6.2654
     6.4165   6.4165   6.4837   6.5315   6.5400   6.5873   6.6421   6.6888
     6.6893   6.7818   6.7819   6.9016   6.9294   6.9374   6.9648   6.9650
     7.0098   7.0502   7.0503   7.1192   7.1193   7.1817   7.2069   7.2078
     7.2297   7.2304   7.2560   7.2591   7.2677   7.3030   7.3057   7.4354
     7.4397   7.4398   7.4737   7.4956   7.5359   7.5596   7.5601   7.5817
     7.5830   7.5839   7.6181   7.6287   7.6303   7.6575   7.6635   7.6637
     7.6740   7.7223   7.7225   7.7228   7.7882   7.7885   7.8025   7.8032
     7.8605   7.8855   7.9123   7.9124   7.9166   7.9179   7.9198   7.9199
     7.9323   7.9625   7.9626   7.9670   8.0125   8.0127   8.0406   8.0897
     9.9490  11.3469  12.1355  12.3783  12.3791  12.4935  12.5364  12.5370
    12.7633  13.2125  13.2143  13.4321  13.4348  13.5782  13.6002  13.6680
    13.6695  13.6742  13.7267  13.7435

          k = 0.0283-0.0186 0.0234 ( 63470 PWs)   bands (ev):

    -9.1466  -8.9554  -8.8746  -8.8732  -8.8626  -8.8623  -8.7791  -8.7786
    -8.6515  -8.6508  -8.5900  -8.5893  -8.5718  -8.5703  -8.5502  -8.4618
    -8.4558  -8.4547  -8.4379  -8.4370  -8.4251  -8.4233  -8.4217  -8.4062
    -8.3909  -8.3900  -8.3583  -8.3530  -8.3453  -8.3372  -8.3355  -8.3264
    -8.3223  -8.3135  -8.3049  -8.2997  -8.2989  -8.2847  -8.2842  -8.2828
    -8.2719  -8.2710  -8.2623  -8.2356  -8.2136  -8.1988  -8.1985  -8.1918
    -4.3091  -4.2933  -4.2833  -4.2785  -4.2752  -4.2740  -4.2738  -4.2734
    -4.2709  -4.2512  -4.2510  -4.2488  -4.2484  -4.2376  -4.2348  -4.2306
    -4.2255  -4.2160  -4.2127  -4.2112  -4.2107  -4.2062  -4.2022  -4.2015
    -4.1992  -4.1865  -4.1824  -4.1821  -4.1810  -4.1778  -4.1758  -4.1709
    -4.1690  -4.1686  -4.1661  -4.1581  -4.1571  -4.1484  -4.1477  -4.1471
    -4.1464  -4.1457  -4.1433  -4.1427  -4.1314  -4.1273  -4.1187  -4.1186
    -4.1145  -4.1062  -4.1056  -4.1009  -4.0995  -4.0989  -4.0970  -4.0963
    -4.0820  -4.0812  -4.0808  -4.0805  -4.0799  -4.0764  -4.0623  -4.0514
    -4.0481  -4.0349  -4.0341  -4.0329  -4.0321  -4.0305  -4.0191  -4.0144
    -4.0054  -4.0049  -4.0037  -4.0013  -4.0006  -3.9922  -3.9911  -3.9792
    -3.9790  -3.9785  -3.9773  -3.9745  -3.9735  -3.9718  -3.9602  -3.9598
    -3.9592  -3.9583  -3.9573  -3.9419  -3.9408  -3.9364  -3.9304  -3.9277
    -3.9195  -3.9080  -3.9034  -3.9027  -3.9019  -3.9009  -3.9002  -3.8903
    -3.8873  -3.8767  -3.8692  -3.8676  -3.8599  -3.8592  -3.8560  -3.8548
    -3.8529  -3.8518  -3.8487  -3.8473  -3.8468  -3.8455  -3.8449  -3.8130
    -3.8052  -3.8044  -3.7885  -3.7856  -3.7848  -3.7664  -3.7650  -3.7555
    -3.7460  -3.7457  -3.7176  -3.7172  -3.6906  -3.6739  -3.6705  -3.6511
    -3.6405  -3.6393  -3.5536  -3.5203  -3.5198  -3.5051  -3.4063  -3.4050
    -3.3808  -3.3097  -3.3076  -3.3060  -3.2569  -3.2264  -3.2254  -3.2011
    -3.2004  -3.1443  -3.0435  -3.0243  -2.9667  -2.9660  -2.9457  -2.8879
     2.7537   3.0212   3.0732   3.1359   3.1366   3.1632   3.3376   3.3791
     3.3806   3.3813   3.3958   3.3971   3.4051   3.4211   3.5327   3.6178
     3.6191   3.7419   3.7431   3.8944   4.0173   4.0447   4.0591   4.0598
     4.2133   4.2136   4.3992   4.4004   4.5604   4.6213   4.7938   4.8363
     4.9088   4.9397   5.0457   5.0739   5.0741   5.1779   5.1791   5.2221
     5.2245   5.2252   5.2797   5.2803   5.2916   5.3810   5.3814   5.3991
     5.4621   5.5398   5.6531   5.6544   5.7256   5.7403   5.7410   5.7857
     5.7919   5.7928   5.8814   5.9645   6.0605   6.0958   6.0968   6.1511
     6.1646   6.1799   6.2479   6.2527   6.2535   6.4278   6.4287   6.4331
     6.4539   6.4935   6.4942   6.4966   6.5162   6.7033   6.7199   6.7407
     6.7419   6.7910   6.7923   6.8532   6.9536   6.9549   6.9727   6.9779
     6.9814   7.0193   7.0204   7.0478   7.0485   7.0544   7.0804   7.0899
     7.1097   7.2361   7.2373   7.2376   7.2381   7.3050   7.3058   7.3069
     7.3879   7.4024   7.4349   7.4583   7.4589   7.4954   7.5206   7.5213
     7.5570   7.5982   7.6028   7.6263   7.6642   7.6650   7.6823   7.7096
     7.7118   7.7637   7.7661   7.7666   7.8041   7.8063   7.8103   7.8283
     7.8285   7.8990   7.8992   7.9071   7.9134   7.9341   7.9610   7.9618
     7.9745   7.9785   7.9788   7.9970   8.0090   8.0145   8.0565   8.0582
    10.1461  11.7341  11.7908  11.9675  12.0653  12.0667  13.0136  13.0581
    13.0609  13.3150  13.3183  13.3587  13.3612  13.5146  13.5181  13.5827
    13.6421  13.6828  13.6852  13.8723

          k = 0.0283-0.0186-0.0491 ( 63467 PWs)   bands (ev):

    -9.0585  -9.0121  -9.0109  -8.8843  -8.8840  -8.7259  -8.7163  -8.7158
    -8.7145  -8.7143  -8.7016  -8.5713  -8.5711  -8.4942  -8.4928  -8.4567
    -8.4478  -8.4259  -8.4208  -8.4204  -8.4185  -8.4181  -8.4130  -8.4127
    -8.3957  -8.3956  -8.3860  -8.3858  -8.3744  -8.3695  -8.3681  -8.3621
    -8.3105  -8.3097  -8.3045  -8.3039  -8.2993  -8.2611  -8.2599  -8.2588
    -8.2530  -8.2528  -8.2284  -8.2279  -8.2275  -8.2263  -8.2204  -8.2189
    -4.2921  -4.2912  -4.2820  -4.2814  -4.2769  -4.2745  -4.2689  -4.2687
    -4.2675  -4.2558  -4.2529  -4.2528  -4.2415  -4.2410  -4.2312  -4.2307
    -4.2252  -4.2247  -4.2216  -4.2204  -4.2198  -4.2135  -4.2067  -4.2061
    -4.1925  -4.1916  -4.1911  -4.1828  -4.1823  -4.1734  -4.1728  -4.1722
    -4.1632  -4.1627  -4.1607  -4.1571  -4.1569  -4.1565  -4.1534  -4.1530
    -4.1513  -4.1512  -4.1325  -4.1322  -4.1307  -4.1299  -4.1167  -4.1160
    -4.1114  -4.1110  -4.0959  -4.0956  -4.0942  -4.0934  -4.0926  -4.0910
    -4.0907  -4.0837  -4.0669  -4.0664  -4.0613  -4.0604  -4.0586  -4.0514
    -4.0443  -4.0284  -4.0277  -4.0273  -4.0266  -4.0197  -4.0190  -4.0116
    -4.0091  -4.0057  -4.0054  -4.0037  -4.0032  -4.0026  -4.0000  -3.9993
    -3.9854  -3.9845  -3.9839  -3.9809  -3.9744  -3.9741  -3.9647  -3.9644
    -3.9630  -3.9538  -3.9532  -3.9518  -3.9402  -3.9401  -3.9388  -3.9383
    -3.9254  -3.9249  -3.9212  -3.9208  -3.9187  -3.8880  -3.8874  -3.8828
    -3.8811  -3.8809  -3.8709  -3.8705  -3.8565  -3.8559  -3.8529  -3.8522
    -3.8476  -3.8469  -3.8384  -3.8353  -3.8341  -3.8334  -3.8306  -3.8300
    -3.7855  -3.7820  -3.7813  -3.7773  -3.7770  -3.7756  -3.7588  -3.7584
    -3.7428  -3.7422  -3.7165  -3.7161  -3.6881  -3.6799  -3.6794  -3.6601
    -3.6228  -3.6220  -3.6044  -3.6037  -3.5803  -3.4899  -3.4524  -3.4517
    -3.3612  -3.3598  -3.2765  -3.2506  -3.2500  -3.1821  -3.1811  -3.1485
    -3.1222  -3.0997  -3.0656  -3.0652  -2.9743  -2.9727  -2.9578  -2.9570
     2.9178   3.0071   3.0085   3.0327   3.1874   3.1878   3.2285   3.2293
     3.4644   3.4655   3.4972   3.5520   3.5522   3.5554   3.5562   3.6151
     3.7076   3.7080   3.7302   3.7311   3.7721   3.8896   3.9031   3.9038
     3.9322   4.2403   4.2406   4.6840   4.7787   4.7798   4.8925   4.8930
     4.9957   4.9961   5.0392   5.0509   5.0515   5.1497   5.1502   5.1773
     5.1776   5.1922   5.2695   5.3511   5.3515   5.3655   5.3662   5.3918
     5.5087   5.6337   5.6343   5.6811   5.6819   5.7589   5.7595   5.7695
     5.7700   5.8107   5.9042   5.9048   5.9475   5.9480   6.1477   6.1642
     6.1784   6.1791   6.2350   6.3373   6.3381   6.4209   6.4214   6.4793
     6.5160   6.5172   6.5176   6.5205   6.5212   6.5541   6.7077   6.7087
     6.7141   6.8679   6.8696   6.8829   6.8839   6.8878   6.8886   6.9180
     6.9187   7.0408   7.0438   7.0508   7.0521   7.1052   7.1054   7.1509
     7.1903   7.2049   7.2054   7.2165   7.2181   7.3499   7.3509   7.3557
     7.3562   7.3612   7.3619   7.3729   7.4127   7.4597   7.4614   7.5701
     7.5777   7.5784   7.6038   7.6045   7.6117   7.6544   7.7041   7.7048
     7.7172   7.7184   7.8208   7.8218   7.8271   7.8274   7.8298   7.8719
     7.8720   7.8809   7.8819   7.8990   7.8993   7.9233   7.9429   7.9448
     7.9451   7.9558   7.9582   7.9586   8.0018   8.0365   8.0371   8.0922
    10.8423  11.1951  11.1972  11.9969  11.9982  12.8890  12.8908  12.9163
    13.0065  13.0084  13.2722  13.2753  13.5470  13.5629  13.5648  13.6400
    13.6427  13.6756  13.6787  13.8505

          k = 0.0283 0.0153-0.0257 ( 63470 PWs)   bands (ev):

    -9.1466  -8.9556  -8.8745  -8.8732  -8.8625  -8.8621  -8.7790  -8.7785
    -8.6516  -8.6508  -8.5902  -8.5895  -8.5721  -8.5706  -8.5499  -8.4619
    -8.4557  -8.4547  -8.4378  -8.4370  -8.4250  -8.4234  -8.4217  -8.4060
    -8.3909  -8.3900  -8.3585  -8.3531  -8.3449  -8.3373  -8.3356  -8.3262
    -8.3223  -8.3138  -8.3050  -8.2996  -8.2988  -8.2847  -8.2843  -8.2824
    -8.2718  -8.2710  -8.2619  -8.2359  -8.2137  -8.1988  -8.1984  -8.1922
    -4.3092  -4.2933  -4.2834  -4.2784  -4.2753  -4.2741  -4.2737  -4.2732
    -4.2710  -4.2511  -4.2509  -4.2487  -4.2483  -4.2376  -4.2349  -4.2304
    -4.2255  -4.2162  -4.2128  -4.2112  -4.2107  -4.2062  -4.2022  -4.2015
    -4.1993  -4.1864  -4.1825  -4.1819  -4.1810  -4.1778  -4.1757  -4.1709
    -4.1689  -4.1684  -4.1662  -4.1583  -4.1573  -4.1484  -4.1476  -4.1472
    -4.1464  -4.1457  -4.1432  -4.1425  -4.1314  -4.1273  -4.1188  -4.1187
    -4.1147  -4.1062  -4.1056  -4.1009  -4.0996  -4.0989  -4.0970  -4.0963
    -4.0820  -4.0812  -4.0808  -4.0806  -4.0799  -4.0763  -4.0622  -4.0514
    -4.0479  -4.0348  -4.0340  -4.0330  -4.0321  -4.0303  -4.0190  -4.0143
    -4.0053  -4.0050  -4.0036  -4.0014  -4.0007  -3.9922  -3.9912  -3.9793
    -3.9789  -3.9785  -3.9772  -3.9746  -3.9735  -3.9718  -3.9604  -3.9597
    -3.9588  -3.9583  -3.9575  -3.9420  -3.9409  -3.9363  -3.9304  -3.9277
    -3.9195  -3.9080  -3.9036  -3.9025  -3.9019  -3.9010  -3.9001  -3.8902
    -3.8873  -3.8767  -3.8693  -3.8676  -3.8599  -3.8592  -3.8559  -3.8548
    -3.8529  -3.8517  -3.8486  -3.8473  -3.8468  -3.8454  -3.8450  -3.8130
    -3.8052  -3.8043  -3.7885  -3.7856  -3.7848  -3.7664  -3.7650  -3.7555
    -3.7460  -3.7457  -3.7177  -3.7173  -3.6904  -3.6738  -3.6705  -3.6511
    -3.6406  -3.6394  -3.5536  -3.5205  -3.5199  -3.5051  -3.4060  -3.4047
    -3.3810  -3.3098  -3.3076  -3.3059  -3.2570  -3.2266  -3.2256  -3.2010
    -3.2003  -3.1443  -3.0435  -3.0242  -2.9667  -2.9660  -2.9458  -2.8878
     2.7533   3.0199   3.0734   3.1360   3.1367   3.1638   3.3368   3.3792
     3.3811   3.3821   3.3959   3.3973   3.4055   3.4217   3.5319   3.6181
     3.6194   3.7423   3.7434   3.8942   4.0177   4.0449   4.0587   4.0593
     4.2128   4.2131   4.3986   4.3998   4.5603   4.6217   4.7942   4.8364
     4.9089   4.9399   5.0453   5.0740   5.0742   5.1779   5.1791   5.2223
     5.2245   5.2251   5.2799   5.2805   5.2920   5.3810   5.3814   5.3989
     5.4618   5.5392   5.6534   5.6548   5.7261   5.7402   5.7410   5.7854
     5.7920   5.7929   5.8819   5.9638   6.0601   6.0955   6.0965   6.1510
     6.1652   6.1802   6.2482   6.2522   6.2531   6.4273   6.4282   6.4340
     6.4538   6.4929   6.4938   6.4963   6.5160   6.7032   6.7199   6.7406
     6.7419   6.7918   6.7932   6.8533   6.9540   6.9553   6.9726   6.9776
     6.9807   7.0193   7.0203   7.0474   7.0481   7.0547   7.0801   7.0898
     7.1099   7.2363   7.2375   7.2378   7.2386   7.3046   7.3058   7.3068
     7.3880   7.4026   7.4350   7.4583   7.4589   7.4963   7.5203   7.5210
     7.5562   7.5985   7.6035   7.6260   7.6642   7.6650   7.6817   7.7097
     7.7122   7.7637   7.7661   7.7666   7.8040   7.8064   7.8104   7.8283
     7.8285   7.8991   7.8992   7.9070   7.9137   7.9343   7.9609   7.9617
     7.9741   7.9784   7.9785   7.9968   8.0087   8.0146   8.0567   8.0585
    10.1461  11.7342  11.7906  11.9672  12.0653  12.0667  13.0138  13.0584
    13.0611  13.3145  13.3178  13.3589  13.3614  13.5151  13.5186  13.5823
    13.6414  13.6825  13.6850  13.8720

          k = 0.0283 0.0153 0.0106 ( 63420 PWs)   bands (ev):

    -9.1687  -8.9873  -8.8357  -8.8354  -8.8351  -8.7947  -8.7945  -8.7942
    -8.6539  -8.6534  -8.6529  -8.6149  -8.6143  -8.6137  -8.4675  -8.4664
    -8.4654  -8.4528  -8.4383  -8.4372  -8.4364  -8.4322  -8.4319  -8.3977
    -8.3974  -8.3312  -8.3306  -8.3300  -8.3264  -8.3258  -8.3254  -8.3240
    -8.3237  -8.3234  -8.3205  -8.3201  -8.3195  -8.3001  -8.2998  -8.2659
    -8.2654  -8.2649  -8.2629  -8.2626  -8.2407  -8.1892  -8.1889  -8.1886
    -4.3044  -4.3043  -4.2810  -4.2803  -4.2797  -4.2770  -4.2764  -4.2759
    -4.2691  -4.2690  -4.2500  -4.2497  -4.2494  -4.2324  -4.2321  -4.2318
    -4.2285  -4.2281  -4.2277  -4.2164  -4.2101  -4.2099  -4.2096  -4.2050
    -4.1981  -4.1779  -4.1776  -4.1772  -4.1762  -4.1753  -4.1744  -4.1689
    -4.1687  -4.1658  -4.1657  -4.1521  -4.1513  -4.1507  -4.1305  -4.1302
    -4.1296  -4.1289  -4.1219  -4.1215  -4.1212  -4.1153  -4.1148  -4.1144
    -4.1131  -4.1129  -4.1125  -4.1002  -4.1000  -4.0997  -4.0887  -4.0884
    -4.0882  -4.0880  -4.0877  -4.0875  -4.0872  -4.0868  -4.0697  -4.0696
    -4.0484  -4.0480  -4.0477  -4.0456  -4.0455  -4.0233  -4.0233  -4.0168
    -4.0161  -4.0154  -3.9856  -3.9851  -3.9847  -3.9790  -3.9783  -3.9778
    -3.9719  -3.9714  -3.9707  -3.9674  -3.9673  -3.9672  -3.9619  -3.9619
    -3.9522  -3.9515  -3.9507  -3.9390  -3.9381  -3.9374  -3.9351  -3.9347
    -3.9342  -3.9261  -3.9260  -3.9007  -3.9002  -3.8999  -3.8731  -3.8730
    -3.8707  -3.8706  -3.8645  -3.8643  -3.8639  -3.8609  -3.8605  -3.8598
    -3.8551  -3.8546  -3.8543  -3.8523  -3.8416  -3.8411  -3.8408  -3.8228
    -3.8203  -3.8106  -3.8098  -3.8090  -3.8008  -3.8002  -3.7998  -3.7746
    -3.7362  -3.7356  -3.7350  -3.7025  -3.7019  -3.7014  -3.6385  -3.6381
    -3.6377  -3.5755  -3.5754  -3.4951  -3.4950  -3.4782  -3.4776  -3.4770
    -3.3163  -3.3157  -3.3151  -3.2979  -3.2974  -3.2969  -3.1736  -3.1735
    -3.1061  -3.1054  -3.1047  -3.0225  -3.0225  -2.9199  -2.9193  -2.9188
     2.7075   2.9288   3.0632   3.0638   3.0644   3.1328   3.1336   3.1344
     3.1994   3.5458   3.5461   3.5464   3.7228   3.7234   3.7241   3.7494
     3.7808   3.7842   3.7848   3.7855   4.0306   4.0309   4.0311   4.1874
     4.1881   4.1889   4.3937   4.3939   4.3948   4.4686   4.4693   4.4700
     4.7605   4.7607   4.9924   4.9929   4.9934   5.2060   5.2066   5.2071
     5.3957   5.3960   5.3963   5.4845   5.4851   5.4857   5.5208   5.5537
     5.5539   5.5542   5.6271   5.6274   5.6276   5.6743   5.7303   5.7303
     5.8362   5.8364   5.8729   6.0525   6.1038   6.1044   6.1050   6.1989
     6.1995   6.2000   6.2585   6.2593   6.2600   6.2922   6.3484   6.3488
     6.3492   6.3769   6.3772   6.3775   6.6611   6.6616   6.7687   6.7692
     6.7697   6.8728   6.8735   6.8741   6.8996   6.9003   6.9009   6.9152
     6.9154   6.9158   6.9162   6.9446   6.9449   6.9453   7.0230   7.0236
     7.1765   7.1770   7.1775   7.2151   7.2154   7.2157   7.4039   7.4043
     7.4047   7.4827   7.4833   7.4839   7.5352   7.5357   7.5362   7.5716
     7.5716   7.6975   7.6982   7.6988   7.7092   7.7096   7.7630   7.7637
     7.7644   7.7659   7.7661   7.7664   7.8230   7.8232   7.8597   7.8603
     7.8610   7.9159   7.9162   7.9347   7.9356   7.9364   7.9629   7.9638
     7.9646   7.9799   7.9800   7.9909   7.9915   7.9921   7.9972   7.9972
     9.8431  11.0583  12.5561  12.5574  12.5587  12.6945  12.6961  12.6976
    12.9593  13.1301  13.1315  13.1329  13.3422  13.3440  13.3457  13.3868
    13.3889  13.7285  13.7313  13.7327

          k = 0.0283 0.0153-0.0620 ( 63467 PWs)   bands (ev):

    -9.0663  -9.0170  -9.0071  -8.8744  -8.8740  -8.7288  -8.7247  -8.7234
    -8.7054  -8.7043  -8.7008  -8.5828  -8.5821  -8.4929  -8.4895  -8.4554
    -8.4494  -8.4480  -8.4468  -8.4458  -8.4367  -8.4289  -8.4194  -8.3855
    -8.3840  -8.3694  -8.3682  -8.3655  -8.3618  -8.3575  -8.3571  -8.3347
    -8.3345  -8.3102  -8.2983  -8.2903  -8.2891  -8.2728  -8.2715  -8.2565
    -8.2436  -8.2421  -8.2404  -8.2383  -8.2364  -8.2339  -8.2283  -8.2278
    -4.3001  -4.2988  -4.2791  -4.2782  -4.2779  -4.2777  -4.2750  -4.2727
    -4.2575  -4.2519  -4.2441  -4.2407  -4.2402  -4.2392  -4.2387  -4.2318
    -4.2297  -4.2248  -4.2236  -4.2202  -4.2197  -4.2194  -4.2162  -4.2098
    -4.1907  -4.1902  -4.1895  -4.1760  -4.1758  -4.1746  -4.1649  -4.1628
    -4.1611  -4.1605  -4.1576  -4.1570  -4.1567  -4.1510  -4.1499  -4.1495
    -4.1450  -4.1403  -4.1323  -4.1319  -4.1287  -4.1193  -4.1187  -4.1170
    -4.1160  -4.1072  -4.1066  -4.1052  -4.1043  -4.0969  -4.0923  -4.0916
    -4.0827  -4.0816  -4.0814  -4.0808  -4.0770  -4.0708  -4.0651  -4.0588
    -4.0562  -4.0559  -4.0439  -4.0278  -4.0272  -4.0205  -4.0161  -4.0116
    -4.0053  -3.9978  -3.9971  -3.9951  -3.9946  -3.9890  -3.9880  -3.9833
    -3.9827  -3.9730  -3.9720  -3.9710  -3.9694  -3.9644  -3.9575  -3.9565
    -3.9534  -3.9505  -3.9494  -3.9488  -3.9454  -3.9397  -3.9393  -3.9357
    -3.9300  -3.9191  -3.9078  -3.9068  -3.8952  -3.8829  -3.8825  -3.8808
    -3.8795  -3.8788  -3.8737  -3.8678  -3.8669  -3.8651  -3.8624  -3.8619
    -3.8594  -3.8506  -3.8469  -3.8463  -3.8406  -3.8393  -3.8384  -3.8152
    -3.8148  -3.8117  -3.8075  -3.7773  -3.7761  -3.7740  -3.7718  -3.7713
    -3.7610  -3.7588  -3.7130  -3.7119  -3.7046  -3.6797  -3.6760  -3.6643
    -3.6633  -3.6270  -3.6266  -3.5201  -3.4947  -3.4941  -3.4397  -3.3731
    -3.3723  -3.3706  -3.3584  -3.3012  -3.2739  -3.1727  -3.1710  -3.1323
    -3.0736  -3.0720  -3.0381  -3.0372  -3.0170  -3.0108  -2.9628  -2.9560
     2.8932   2.8971   2.9266   3.1502   3.1511   3.2127   3.2882   3.2916
     3.3242   3.3250   3.4403   3.4411   3.4784   3.6967   3.7603   3.7604
     3.7829   3.7835   3.8059   3.8066   3.8118   3.8127   3.9042   3.9674
     4.1203   4.1209   4.2790   4.5369   4.5383   4.6904   4.7082   4.7542
     4.8378   4.8955   5.0250   5.0263   5.1398   5.1404   5.1570   5.1794
     5.2342   5.3412   5.3559   5.3563   5.3575   5.3578   5.4518   5.5437
     5.5722   5.5966   5.6041   5.6051   5.6427   5.6434   5.6738   5.6892
     5.8754   6.0055   6.1154   6.1177   6.1255   6.1264   6.1393   6.1407
     6.2708   6.3097   6.3102   6.3109   6.3113   6.3335   6.3504   6.3602
     6.4013   6.4887   6.5114   6.5119   6.5422   6.6180   6.6631   6.6646
     6.6658   6.6929   6.7212   6.7220   6.8104   6.8394   6.8884   6.8897
     6.9154   6.9164   6.9184   6.9876   6.9888   7.0091   7.0709   7.1411
     7.1755   7.1760   7.2616   7.2631   7.2660   7.3308   7.3484   7.3564
     7.4123   7.4154   7.4164   7.5419   7.5452   7.5457   7.5785   7.5833
     7.6132   7.6200   7.6717   7.6724   7.6788   7.6992   7.7020   7.7263
     7.7280   7.7907   7.7917   7.7942   7.8202   7.8262   7.8424   7.8497
     7.8504   7.8516   7.8523   7.9153   7.9346   7.9375   7.9387   7.9409
     7.9430   7.9445   7.9494   7.9532   7.9550   7.9552   7.9967   8.0490
    10.7287  11.0812  11.2605  12.1407  12.1422  12.8159  12.9604  12.9628
    13.2338  13.2697  13.2723  13.3677  13.3698  13.4090  13.4463  13.4494
    13.5107  13.7202  13.7234  13.7919

          k = 0.0283-0.0525-0.0000 ( 63467 PWs)   bands (ev):

    -9.0585  -9.0122  -9.0110  -8.8842  -8.8839  -8.7260  -8.7162  -8.7159
    -8.7145  -8.7142  -8.7015  -8.5716  -8.5713  -8.4940  -8.4926  -8.4567
    -8.4477  -8.4262  -8.4209  -8.4203  -8.4185  -8.4181  -8.4131  -8.4127
    -8.3957  -8.3956  -8.3858  -8.3856  -8.3745  -8.3692  -8.3678  -8.3624
    -8.3108  -8.3100  -8.3047  -8.3041  -8.2987  -8.2609  -8.2599  -8.2586
    -8.2530  -8.2527  -8.2284  -8.2277  -8.2272  -8.2266  -8.2206  -8.2191
    -4.2921  -4.2911  -4.2820  -4.2815  -4.2770  -4.2746  -4.2688  -4.2687
    -4.2674  -4.2558  -4.2528  -4.2525  -4.2415  -4.2410  -4.2312  -4.2307
    -4.2253  -4.2247  -4.2215  -4.2204  -4.2198  -4.2134  -4.2066  -4.2062
    -4.1925  -4.1917  -4.1911  -4.1828  -4.1822  -4.1736  -4.1729  -4.1724
    -4.1631  -4.1626  -4.1605  -4.1573  -4.1569  -4.1566  -4.1533  -4.1530
    -4.1513  -4.1510  -4.1325  -4.1321  -4.1307  -4.1299  -4.1166  -4.1158
    -4.1113  -4.1109  -4.0960  -4.0957  -4.0942  -4.0935  -4.0926  -4.0911
    -4.0908  -4.0837  -4.0668  -4.0663  -4.0613  -4.0604  -4.0586  -4.0515
    -4.0443  -4.0283  -4.0275  -4.0272  -4.0267  -4.0199  -4.0193  -4.0116
    -4.0091  -4.0057  -4.0053  -4.0037  -4.0031  -4.0026  -4.0000  -3.9993
    -3.9853  -3.9847  -3.9837  -3.9810  -3.9744  -3.9741  -3.9648  -3.9644
    -3.9630  -3.9539  -3.9531  -3.9517  -3.9404  -3.9399  -3.9389  -3.9383
    -3.9254  -3.9248  -3.9212  -3.9208  -3.9188  -3.8879  -3.8874  -3.8827
    -3.8812  -3.8809  -3.8710  -3.8704  -3.8565  -3.8558  -3.8529  -3.8522
    -3.8475  -3.8469  -3.8385  -3.8353  -3.8341  -3.8335  -3.8307  -3.8300
    -3.7855  -3.7819  -3.7814  -3.7775  -3.7770  -3.7759  -3.7587  -3.7583
    -3.7427  -3.7421  -3.7166  -3.7161  -3.6882  -3.6798  -3.6793  -3.6601
    -3.6228  -3.6221  -3.6044  -3.6037  -3.5802  -3.4894  -3.4526  -3.4518
    -3.3613  -3.3598  -3.2767  -3.2506  -3.2500  -3.1820  -3.1812  -3.1483
    -3.1221  -3.0998  -3.0656  -3.0651  -2.9742  -2.9727  -2.9578  -2.9571
     2.9175   3.0063   3.0077   3.0332   3.1877   3.1882   3.2293   3.2301
     3.4648   3.4659   3.4969   3.5513   3.5517   3.5557   3.5564   3.6152
     3.7071   3.7075   3.7304   3.7314   3.7722   3.8897   3.9029   3.9037
     3.9319   4.2399   4.2403   4.6838   4.7788   4.7800   4.8928   4.8934
     4.9958   4.9961   5.0393   5.0508   5.0514   5.1499   5.1503   5.1775
     5.1778   5.1922   5.2698   5.3511   5.3514   5.3655   5.3662   5.3914
     5.5086   5.6339   5.6346   5.6810   5.6818   5.7587   5.7593   5.7695
     5.7700   5.8099   5.9047   5.9053   5.9470   5.9475   6.1477   6.1641
     6.1786   6.1793   6.2354   6.3373   6.3380   6.4218   6.4224   6.4802
     6.5163   6.5170   6.5174   6.5204   6.5208   6.5538   6.7075   6.7085
     6.7141   6.8678   6.8695   6.8828   6.8838   6.8874   6.8881   6.9176
     6.9183   7.0402   7.0434   7.0507   7.0519   7.1053   7.1055   7.1512
     7.1908   7.2052   7.2058   7.2160   7.2176   7.3504   7.3512   7.3555
     7.3559   7.3610   7.3617   7.3735   7.4126   7.4604   7.4621   7.5700
     7.5777   7.5782   7.6042   7.6050   7.6119   7.6541   7.7038   7.7045
     7.7174   7.7186   7.8210   7.8221   7.8269   7.8273   7.8297   7.8715
     7.8716   7.8808   7.8818   7.8990   7.8993   7.9235   7.9430   7.9448
     7.9450   7.9558   7.9583   7.9588   8.0022   8.0363   8.0369   8.0924
    10.8422  11.1952  11.1972  11.9966  11.9979  12.8890  12.8909  12.9163
    13.0064  13.0084  13.2716  13.2756  13.5469  13.5629  13.5648  13.6401
    13.6428  13.6753  13.6785  13.8510

          k = 0.0283-0.0525 0.0363 ( 63467 PWs)   bands (ev):

    -9.0664  -9.0169  -9.0070  -8.8745  -8.8741  -8.7290  -8.7248  -8.7235
    -8.7053  -8.7043  -8.7005  -8.5825  -8.5818  -8.4930  -8.4896  -8.4553
    -8.4495  -8.4481  -8.4470  -8.4459  -8.4368  -8.4288  -8.4191  -8.3855
    -8.3840  -8.3695  -8.3683  -8.3658  -8.3621  -8.3575  -8.3570  -8.3345
    -8.3342  -8.3099  -8.2989  -8.2901  -8.2889  -8.2727  -8.2714  -8.2565
    -8.2437  -8.2421  -8.2409  -8.2380  -8.2361  -8.2336  -8.2284  -8.2281
    -4.3000  -4.2987  -4.2790  -4.2783  -4.2780  -4.2777  -4.2749  -4.2727
    -4.2575  -4.2519  -4.2443  -4.2407  -4.2403  -4.2393  -4.2388  -4.2317
    -4.2297  -4.2248  -4.2236  -4.2202  -4.2196  -4.2193  -4.2161  -4.2097
    -4.1908  -4.1905  -4.1894  -4.1761  -4.1758  -4.1746  -4.1648  -4.1629
    -4.1610  -4.1605  -4.1576  -4.1571  -4.1567  -4.1510  -4.1499  -4.1496
    -4.1450  -4.1401  -4.1322  -4.1317  -4.1289  -4.1194  -4.1188  -4.1168
    -4.1159  -4.1072  -4.1064  -4.1052  -4.1045  -4.0970  -4.0923  -4.0916
    -4.0826  -4.0815  -4.0813  -4.0807  -4.0773  -4.0710  -4.0651  -4.0589
    -4.0562  -4.0560  -4.0440  -4.0278  -4.0271  -4.0205  -4.0162  -4.0116
    -4.0052  -3.9978  -3.9970  -3.9951  -3.9946  -3.9890  -3.9880  -3.9833
    -3.9827  -3.9729  -3.9720  -3.9710  -3.9694  -3.9646  -3.9576  -3.9565
    -3.9534  -3.9504  -3.9497  -3.9487  -3.9454  -3.9396  -3.9392  -3.9357
    -3.9300  -3.9192  -3.9078  -3.9067  -3.8953  -3.8829  -3.8824  -3.8807
    -3.8794  -3.8787  -3.8737  -3.8678  -3.8668  -3.8651  -3.8625  -3.8619
    -3.8595  -3.8506  -3.8469  -3.8464  -3.8405  -3.8393  -3.8385  -3.8152
    -3.8148  -3.8117  -3.8076  -3.7772  -3.7761  -3.7739  -3.7719  -3.7713
    -3.7610  -3.7588  -3.7130  -3.7118  -3.7047  -3.6797  -3.6761  -3.6642
    -3.6632  -3.6270  -3.6266  -3.5200  -3.4949  -3.4943  -3.4397  -3.3732
    -3.3723  -3.3706  -3.3584  -3.3011  -3.2739  -3.1728  -3.1711  -3.1319
    -3.0735  -3.0719  -3.0380  -3.0371  -3.0171  -3.0112  -2.9628  -2.9559
     2.8927   2.8980   2.9273   3.1499   3.1508   3.2122   3.2887   3.2928
     3.3235   3.3243   3.4405   3.4413   3.4780   3.6960   3.7609   3.7610
     3.7830   3.7840   3.8053   3.8060   3.8114   3.8123   3.9036   3.9675
     4.1210   4.1216   4.2784   4.5376   4.5389   4.6901   4.7082   4.7544
     4.8377   4.8956   5.0249   5.0262   5.1395   5.1401   5.1575   5.1795
     5.2346   5.3414   5.3560   5.3564   5.3571   5.3577   5.4516   5.5434
     5.5718   5.5967   5.6041   5.6050   5.6425   5.6431   5.6734   5.6893
     5.8745   6.0062   6.1152   6.1174   6.1260   6.1269   6.1391   6.1404
     6.2702   6.3101   6.3106   6.3111   6.3117   6.3337   6.3513   6.3605
     6.4012   6.4885   6.5116   6.5121   6.5428   6.6180   6.6622   6.6649
     6.6659   6.6929   6.7217   6.7225   6.8107   6.8392   6.8878   6.8891
     6.9149   6.9158   6.9184   6.9877   6.9889   7.0092   7.0712   7.1409
     7.1757   7.1762   7.2609   7.2627   7.2655   7.3317   7.3482   7.3562
     7.4127   7.4154   7.4164   7.5415   7.5454   7.5459   7.5787   7.5820
     7.6137   7.6201   7.6716   7.6724   7.6788   7.6988   7.7016   7.7260
     7.7276   7.7909   7.7919   7.7945   7.8201   7.8263   7.8431   7.8498
     7.8504   7.8517   7.8525   7.9157   7.9344   7.9375   7.9387   7.9408
     7.9429   7.9444   7.9491   7.9534   7.9548   7.9551   7.9968   8.0489
    10.7288  11.0812  11.2605  12.1407  12.1421  12.8163  12.9603  12.9627
    13.2337  13.2698  13.2723  13.3678  13.3700  13.4091  13.4460  13.4490
    13.5105  13.7193  13.7229  13.7919

          k = 0.0284-0.0525-0.0363 ( 63467 PWs)   bands (ev):

    -9.0664  -9.0169  -9.0071  -8.8743  -8.8742  -8.7288  -8.7242  -8.7241
    -8.7049  -8.7047  -8.7007  -8.5824  -8.5822  -8.4928  -8.4897  -8.4553
    -8.4488  -8.4487  -8.4465  -8.4462  -8.4368  -8.4289  -8.4192  -8.3848
    -8.3847  -8.3696  -8.3680  -8.3659  -8.3618  -8.3575  -8.3570  -8.3345
    -8.3344  -8.3100  -8.2986  -8.2896  -8.2896  -8.2721  -8.2720  -8.2566
    -8.2429  -8.2428  -8.2407  -8.2378  -8.2366  -8.2336  -8.2283  -8.2280
    -4.3001  -4.2988  -4.2788  -4.2785  -4.2780  -4.2777  -4.2750  -4.2727
    -4.2575  -4.2519  -4.2441  -4.2408  -4.2403  -4.2393  -4.2388  -4.2318
    -4.2297  -4.2244  -4.2241  -4.2201  -4.2198  -4.2193  -4.2160  -4.2098
    -4.1906  -4.1904  -4.1895  -4.1760  -4.1759  -4.1746  -4.1649  -4.1628
    -4.1609  -4.1607  -4.1573  -4.1570  -4.1569  -4.1508  -4.1501  -4.1495
    -4.1451  -4.1402  -4.1323  -4.1318  -4.1288  -4.1193  -4.1189  -4.1166
    -4.1160  -4.1072  -4.1066  -4.1050  -4.1045  -4.0970  -4.0923  -4.0916
    -4.0825  -4.0815  -4.0814  -4.0809  -4.0771  -4.0709  -4.0651  -4.0589
    -4.0566  -4.0555  -4.0439  -4.0276  -4.0273  -4.0205  -4.0162  -4.0116
    -4.0053  -3.9976  -3.9971  -3.9950  -3.9947  -3.9887  -3.9884  -3.9831
    -3.9829  -3.9726  -3.9717  -3.9716  -3.9693  -3.9645  -3.9575  -3.9565
    -3.9536  -3.9502  -3.9493  -3.9491  -3.9453  -3.9395  -3.9392  -3.9357
    -3.9300  -3.9191  -3.9076  -3.9069  -3.8952  -3.8832  -3.8822  -3.8807
    -3.8792  -3.8790  -3.8738  -3.8676  -3.8671  -3.8651  -3.8622  -3.8621
    -3.8594  -3.8506  -3.8467  -3.8465  -3.8407  -3.8389  -3.8388  -3.8149
    -3.8148  -3.8119  -3.8075  -3.7770  -3.7764  -3.7740  -3.7717  -3.7714
    -3.7610  -3.7588  -3.7130  -3.7118  -3.7046  -3.6797  -3.6761  -3.6638
    -3.6637  -3.6268  -3.6267  -3.5201  -3.4946  -3.4944  -3.4397  -3.3728
    -3.3723  -3.3710  -3.3585  -3.3012  -3.2739  -3.1720  -3.1718  -3.1321
    -3.0728  -3.0727  -3.0378  -3.0374  -3.0170  -3.0110  -2.9628  -2.9559
     2.8929   2.8976   2.9269   3.1498   3.1512   3.2125   3.2885   3.2921
     3.3238   3.3247   3.4404   3.4413   3.4782   3.6963   3.7606   3.7607
     3.7826   3.7842   3.8056   3.8062   3.8120   3.8121   3.9039   3.9674
     4.1207   4.1212   4.2787   4.5378   4.5381   4.6903   4.7082   4.7543
     4.8377   4.8955   5.0255   5.0257   5.1397   5.1402   5.1572   5.1795
     5.2344   5.3413   5.3561   5.3563   5.3572   5.3577   5.4517   5.5435
     5.5720   5.5966   5.6044   5.6047   5.6428   5.6430   5.6736   5.6893
     5.8749   6.0058   6.1154   6.1174   6.1259   6.1265   6.1398   6.1399
     6.2705   6.3095   6.3106   6.3108   6.3119   6.3336   6.3509   6.3604
     6.4012   6.4886   6.5114   6.5120   6.5425   6.6180   6.6628   6.6649
     6.6655   6.6929   6.7218   6.7219   6.8105   6.8393   6.8886   6.8889
     6.9154   6.9157   6.9185   6.9881   6.9884   7.0092   7.0711   7.1410
     7.1756   7.1761   7.2620   7.2623   7.2657   7.3312   7.3483   7.3563
     7.4126   7.4156   7.4162   7.5418   7.5455   7.5457   7.5786   7.5826
     7.6135   7.6200   7.6719   7.6721   7.6788   7.6990   7.7018   7.7268
     7.7271   7.7912   7.7915   7.7943   7.8202   7.8262   7.8429   7.8499
     7.8503   7.8515   7.8523   7.9155   7.9345   7.9380   7.9382   7.9406
     7.9437   7.9439   7.9492   7.9534   7.9549   7.9552   7.9968   8.0490
    10.7288  11.0812  11.2605  12.1412  12.1416  12.8161  12.9608  12.9623
    13.2337  13.2705  13.2716  13.3679  13.3699  13.4089  13.4469  13.4485
    13.5106  13.7215  13.7222  13.7925

 ------ SPIN DOWN ----------


          k = 0.0000 0.0000 0.0000 ( 63395 PWs)   bands (ev):

    -9.2335  -8.8486  -8.8483  -8.8480  -8.7289  -8.7283  -8.7275  -8.7274
    -8.7272  -8.7271  -8.7262  -8.7257  -8.6115  -8.6113  -8.6111  -8.4641
    -8.4638  -8.4635  -8.4448  -8.4446  -8.3612  -8.3606  -8.3602  -8.3601
    -8.3596  -8.3593  -8.3495  -8.3494  -8.3493  -8.3492  -8.3322  -8.3316
    -8.3315  -8.3269  -8.3266  -8.3262  -8.3208  -8.3205  -8.3201  -8.3197
    -8.3193  -8.3186  -8.2493  -8.2490  -8.1607  -8.1593  -8.1591  -8.1588
    -4.3161  -4.3160  -4.2846  -4.2843  -4.2839  -4.2677  -4.2676  -4.2670
    -4.2666  -4.2662  -4.2660  -4.2448  -4.2446  -4.2444  -4.2301  -4.2297
    -4.2176  -4.2175  -4.2172  -4.2154  -4.2153  -4.2150  -4.2150  -4.1929
    -4.1867  -4.1865  -4.1862  -4.1821  -4.1819  -4.1777  -4.1775  -4.1773
    -4.1576  -4.1572  -4.1570  -4.1567  -4.1566  -4.1560  -4.1394  -4.1391
    -4.1388  -4.1261  -4.1259  -4.1256  -4.1232  -4.1232  -4.1230  -4.1161
    -4.1159  -4.1154  -4.1150  -4.1145  -4.1142  -4.0956  -4.0953  -4.0950
    -4.0946  -4.0943  -4.0940  -4.0771  -4.0769  -4.0767  -4.0706  -4.0704
    -4.0702  -4.0701  -4.0643  -4.0511  -4.0511  -4.0169  -4.0162  -4.0154
    -4.0153  -4.0150  -4.0146  -4.0143  -4.0135  -3.9759  -3.9758  -3.9665
    -3.9662  -3.9660  -3.9650  -3.9649  -3.9646  -3.9644  -3.9640  -3.9638
    -3.9505  -3.9502  -3.9498  -3.9337  -3.9332  -3.9329  -3.9288  -3.9285
    -3.9282  -3.8887  -3.8886  -3.8883  -3.8883  -3.8760  -3.8759  -3.8742
    -3.8666  -3.8664  -3.8658  -3.8657  -3.8651  -3.8649  -3.8611  -3.8602
    -3.8598  -3.8592  -3.8590  -3.8582  -3.8579  -3.8471  -3.8469  -3.8467
    -3.8318  -3.8315  -3.8313  -3.7937  -3.7933  -3.7928  -3.7836  -3.7831
    -3.7324  -3.7319  -3.7315  -3.6895  -3.6893  -3.6891  -3.6003  -3.6001
    -3.4777  -3.4771  -3.4764  -3.4763  -3.4756  -3.4750  -3.3528  -3.3524
    -3.3519  -3.3516  -3.3179  -3.3174  -3.3168  -3.3055  -3.3053  -3.3045
    -3.3042  -3.3034  -3.3029  -2.9631  -2.9630  -2.8483  -2.8478  -2.8472
     2.6339   3.0034   3.1903   3.1906   3.1909   3.1911   3.1913   3.1916
     3.2098   3.2106   3.2116   3.2874   3.2887   3.7052   3.7059   3.7065
     3.9322   3.9332   3.9335   3.9337   3.9340   3.9351   4.2683   4.2684
     4.4437   4.4444   4.4450   4.4504   4.4510   4.4517   4.5742   4.5746
     4.8971   4.8975   4.8979   4.9686   5.2060   5.3169   5.3171   5.3173
     5.3175   5.3623   5.3630   5.3637   5.3823   5.3828   5.3833   5.4458
     5.4462   5.4467   5.4469   5.4474   5.4478   5.5941   5.5941   5.8029
     5.9243   5.9245   5.9253   5.9253   5.9258   5.9263   5.9331   5.9336
     5.9346   6.0368   6.0372   6.0377   6.2312   6.2315   6.2317   6.2327
     6.2332   6.6541   6.6553   6.6554   6.6557   6.6558   6.6570   7.0638
     7.0644   7.0645   7.0651   7.0669   7.0672   7.0676   7.1520   7.1523
     7.1524   7.1720   7.1724   7.1727   7.1729   7.1732   7.1733   7.1744
     7.1750   7.1759   7.2619   7.2631   7.2637   7.2637   7.2642   7.2655
     7.3068   7.3070   7.3072   7.3692   7.3700   7.3743   7.3746   7.3750
     7.3752   7.3757   7.3760   7.5653   7.5653   7.5653   7.6626   7.7416
     7.7419   7.7423   7.7491   7.7493   7.8555   7.8555   7.8993   7.8994
     7.8995   7.8996   7.9903   7.9906   7.9909   7.9997   7.9999   8.0278
     8.0283   8.0291   8.0292   8.0300   8.0305   8.0426   8.0429   8.0431
     9.0291  12.1667  12.1675  12.6884  12.6909  12.6918  12.6921  12.6929
    12.6953  12.8696  12.8715  12.8736  13.2466  13.2479  13.2491  13.4080
    13.6060  13.6090  13.6101  13.6109

          k =-0.0000-0.0000 0.0363 ( 63469 PWs)   bands (ev):

    -9.1645  -8.9777  -8.8417  -8.8409  -8.8404  -8.8059  -8.8044  -8.8039
    -8.6419  -8.6417  -8.6413  -8.6112  -8.6098  -8.6095  -8.4845  -8.4502
    -8.4494  -8.4451  -8.4359  -8.4305  -8.4116  -8.4103  -8.4047  -8.4015
    -8.3888  -8.3851  -8.3668  -8.3656  -8.3585  -8.3514  -8.3504  -8.3241
    -8.3235  -8.3230  -8.3221  -8.3214  -8.3208  -8.3091  -8.3038  -8.2669
    -8.2637  -8.2520  -8.2513  -8.2474  -8.1905  -8.1867  -8.1855  -8.1848
    -4.2998  -4.2900  -4.2856  -4.2810  -4.2806  -4.2794  -4.2785  -4.2779
    -4.2642  -4.2551  -4.2547  -4.2494  -4.2486  -4.2481  -4.2267  -4.2241
    -4.2230  -4.2224  -4.2157  -4.2153  -4.2104  -4.2070  -4.2008  -4.1982
    -4.1976  -4.1945  -4.1942  -4.1864  -4.1805  -4.1781  -4.1659  -4.1616
    -4.1614  -4.1611  -4.1607  -4.1547  -4.1539  -4.1536  -4.1501  -4.1492
    -4.1464  -4.1437  -4.1435  -4.1414  -4.1368  -4.1220  -4.1217  -4.1183
    -4.1172  -4.1165  -4.1038  -4.1015  -4.1010  -4.0987  -4.0927  -4.0924
    -4.0856  -4.0834  -4.0831  -4.0732  -4.0687  -4.0661  -4.0567  -4.0561
    -4.0466  -4.0431  -4.0370  -4.0315  -4.0276  -4.0271  -4.0267  -4.0226
[...]
    -4.1925  -4.1917  -4.1911  -4.1828  -4.1822  -4.1736  -4.1729  -4.1724
    -4.1631  -4.1626  -4.1605  -4.1573  -4.1569  -4.1566  -4.1533  -4.1530
    -4.1513  -4.1510  -4.1325  -4.1321  -4.1307  -4.1299  -4.1166  -4.1158
    -4.1113  -4.1109  -4.0960  -4.0957  -4.0942  -4.0935  -4.0926  -4.0911
    -4.0908  -4.0837  -4.0668  -4.0663  -4.0613  -4.0604  -4.0586  -4.0515
    -4.0443  -4.0283  -4.0275  -4.0272  -4.0267  -4.0199  -4.0193  -4.0116
    -4.0091  -4.0057  -4.0053  -4.0037  -4.0031  -4.0026  -4.0000  -3.9993
    -3.9853  -3.9847  -3.9837  -3.9810  -3.9744  -3.9741  -3.9648  -3.9644
    -3.9630  -3.9539  -3.9531  -3.9517  -3.9404  -3.9399  -3.9389  -3.9383
    -3.9254  -3.9248  -3.9212  -3.9208  -3.9188  -3.8879  -3.8874  -3.8827
    -3.8812  -3.8809  -3.8710  -3.8704  -3.8565  -3.8558  -3.8529  -3.8522
    -3.8475  -3.8469  -3.8385  -3.8353  -3.8341  -3.8335  -3.8307  -3.8300
    -3.7855  -3.7819  -3.7814  -3.7775  -3.7770  -3.7759  -3.7587  -3.7583
    -3.7427  -3.7421  -3.7166  -3.7161  -3.6882  -3.6798  -3.6793  -3.6601
    -3.6228  -3.6221  -3.6044  -3.6037  -3.5802  -3.4894  -3.4526  -3.4518
    -3.3613  -3.3598  -3.2767  -3.2506  -3.2500  -3.1820  -3.1812  -3.1483
    -3.1221  -3.0998  -3.0656  -3.0651  -2.9742  -2.9727  -2.9578  -2.9571
     2.9175   3.0063   3.0077   3.0332   3.1877   3.1882   3.2293   3.2301
     3.4648   3.4659   3.4969   3.5513   3.5517   3.5557   3.5564   3.6152
     3.7071   3.7075   3.7304   3.7314   3.7722   3.8897   3.9029   3.9037
     3.9319   4.2399   4.2403   4.6838   4.7788   4.7800   4.8928   4.8934
     4.9958   4.9961   5.0393   5.0507   5.0514   5.1499   5.1503   5.1775
     5.1778   5.1922   5.2698   5.3511   5.3514   5.3655   5.3662   5.3914
     5.5086   5.6339   5.6346   5.6810   5.6818   5.7587   5.7593   5.7695
     5.7700   5.8099   5.9047   5.9053   5.9470   5.9475   6.1477   6.1641
     6.1786   6.1793   6.2354   6.3373   6.3380   6.4218   6.4224   6.4802
     6.5163   6.5170   6.5174   6.5204   6.5208   6.5538   6.7075   6.7085
     6.7141   6.8678   6.8695   6.8828   6.8838   6.8874   6.8881   6.9176
     6.9183   7.0402   7.0434   7.0507   7.0519   7.1053   7.1055   7.1512
     7.1908   7.2052   7.2057   7.2160   7.2176   7.3504   7.3512   7.3555
     7.3559   7.3610   7.3617   7.3735   7.4126   7.4604   7.4621   7.5700
     7.5777   7.5782   7.6042   7.6050   7.6119   7.6541   7.7038   7.7045
     7.7174   7.7186   7.8210   7.8221   7.8269   7.8273   7.8297   7.8715
     7.8716   7.8808   7.8818   7.8990   7.8993   7.9235   7.9430   7.9448
     7.9450   7.9558   7.9583   7.9588   8.0022   8.0363   8.0369   8.0924
    10.8422  11.1952  11.1972  11.9966  11.9979  12.8890  12.8909  12.9163
    13.0064  13.0084  13.2716  13.2756  13.5469  13.5629  13.5648  13.6401
    13.6428  13.6753  13.6785  13.8510

          k = 0.0283-0.0525 0.0363 ( 63467 PWs)   bands (ev):

    -9.0664  -9.0169  -9.0070  -8.8745  -8.8741  -8.7290  -8.7248  -8.7235
    -8.7053  -8.7043  -8.7005  -8.5825  -8.5818  -8.4930  -8.4896  -8.4553
    -8.4495  -8.4481  -8.4470  -8.4459  -8.4368  -8.4288  -8.4191  -8.3855
    -8.3840  -8.3695  -8.3683  -8.3658  -8.3621  -8.3575  -8.3570  -8.3345
    -8.3342  -8.3099  -8.2989  -8.2901  -8.2889  -8.2727  -8.2714  -8.2565
    -8.2437  -8.2421  -8.2409  -8.2380  -8.2361  -8.2336  -8.2284  -8.2281
    -4.3000  -4.2987  -4.2790  -4.2783  -4.2780  -4.2777  -4.2749  -4.2727
    -4.2575  -4.2519  -4.2443  -4.2407  -4.2403  -4.2393  -4.2388  -4.2317
    -4.2297  -4.2248  -4.2236  -4.2202  -4.2196  -4.2193  -4.2161  -4.2097
    -4.1908  -4.1905  -4.1894  -4.1761  -4.1758  -4.1746  -4.1648  -4.1629
    -4.1610  -4.1605  -4.1576  -4.1571  -4.1567  -4.1510  -4.1499  -4.1496
    -4.1450  -4.1401  -4.1322  -4.1317  -4.1289  -4.1194  -4.1188  -4.1168
    -4.1159  -4.1072  -4.1064  -4.1052  -4.1045  -4.0970  -4.0923  -4.0916
    -4.0826  -4.0815  -4.0813  -4.0807  -4.0773  -4.0710  -4.0651  -4.0589
    -4.0562  -4.0560  -4.0440  -4.0278  -4.0271  -4.0205  -4.0162  -4.0116
    -4.0052  -3.9978  -3.9970  -3.9951  -3.9946  -3.9890  -3.9880  -3.9833
    -3.9827  -3.9729  -3.9720  -3.9710  -3.9694  -3.9646  -3.9576  -3.9565
    -3.9534  -3.9504  -3.9497  -3.9486  -3.9454  -3.9396  -3.9392  -3.9357
    -3.9300  -3.9192  -3.9078  -3.9067  -3.8953  -3.8829  -3.8824  -3.8807
    -3.8794  -3.8787  -3.8737  -3.8678  -3.8668  -3.8651  -3.8625  -3.8619
    -3.8595  -3.8506  -3.8469  -3.8464  -3.8405  -3.8393  -3.8385  -3.8152
    -3.8148  -3.8117  -3.8076  -3.7772  -3.7761  -3.7739  -3.7719  -3.7713
    -3.7610  -3.7588  -3.7130  -3.7118  -3.7047  -3.6797  -3.6761  -3.6642
    -3.6632  -3.6270  -3.6266  -3.5200  -3.4949  -3.4943  -3.4397  -3.3732
    -3.3723  -3.3706  -3.3584  -3.3011  -3.2739  -3.1728  -3.1711  -3.1319
    -3.0735  -3.0719  -3.0380  -3.0371  -3.0171  -3.0112  -2.9628  -2.9559
     2.8927   2.8980   2.9273   3.1499   3.1508   3.2122   3.2887   3.2928
     3.3235   3.3243   3.4405   3.4413   3.4780   3.6960   3.7609   3.7610
     3.7830   3.7840   3.8053   3.8060   3.8114   3.8123   3.9036   3.9675
     4.1210   4.1216   4.2784   4.5376   4.5389   4.6901   4.7082   4.7544
     4.8377   4.8956   5.0249   5.0262   5.1395   5.1401   5.1575   5.1795
     5.2346   5.3414   5.3559   5.3564   5.3571   5.3577   5.4516   5.5434
     5.5718   5.5967   5.6041   5.6050   5.6425   5.6431   5.6734   5.6893
     5.8745   6.0062   6.1152   6.1173   6.1260   6.1269   6.1391   6.1404
     6.2702   6.3101   6.3106   6.3111   6.3117   6.3337   6.3513   6.3605
     6.4012   6.4885   6.5116   6.5121   6.5428   6.6180   6.6622   6.6649
     6.6659   6.6929   6.7217   6.7225   6.8107   6.8392   6.8878   6.8891
     6.9149   6.9158   6.9184   6.9877   6.9889   7.0092   7.0712   7.1409
     7.1757   7.1762   7.2609   7.2627   7.2655   7.3317   7.3482   7.3562
     7.4127   7.4154   7.4164   7.5415   7.5454   7.5459   7.5787   7.5820
     7.6137   7.6201   7.6716   7.6724   7.6788   7.6988   7.7016   7.7260
     7.7276   7.7909   7.7919   7.7945   7.8201   7.8263   7.8431   7.8498
     7.8504   7.8517   7.8525   7.9157   7.9344   7.9375   7.9387   7.9408
     7.9429   7.9444   7.9491   7.9534   7.9548   7.9551   7.9968   8.0489
    10.7288  11.0812  11.2605  12.1407  12.1421  12.8163  12.9603  12.9627
    13.2337  13.2698  13.2723  13.3678  13.3700  13.4091  13.4460  13.4490
    13.5107  13.7204  13.7231  13.7920

          k = 0.0284-0.0525-0.0363 ( 63467 PWs)   bands (ev):

    -9.0664  -9.0169  -9.0071  -8.8743  -8.8742  -8.7288  -8.7242  -8.7241
    -8.7049  -8.7047  -8.7007  -8.5824  -8.5822  -8.4928  -8.4897  -8.4553
    -8.4488  -8.4487  -8.4465  -8.4462  -8.4368  -8.4289  -8.4192  -8.3848
    -8.3847  -8.3696  -8.3680  -8.3659  -8.3618  -8.3575  -8.3570  -8.3345
    -8.3344  -8.3100  -8.2986  -8.2896  -8.2896  -8.2721  -8.2720  -8.2566
    -8.2429  -8.2428  -8.2407  -8.2378  -8.2366  -8.2336  -8.2283  -8.2280
    -4.3001  -4.2988  -4.2788  -4.2785  -4.2780  -4.2777  -4.2750  -4.2727
    -4.2575  -4.2519  -4.2441  -4.2408  -4.2403  -4.2393  -4.2388  -4.2318
    -4.2297  -4.2244  -4.2241  -4.2201  -4.2198  -4.2193  -4.2160  -4.2098
    -4.1906  -4.1904  -4.1895  -4.1760  -4.1759  -4.1746  -4.1649  -4.1628
    -4.1609  -4.1607  -4.1573  -4.1570  -4.1569  -4.1508  -4.1501  -4.1495
    -4.1451  -4.1402  -4.1323  -4.1318  -4.1288  -4.1193  -4.1189  -4.1166
    -4.1160  -4.1072  -4.1066  -4.1050  -4.1045  -4.0970  -4.0923  -4.0916
    -4.0825  -4.0815  -4.0814  -4.0809  -4.0771  -4.0709  -4.0651  -4.0589
    -4.0566  -4.0555  -4.0439  -4.0276  -4.0273  -4.0205  -4.0162  -4.0116
    -4.0053  -3.9976  -3.9971  -3.9950  -3.9947  -3.9887  -3.9884  -3.9831
    -3.9829  -3.9726  -3.9717  -3.9716  -3.9693  -3.9645  -3.9575  -3.9565
    -3.9536  -3.9502  -3.9493  -3.9491  -3.9453  -3.9395  -3.9392  -3.9357
    -3.9300  -3.9191  -3.9076  -3.9069  -3.8952  -3.8832  -3.8822  -3.8807
    -3.8792  -3.8790  -3.8738  -3.8676  -3.8671  -3.8651  -3.8622  -3.8621
    -3.8594  -3.8506  -3.8467  -3.8465  -3.8407  -3.8389  -3.8388  -3.8149
    -3.8148  -3.8119  -3.8075  -3.7770  -3.7764  -3.7740  -3.7717  -3.7714
    -3.7610  -3.7588  -3.7130  -3.7118  -3.7046  -3.6797  -3.6761  -3.6638
    -3.6637  -3.6268  -3.6267  -3.5201  -3.4946  -3.4944  -3.4397  -3.3728
    -3.3723  -3.3710  -3.3585  -3.3012  -3.2739  -3.1720  -3.1718  -3.1321
    -3.0728  -3.0727  -3.0378  -3.0374  -3.0170  -3.0110  -2.9628  -2.9559
     2.8929   2.8976   2.9269   3.1498   3.1512   3.2125   3.2885   3.2921
     3.3238   3.3247   3.4404   3.4413   3.4782   3.6963   3.7606   3.7607
     3.7826   3.7842   3.8056   3.8062   3.8120   3.8121   3.9039   3.9674
     4.1207   4.1212   4.2787   4.5378   4.5381   4.6903   4.7082   4.7543
     4.8377   4.8955   5.0255   5.0257   5.1397   5.1402   5.1572   5.1795
     5.2344   5.3413   5.3561   5.3563   5.3572   5.3577   5.4517   5.5435
     5.5720   5.5966   5.6044   5.6047   5.6428   5.6430   5.6736   5.6893
     5.8749   6.0058   6.1154   6.1174   6.1259   6.1265   6.1398   6.1399
     6.2705   6.3095   6.3106   6.3108   6.3119   6.3336   6.3509   6.3604
     6.4012   6.4886   6.5114   6.5120   6.5425   6.6180   6.6628   6.6649
     6.6655   6.6929   6.7218   6.7219   6.8105   6.8393   6.8886   6.8889
     6.9154   6.9157   6.9185   6.9881   6.9884   7.0092   7.0711   7.1410
     7.1756   7.1761   7.2620   7.2623   7.2657   7.3312   7.3483   7.3563
     7.4126   7.4156   7.4162   7.5418   7.5455   7.5457   7.5786   7.5826
     7.6135   7.6200   7.6719   7.6721   7.6788   7.6990   7.7018   7.7268
     7.7271   7.7912   7.7915   7.7943   7.8202   7.8262   7.8428   7.8499
     7.8503   7.8515   7.8523   7.9155   7.9345   7.9380   7.9382   7.9406
     7.9437   7.9439   7.9492   7.9534   7.9549   7.9552   7.9968   8.0490
    10.7288  11.0812  11.2605  12.1412  12.1416  12.8161  12.9608  12.9623
    13.2337  13.2705  13.2716  13.3679  13.3699  13.4089  13.4468  13.4485
    13.5107  13.7193  13.7221  13.7921

     the Fermi energy is     8.5631 ev

!    total energy              =   -6637.03746076 Ry
     estimated scf accuracy    <          4.1E-09 Ry
     smearing contrib. (-TS)   =      -0.00000000 Ry
     internal energy E=F+TS    =   -6637.03746076 Ry

     The total energy is F=E-TS. E is the sum of the following terms:
     one-electron contribution =   -1621.77340685 Ry
     hartree contribution      =    1435.99023521 Ry
     xc contribution           =   -1885.87800575 Ry
     ewald contribution        =   -4108.41563576 Ry
     one-center paw contrib.   =    -456.96064762 Ry

     total magnetization       =    -0.00 Bohr mag/cell
     absolute magnetization    =     0.00 Bohr mag/cell

     convergence has been achieved in  12 iterations

     Forces acting on atoms (cartesian axes, Ry/au):

     atom    1 type  1   force =     0.00010529    0.00003766    0.00000230
     atom    2 type  1   force =     0.00016167    0.00012580    0.00014591
     atom    3 type  1   force =     0.00026051    0.00012632   -0.00006924
     atom    4 type  1   force =     0.00006174    0.00005898    0.00008434
     atom    5 type  1   force =     0.00072392    0.00017066    0.00002463
     atom    6 type  1   force =    -0.00011302    0.00022569   -0.00001398
     atom    7 type  1   force =     0.00012135   -0.00010638   -0.00003903
     atom    8 type  1   force =     0.00004714    0.00015661    0.00005944
     atom    9 type  1   force =    -0.00013432   -0.00021529   -0.00017767
     atom   10 type  1   force =    -0.00020242   -0.00002916    0.00003595
     atom   11 type  1   force =     0.00000273   -0.00015589    0.00004277
     atom   12 type  1   force =    -0.00019564   -0.00003553   -0.00007636
     atom   13 type  1   force =     0.00045870   -0.00004595    0.00002874
     atom   14 type  1   force =    -0.00037069   -0.00006946    0.00011922
     atom   15 type  1   force =    -0.00015017   -0.00012288   -0.00005685
     atom   16 type  1   force =    -0.00008918    0.00004689   -0.00002538
     atom   17 type  1   force =     0.00147769   -0.00000588   -0.00088573
     atom   18 type  1   force =    -0.00010211    0.00007392   -0.00006039
     atom   19 type  1   force =     0.00009352   -0.00003689    0.00003670
     atom   20 type  1   force =     0.00014071    0.00016939    0.00006805
     atom   21 type  1   force =     0.00007644    0.00004520   -0.00000175
     atom   22 type  1   force =     0.00023295    0.00012543    0.00016153
     atom   23 type  1   force =     0.00012642    0.00010001    0.00000707
     atom   24 type  1   force =     0.00010125    0.00003229    0.00005296
     atom   25 type  1   force =    -0.00035444   -0.00016839   -0.00000172
     atom   26 type  1   force =     0.00128755   -0.00103631    0.00023467
     atom   27 type  1   force =    -0.00002275    0.00006064   -0.00003533
     atom   28 type  1   force =    -0.00017840   -0.00012117   -0.00005256
     atom   29 type  1   force =    -0.00011628   -0.00000945    0.00003722
     atom   30 type  1   force =    -0.00015858   -0.00011338   -0.00014503
     atom   31 type  1   force =    -0.00014911   -0.00007799   -0.00007794
     atom   32 type  1   force =    -0.00012575   -0.00010058   -0.00000017
     atom   33 type  2   force =    -0.00536219    0.00127970    0.00020325
     atom   34 type  2   force =     0.00024266    0.00029147   -0.00043689
     atom   35 type  2   force =     0.00002919    0.00036313   -0.00043704
     atom   36 type  2   force =     0.00001230    0.00023230   -0.00041987
     atom   37 type  2   force =     0.00002938    0.00031646   -0.00036938
     atom   38 type  2   force =     0.00001261    0.00028714   -0.00049833
     atom   39 type  2   force =    -0.00004858    0.00032079   -0.00041695
     atom   40 type  2   force =     0.00002853    0.00029716   -0.00043273
     atom   41 type  2   force =    -0.00029683    0.00071343    0.00010342
     atom   42 type  2   force =    -0.00019506    0.00041356   -0.00001241
     atom   43 type  2   force =    -0.00008057    0.00080702   -0.00008380
     atom   44 type  2   force =    -0.00019497    0.00039491    0.00002607
     atom   45 type  2   force =    -0.00025993    0.00046273    0.00004624
     atom   46 type  2   force =    -0.00023626    0.00046648   -0.00005035
     atom   47 type  2   force =    -0.00026475    0.00046699    0.00001555
     atom   48 type  2   force =    -0.00027748    0.00046509   -0.00002014
     atom   49 type  2   force =     0.00041965   -0.00011905   -0.00007611
     atom   50 type  2   force =     0.00030509   -0.00016323   -0.00050432
     atom   51 type  2   force =     0.00023426   -0.00014745   -0.00043278
     atom   52 type  2   force =     0.00022180   -0.00018207   -0.00042204
     atom   53 type  2   force =     0.00020320    0.00002249   -0.00023263
     atom   54 type  2   force =     0.00030361   -0.00019310   -0.00047300
     atom   55 type  2   force =     0.00023897   -0.00012038   -0.00044824
     atom   56 type  2   force =     0.00026367   -0.00020870   -0.00041142
     atom   57 type  2   force =    -0.00018871   -0.00009174    0.00026618
     atom   58 type  2   force =    -0.00019783    0.00023859    0.00046184
     atom   59 type  2   force =    -0.00019011    0.00018530    0.00041572
     atom   60 type  2   force =    -0.00033935    0.00000674    0.00053840
     atom   61 type  2   force =    -0.00018383    0.00017830    0.00048065
     atom   62 type  2   force =    -0.00037654    0.00015693    0.00014264
     atom   63 type  2   force =    -0.00022702    0.00009991    0.00039158
     atom   64 type  2   force =    -0.00023406    0.00021175    0.00044559
     atom   65 type  2   force =    -0.00003754   -0.00029204    0.00044008
     atom   66 type  2   force =    -0.00000215   -0.00031567    0.00043934
     atom   67 type  2   force =     0.00001351   -0.00028341    0.00040321
     atom   68 type  2   force =     0.00001307   -0.00032063    0.00045741
     atom   69 type  2   force =     0.00078628   -0.00042620    0.00055726
     atom   70 type  2   force =     0.00080036   -0.00022474    0.00026555
     atom   71 type  2   force =    -0.00000135   -0.00029812    0.00041306
     atom   72 type  2   force =    -0.00003737   -0.00028879    0.00043505
     atom   73 type  2   force =     0.00015983   -0.00041860   -0.00018481
     atom   74 type  2   force =     0.00030889   -0.00047034    0.00002631
     atom   75 type  2   force =     0.00026500   -0.00043223    0.00003987
     atom   76 type  2   force =     0.00027180   -0.00052220   -0.00004508
     atom   77 type  2   force =     0.00030160   -0.00040779    0.00005888
     atom   78 type  2   force =     0.00031039   -0.00070897   -0.00018139
     atom   79 type  2   force =     0.00012471   -0.00073657    0.00009769
     atom   80 type  2   force =     0.00031541   -0.00041121   -0.00000349

     Total force =     0.007326     Total SCF correction =     0.000146


     Computing stress (Cartesian axis) and pressure

          total   stress  (Ry/bohr**3)                   (kbar)     P=       -4.56
  -0.00002239   0.00000854   0.00000657           -3.29        1.26        0.97
   0.00000854  -0.00003375   0.00000319            1.26       -4.97        0.47
   0.00000657   0.00000319  -0.00003680            0.97        0.47       -5.41


     Writing output data file ./calc.save/

     init_run     :    278.78s CPU    283.81s WALL (       1 calls)
     electrons    :  11056.33s CPU  11209.18s WALL (       1 calls)
     forces       :    134.24s CPU    135.28s WALL (       1 calls)
     stress       :    648.39s CPU    650.21s WALL (       1 calls)

     Called by init_run:
     wfcinit      :    265.53s CPU    270.26s WALL (       1 calls)
     potinit      :      4.53s CPU      4.60s WALL (       1 calls)
     hinit0       :      6.75s CPU      6.76s WALL (       1 calls)

     Called by electrons:
     c_bands      :  10170.65s CPU  10300.51s WALL (      12 calls)
     sum_band     :    844.25s CPU    864.47s WALL (      12 calls)
     v_of_rho     :     14.77s CPU     15.26s WALL (      13 calls)
     newd         :     14.93s CPU     17.22s WALL (      13 calls)
     PAW_pot      :     11.36s CPU     11.37s WALL (      13 calls)
     mix_rho      :      2.15s CPU      2.24s WALL (      12 calls)

     Called by c_bands:
     init_us_2    :     28.37s CPU     28.71s WALL (     756 calls)
     cegterg      :  10096.77s CPU  10224.32s WALL (     336 calls)

     Called by *egterg:
     cdiaghg      :   1304.37s CPU   1304.72s WALL (    2143 calls)
     h_psi        :   4635.11s CPU   4740.51s WALL (    2171 calls)
     s_psi        :   1056.26s CPU   1056.71s WALL (    2171 calls)
     g_psi        :     12.53s CPU     12.57s WALL (    1807 calls)

     Called by h_psi:
     h_psi:calbec :   1091.40s CPU   1097.40s WALL (    2171 calls)
     vloc_psi     :   2469.90s CPU   2562.46s WALL (    2171 calls)
     add_vuspsi   :   1063.16s CPU   1063.84s WALL (    2171 calls)

     General routines
     calbec       :   1581.30s CPU   1589.41s WALL (    2647 calls)
     fft          :     10.53s CPU     10.96s WALL (     363 calls)
     ffts         :      0.30s CPU      0.31s WALL (      50 calls)
     fftw         :   2311.31s CPU   2398.32s WALL (  892382 calls)
     interpolate  :      0.97s CPU      0.99s WALL (      26 calls)

     Parallel routines
     fft_scatt_xy :    347.62s CPU    361.91s WALL (  892795 calls)
     fft_scatt_yz :    463.14s CPU    485.74s WALL (  892795 calls)

     PWSCF        :      3h22m CPU      3h25m WALL


   This run was terminated on:   3:38:33  16Jul2021            

=------------------------------------------------------------------------------=
   JOB DONE.
=------------------------------------------------------------------------------=
# python dir           : /home/lls34/GitHub/10_QE_Interface/ase-espresso/espresso
# espresso dir         : /opt/womble/qe-6.7/bin
# pseudo dir           : /home/lls34/programs/QuantumExpresso/pseudopotentials/use_pot
# ase-espresso version : 0.3.3


