--------------------------------------------------------------------------
[[26292,1],10]: A high-performance Open MPI point-to-point messaging module
was unable to find any relevant network interfaces:

Module: OpenFabrics (openib)
  Host: node22

Another transport will be used instead, although this may result in
lower performance.

NOTE: You can disable this warning by setting the MCA parameter
btl_base_warn_component_unused to 0.
--------------------------------------------------------------------------

     Program PWSCF v.6.7MaX starts on 16Jul2021 at  0:13:16 

     This program is part of the open-source Quantum ESPRESSO suite
     for quantum simulation of materials; please cite
         "P. Giannozzi et al., J. Phys.:Condens. Matter 21 395502 (2009);
         "P. Giannozzi et al., J. Phys.:Condens. Matter 29 465901 (2017);
          URL http://www.quantum-espresso.org", 
     in publications or presentations arising from this work. More details at
     http://www.quantum-espresso.org/quote

     Parallel version (MPI), running on    16 processors

     MPI processes distributed on     1 nodes
     R & G space division:  proc/nbgrp/npool/nimage =      16
     Reading input from pw.inp

     Current dimensions of program PWSCF are:
     Max number of different atomic species (ntypx) = 10
     Max number of k-points (npk) =  40000
     Max angular momentum in pseudopotentials (lmaxx) =  3
     Message from routine cell_base_init:
     DEPRECATED: use true lattice parameter, not A to a.u. conversion factor
     file In.UPF: wavefunction(s)  5S renormalized
     file O.UPF: wavefunction(s)  2P renormalized

     IMPORTANT: XC functional enforced from input :
     Exchange-correlation= PBE
                           (   1   4   3   4   0   0   0)
     Any further DFT definition will be discarded
     Please, verify this is what you really want


     Subspace diagonalization in iterative solution of the eigenvalue problem:
     a serial algorithm will be used


     Parallelization info
     --------------------
     sticks:   dense  smooth     PW     G-vecs:    dense   smooth      PW
     Min        1067     533    141                89723    31724    4314
     Max        1068     534    142                89725    31725    4317
     Sum       17077    8539   2257              1435587   507593   69037



     bravais-lattice index     =            0
     lattice parameter (alat)  =       1.8897  a.u.
     unit-cell volume          =    7169.5930 (a.u.)^3
     number of atoms/cell      =           80
     number of atomic types    =            2
     number of electrons       =       704.00
     number of Kohn-Sham states=          372
     kinetic-energy cutoff     =      65.0000  Ry
     charge density cutoff     =     520.0000  Ry
     scf convergence threshold =      7.3E-09
     mixing beta               =       0.5000
     number of iterations used =           10  plain     mixing
     Exchange-correlation= PBE
                           (   1   4   3   4   0   0   0)

     celldm(1)=   1.889726  celldm(2)=   0.000000  celldm(3)=   0.000000
     celldm(4)=   0.000000  celldm(5)=   0.000000  celldm(6)=   0.000000

     crystal axes: (cart. coord. in units of alat)
               a(1) = (  11.758272   0.000206   0.000142 )  
               a(2) = (   6.452193   9.829861   0.000142 )  
               a(3) = (   6.452193   3.482914   9.192142 )  

     reciprocal axes: (cart. coord. in units 2 pi/alat)
               b(1) = (  0.085048 -0.055824 -0.038546 )  
               b(2) = ( -0.000001  0.101732 -0.038546 )  
               b(3) = ( -0.000001 -0.000001  0.108790 )  


     PseudoPot. # 1 for In read from file:
     /home/lls34/programs/QuantumExpresso/pseudopotentials/use_pot/In.UPF
     MD5 check sum: b236236d7d320b3bac520569a9051741
     Pseudo is Ultrasoft + core correction, Zval = 13.0
     Generated using "atomic" code by A. Dal Corso  v.5.0.99 svn rev. 10869
     Using radial grid of 1241 points,  6 beta functions with: 
                l(1) =   0
                l(2) =   0
                l(3) =   1
                l(4) =   1
                l(5) =   2
                l(6) =   2
     Q(r) pseudized with 0 coefficients 


     PseudoPot. # 2 for O  read from file:
     /home/lls34/programs/QuantumExpresso/pseudopotentials/use_pot/O.UPF
     MD5 check sum: 3f94a2996a3169367d6eb21d9b593f20
     Pseudo is Projector augmented-wave + core cor, Zval =  6.0
     Generated using "atomic" code by A. Dal Corso  v.5.0.99 svn rev. 10869
     Shape of augmentation charge: BESSEL
     Using radial grid of 1095 points,  4 beta functions with: 
                l(1) =   0
                l(2) =   0
                l(3) =   1
                l(4) =   1
     Q(r) pseudized with 0 coefficients 


     atomic species   valence    mass     pseudopotential
        In1           13.00   114.81800     In( 1.00)
        O1             6.00    15.99900     O ( 1.00)

     Starting magnetic structure 
     atomic species   magnetization
        In1          0.000
        O1           0.000

     No symmetry found



   Cartesian axes

     site n.     atom                  positions (alat units)
         1           In1 tau(   1) = (  10.5706437   5.7060672   3.9399592  )
         2           In1 tau(   2) = (  16.4497798   5.7061700   3.9400302  )
         3           In1 tau(   3) = (  13.7967401  10.6209978   3.9400302  )
         4           In1 tau(   4) = (  19.6758761  10.6211006   3.9401012  )
         5           In1 tau(   5) = (  13.7967401   7.4475242   8.5360304  )
         6           In1 tau(   6) = (  19.6758761   7.4476270   8.5361014  )
         7           In1 tau(   7) = (  17.0228364  12.3624549   8.5361014  )
         8           In1 tau(   8) = (  22.9019725  12.3625577   8.5361724  )
         9           In1 tau(   9) = (   7.9263494   4.2786687   2.9543606  )
        10           In1 tau(  10) = (  13.8054855   4.2787715   2.9544316  )
        11           In1 tau(  11) = (  11.1524457   9.1935993   2.9544316  )
        12           In1 tau(  12) = (  17.0315818   9.1937021   2.9545026  )
        13           In1 tau(  13) = (  11.1524457   6.0201257   7.5504318  )
        14           In1 tau(  14) = (  17.0315818   6.0202285   7.5505028  )
        15           In1 tau(  15) = (  14.3785421  10.9350564   7.5505028  )
        16           In1 tau(  16) = (  20.2576781  10.9351592   7.5505738  )
        17           In1 tau(  17) = (   4.4049794   2.3778219   1.6418526  )
        18           In1 tau(  18) = (  10.2841154   2.3779247   1.6419236  )
        19           In1 tau(  19) = (   7.6310757   7.2927525   1.6419236  )
        20           In1 tau(  20) = (  13.5102117   7.2928553   1.6419946  )
        21           In1 tau(  21) = (   7.6310757   4.1192790   6.2379238  )
        22           In1 tau(  22) = (  13.5102118   4.1193818   6.2379948  )
        23           In1 tau(  23) = (  10.8571720   9.0342096   6.2379948  )
        24           In1 tau(  24) = (  16.7363081   9.0343124   6.2380658  )
        25           In1 tau(  25) = (   1.7606850   0.9504234   0.6562540  )
        26           In1 tau(  26) = (   7.6398211   0.9505262   0.6563250  )
        27           In1 tau(  27) = (   4.9867814   5.8653540   0.6563250  )
        28           In1 tau(  28) = (  10.8659174   5.8654568   0.6563960  )
        29           In1 tau(  29) = (   4.9867814   2.6918805   5.2523252  )
        30           In1 tau(  30) = (  10.8659174   2.6919833   5.2523962  )
        31           In1 tau(  31) = (   8.2128777   7.6068111   5.2523962  )
        32           In1 tau(  32) = (  14.0920138   7.6069139   5.2524672  )
        33           O1  tau(  33) = (   6.0282078   2.3182666   0.2146098  )
        34           O1  tau(  34) = (  11.9015363   2.3095216   0.2146806  )
        35           O1  tau(  35) = (   9.2484966   7.2243494   0.2146806  )
        36           O1  tau(  36) = (  15.1276326   7.2244522   0.2147516  )
        37           O1  tau(  37) = (   9.2484966   4.0508758   4.8106808  )
        38           O1  tau(  38) = (  15.1276326   4.0509787   4.8107518  )
        39           O1  tau(  39) = (  12.4745929   8.9658065   4.8107518  )
        40           O1  tau(  40) = (  18.3537290   8.9659093   4.8108228  )
        41           O1  tau(  41) = (   7.0960206   5.1209440   1.1491243  )
        42           O1  tau(  42) = (  12.9751566   5.1210468   1.1491953  )
        43           O1  tau(  43) = (  10.3221169  10.0358746   1.1491953  )
        44           O1  tau(  44) = (  16.2012530  10.0359774   1.1492663  )
        45           O1  tau(  45) = (  10.3221169   6.8624010   5.7451955  )
        46           O1  tau(  46) = (  16.2012530   6.8625039   5.7452665  )
        47           O1  tau(  47) = (  13.5482133  11.7773317   5.7452665  )
        48           O1  tau(  48) = (  19.4273493  11.7774345   5.7453375  )
        49           O1  tau(  49) = (   8.1748762   2.1808427   2.5126452  )
        50           O1  tau(  50) = (  14.0540123   2.1809455   2.5127162  )
        51           O1  tau(  51) = (  11.4009725   7.0957733   2.5127162  )
        52           O1  tau(  52) = (  17.2801086   7.0958762   2.5127872  )
        53           O1  tau(  53) = (  11.4009725   3.9222998   7.1087164  )
        54           O1  tau(  54) = (  17.2801086   3.9224026   7.1087874  )
        55           O1  tau(  55) = (  14.6270689   8.8372304   7.1087874  )
        56           O1  tau(  56) = (  20.5062049   8.8373332   7.1088584  )
        57           O1  tau(  57) = (   4.1564525   4.4756478   2.0835680  )
        58           O1  tau(  58) = (  10.0355886   4.4757506   2.0836389  )
        59           O1  tau(  59) = (   7.3825489   9.3905785   2.0836389  )
        60           O1  tau(  60) = (  13.2616849   9.3906813   2.0837099  )
        61           O1  tau(  61) = (   7.3825489   6.2171049   6.6796391  )
        62           O1  tau(  62) = (  13.2616849   6.2172077   6.6797101  )
        63           O1  tau(  63) = (  10.6086452  11.1320356   6.6797101  )
        64           O1  tau(  64) = (  16.4877813  11.1321384   6.6797811  )
        65           O1  tau(  65) = (   6.3089285   4.3470718   4.3816035  )
        66           O1  tau(  66) = (  12.1880646   4.3471746   4.3816745  )
        67           O1  tau(  67) = (   9.5350249   9.2620024   4.3816745  )
        68           O1  tau(  68) = (  15.4141609   9.2621052   4.3817455  )
        69           O1  tau(  69) = (   9.5350249   6.0885288   8.9776747  )
        70           O1  tau(  70) = (  15.4141609   6.0886317   8.9777457  )
        71           O1  tau(  71) = (  12.7611212  11.0034595   8.9777457  )
        72           O1  tau(  72) = (  18.6402573  11.0035623   8.9778167  )
        73           O1  tau(  73) = (   5.2353082   1.5355466   3.4470889  )
        74           O1  tau(  74) = (  11.1144442   1.5356494   3.4471599  )
        75           O1  tau(  75) = (   8.4614045   6.4504772   3.4471599  )
        76           O1  tau(  76) = (  14.3405406   6.4505800   3.4472309  )
        77           O1  tau(  77) = (   8.4614045   3.2770037   8.0431601  )
        78           O1  tau(  78) = (  14.3405406   3.2771065   8.0432311  )
        79           O1  tau(  79) = (  11.6875008   8.1919343   8.0432311  )
        80           O1  tau(  80) = (  17.5666369   8.1920371   8.0433021  )

     number of k points=    14  Gaussian smearing, width (Ry)=  0.0073
                       cart. coord. in units 2pi/alat
        k(    1) = (   0.0000000   0.0000000   0.0000000), wk =   0.0370370
        k(    2) = (  -0.0000004  -0.0000002   0.0362633), wk =   0.0740741
        k(    3) = (  -0.0000004   0.0339108  -0.0128485), wk =   0.0740741
        k(    4) = (  -0.0000009   0.0339105   0.0234147), wk =   0.0740741
        k(    5) = (  -0.0000000   0.0339110  -0.0491118), wk =   0.0740741
        k(    6) = (   0.0283493  -0.0186079  -0.0128485), wk =   0.0740741
        k(    7) = (   0.0283489  -0.0186082   0.0234147), wk =   0.0740741
        k(    8) = (   0.0283498  -0.0186077  -0.0491118), wk =   0.0740741
        k(    9) = (   0.0283489   0.0153028  -0.0256970), wk =   0.0740741
        k(   10) = (   0.0283484   0.0153026   0.0105662), wk =   0.0740741
        k(   11) = (   0.0283493   0.0153031  -0.0619603), wk =   0.0740741
        k(   12) = (   0.0283498  -0.0525187  -0.0000000), wk =   0.0740741
        k(   13) = (   0.0283493  -0.0525189   0.0362633), wk =   0.0740741
        k(   14) = (   0.0283502  -0.0525185  -0.0362633), wk =   0.0740741

     Dense  grid:  1435587 G-vectors     FFT dimensions: ( 162, 162, 162)

     Smooth grid:   507593 G-vectors     FFT dimensions: ( 120, 120, 120)

     Estimated max dynamical RAM per process >       1.24 GB

     Estimated total dynamical RAM >      19.91 GB
     Generating pointlists ...
     new r_m :   0.8903 (alat units)  1.6823 (a.u.) for type    1
     new r_m :   0.8903 (alat units)  1.6823 (a.u.) for type    2

     Initial potential from superposition of free atoms

     starting charge  703.88090, renormalised to  704.00000
     Starting wfcs are  480 randomized atomic wfcs
     Checking if some PAW data can be deallocated... 

     total cpu time spent up to now is      312.9 secs

     Self-consistent Calculation

     iteration #  1     ecut=    65.00 Ry     beta= 0.50
     Davidson diagonalization with overlap
     ethr =  1.00E-02,  avg # of iterations =  2.0

     total cpu time spent up to now is      990.6 secs

     total energy              =   -6627.37938577 Ry
     estimated scf accuracy    <      22.66608695 Ry

     total magnetization       =    -0.00 Bohr mag/cell
     absolute magnetization    =     0.08 Bohr mag/cell

     iteration #  2     ecut=    65.00 Ry     beta= 0.50
     Davidson diagonalization with overlap
     ethr =  3.22E-03,  avg # of iterations =  4.0

     total cpu time spent up to now is     1971.0 secs

     total energy              =   -6635.48704837 Ry
     estimated scf accuracy    <       8.36805972 Ry

     total magnetization       =     0.00 Bohr mag/cell
     absolute magnetization    =     0.05 Bohr mag/cell

     iteration #  3     ecut=    65.00 Ry     beta= 0.50
     Davidson diagonalization with overlap
     ethr =  1.19E-03,  avg # of iterations =  2.3

     total cpu time spent up to now is     2746.6 secs

     total energy              =   -6636.77396281 Ry
     estimated scf accuracy    <       0.34016925 Ry

     total magnetization       =     0.00 Bohr mag/cell
     absolute magnetization    =     0.04 Bohr mag/cell

     iteration #  4     ecut=    65.00 Ry     beta= 0.50
     Davidson diagonalization with overlap
     ethr =  4.83E-05,  avg # of iterations =  7.7

     total cpu time spent up to now is     4047.2 secs

     total energy              =   -6636.95012318 Ry
     estimated scf accuracy    <       0.81315085 Ry

     total magnetization       =    -0.00 Bohr mag/cell
     absolute magnetization    =     0.01 Bohr mag/cell

     iteration #  5     ecut=    65.00 Ry     beta= 0.50
     Davidson diagonalization with overlap
     ethr =  4.83E-05,  avg # of iterations =  3.0

     total cpu time spent up to now is     4874.1 secs

     total energy              =   -6637.00858281 Ry
     estimated scf accuracy    <       0.07186032 Ry

     total magnetization       =     0.00 Bohr mag/cell
     absolute magnetization    =     0.01 Bohr mag/cell

     iteration #  6     ecut=    65.00 Ry     beta= 0.50
     Davidson diagonalization with overlap
     c_bands:  1 eigenvalues not converged
     c_bands:  1 eigenvalues not converged
     c_bands:  3 eigenvalues not converged
     c_bands:  2 eigenvalues not converged
     c_bands:  1 eigenvalues not converged
     c_bands:  2 eigenvalues not converged
     c_bands:  2 eigenvalues not converged
     ethr =  1.02E-05,  avg # of iterations = 10.4

     total cpu time spent up to now is     6015.9 secs

     total energy              =   -6637.03631111 Ry
     estimated scf accuracy    <       0.00718635 Ry

     total magnetization       =    -0.00 Bohr mag/cell
     absolute magnetization    =     0.01 Bohr mag/cell

     iteration #  7     ecut=    65.00 Ry     beta= 0.50
     Davidson diagonalization with overlap
     c_bands:  2 eigenvalues not converged
     c_bands:  2 eigenvalues not converged
     c_bands:  1 eigenvalues not converged
     c_bands:  3 eigenvalues not converged
     c_bands:  3 eigenvalues not converged
     c_bands:  1 eigenvalues not converged
     c_bands:  2 eigenvalues not converged
     ethr =  1.02E-06,  avg # of iterations =  8.9

     total cpu time spent up to now is     6952.4 secs

     total energy              =   -6637.03713526 Ry
     estimated scf accuracy    <       0.00103083 Ry

     total magnetization       =    -0.00 Bohr mag/cell
     absolute magnetization    =     0.00 Bohr mag/cell

     iteration #  8     ecut=    65.00 Ry     beta= 0.50
     Davidson diagonalization with overlap
     c_bands:  4 eigenvalues not converged
     c_bands:  3 eigenvalues not converged
     c_bands:  2 eigenvalues not converged
     c_bands:  3 eigenvalues not converged
     c_bands:  1 eigenvalues not converged
     ethr =  1.46E-07,  avg # of iterations =  7.4

     total cpu time spent up to now is     7990.0 secs

     total energy              =   -6637.03745517 Ry
     estimated scf accuracy    <       0.00002981 Ry

     total magnetization       =     0.00 Bohr mag/cell
     absolute magnetization    =     0.00 Bohr mag/cell

     iteration #  9     ecut=    65.00 Ry     beta= 0.50
     Davidson diagonalization with overlap
     c_bands:  3 eigenvalues not converged
     ethr =  4.23E-09,  avg # of iterations =  6.1

     total cpu time spent up to now is     9406.0 secs

     total energy              =   -6637.03748881 Ry
     estimated scf accuracy    <       0.00000095 Ry

     total magnetization       =     0.00 Bohr mag/cell
     absolute magnetization    =     0.00 Bohr mag/cell

     iteration # 10     ecut=    65.00 Ry     beta= 0.50
     Davidson diagonalization with overlap
     ethr =  1.35E-10,  avg # of iterations =  5.6

     total cpu time spent up to now is    10829.0 secs

     total energy              =   -6637.03748901 Ry
     estimated scf accuracy    <       0.00000230 Ry

     total magnetization       =     0.00 Bohr mag/cell
     absolute magnetization    =     0.00 Bohr mag/cell

     iteration # 11     ecut=    65.00 Ry     beta= 0.50
     Davidson diagonalization with overlap
     ethr =  1.35E-10,  avg # of iterations =  2.0

     total cpu time spent up to now is    11606.8 secs

     total energy              =   -6637.03748897 Ry
     estimated scf accuracy    <       0.00000052 Ry

     total magnetization       =     0.00 Bohr mag/cell
     absolute magnetization    =     0.00 Bohr mag/cell

     iteration # 12     ecut=    65.00 Ry     beta= 0.50
     Davidson diagonalization with overlap
     ethr =  7.40E-11,  avg # of iterations =  3.1

     Magnetic moment per site:
     atom:    1    charge:    9.3971    magn:   -0.0000    constr:    0.0000
     atom:    2    charge:    9.3971    magn:   -0.0000    constr:    0.0000
     atom:    3    charge:    9.3971    magn:    0.0000    constr:    0.0000
     atom:    4    charge:    9.3971    magn:    0.0000    constr:    0.0000
     atom:    5    charge:    9.3974    magn:   -0.0000    constr:    0.0000
     atom:    6    charge:    9.3971    magn:   -0.0000    constr:    0.0000
     atom:    7    charge:    9.3971    magn:   -0.0000    constr:    0.0000
     atom:    8    charge:    9.3971    magn:   -0.0000    constr:    0.0000
     atom:    9    charge:    9.3969    magn:   -0.0000    constr:    0.0000
     atom:   10    charge:    9.3969    magn:   -0.0000    constr:    0.0000
     atom:   11    charge:    9.3969    magn:   -0.0000    constr:    0.0000
     atom:   12    charge:    9.3969    magn:    0.0000    constr:    0.0000
     atom:   13    charge:    9.3968    magn:   -0.0000    constr:    0.0000
     atom:   14    charge:    9.3969    magn:   -0.0000    constr:    0.0000
     atom:   15    charge:    9.3969    magn:   -0.0000    constr:    0.0000
     atom:   16    charge:    9.3969    magn:   -0.0000    constr:    0.0000
     atom:   17    charge:    9.3966    magn:   -0.0000    constr:    0.0000
     atom:   18    charge:    9.3969    magn:    0.0000    constr:    0.0000
     atom:   19    charge:    9.3969    magn:   -0.0000    constr:    0.0000
     atom:   20    charge:    9.3969    magn:   -0.0000    constr:    0.0000
     atom:   21    charge:    9.3969    magn:   -0.0000    constr:    0.0000
     atom:   22    charge:    9.3969    magn:   -0.0000    constr:    0.0000
     atom:   23    charge:    9.3969    magn:    0.0000    constr:    0.0000
     atom:   24    charge:    9.3969    magn:    0.0000    constr:    0.0000
     atom:   25    charge:    9.3971    magn:   -0.0000    constr:    0.0000
     atom:   26    charge:    9.3970    magn:   -0.0000    constr:    0.0000
     atom:   27    charge:    9.3971    magn:   -0.0000    constr:    0.0000
     atom:   28    charge:    9.3971    magn:   -0.0000    constr:    0.0000
     atom:   29    charge:    9.3971    magn:   -0.0000    constr:    0.0000
     atom:   30    charge:    9.3971    magn:   -0.0000    constr:    0.0000
     atom:   31    charge:    9.3971    magn:   -0.0000    constr:    0.0000
     atom:   32    charge:    9.3971    magn:    0.0000    constr:    0.0000
     atom:   33    charge:    5.8031    magn:   -0.0000    constr:    0.0000
     atom:   34    charge:    5.8033    magn:   -0.0000    constr:    0.0000
     atom:   35    charge:    5.8033    magn:    0.0000    constr:    0.0000
     atom:   36    charge:    5.8033    magn:   -0.0000    constr:    0.0000
     atom:   37    charge:    5.8033    magn:    0.0000    constr:    0.0000
     atom:   38    charge:    5.8033    magn:    0.0000    constr:    0.0000
     atom:   39    charge:    5.8033    magn:   -0.0000    constr:    0.0000
     atom:   40    charge:    5.8033    magn:   -0.0000    constr:    0.0000
     atom:   41    charge:    5.8034    magn:    0.0000    constr:    0.0000
     atom:   42    charge:    5.8033    magn:   -0.0000    constr:    0.0000
     atom:   43    charge:    5.8032    magn:    0.0000    constr:    0.0000
     atom:   44    charge:    5.8033    magn:    0.0000    constr:    0.0000
     atom:   45    charge:    5.8033    magn:    0.0000    constr:    0.0000
     atom:   46    charge:    5.8033    magn:   -0.0000    constr:    0.0000
     atom:   47    charge:    5.8033    magn:    0.0000    constr:    0.0000
     atom:   48    charge:    5.8033    magn:   -0.0000    constr:    0.0000
     atom:   49    charge:    5.8033    magn:   -0.0000    constr:    0.0000
     atom:   50    charge:    5.8033    magn:    0.0000    constr:    0.0000
     atom:   51    charge:    5.8033    magn:    0.0000    constr:    0.0000
     atom:   52    charge:    5.8033    magn:    0.0000    constr:    0.0000
     atom:   53    charge:    5.8033    magn:   -0.0000    constr:    0.0000
     atom:   54    charge:    5.8033    magn:    0.0000    constr:    0.0000
     atom:   55    charge:    5.8033    magn:   -0.0000    constr:    0.0000
     atom:   56    charge:    5.8033    magn:   -0.0000    constr:    0.0000
     atom:   57    charge:    5.8033    magn:    0.0000    constr:    0.0000
     atom:   58    charge:    5.8033    magn:    0.0000    constr:    0.0000
     atom:   59    charge:    5.8033    magn:    0.0000    constr:    0.0000
     atom:   60    charge:    5.8033    magn:    0.0000    constr:    0.0000
     atom:   61    charge:    5.8033    magn:    0.0000    constr:    0.0000
     atom:   62    charge:    5.8034    magn:    0.0000    constr:    0.0000
     atom:   63    charge:    5.8033    magn:   -0.0000    constr:    0.0000
     atom:   64    charge:    5.8033    magn:    0.0000    constr:    0.0000
     atom:   65    charge:    5.8033    magn:   -0.0000    constr:    0.0000
     atom:   66    charge:    5.8033    magn:   -0.0000    constr:    0.0000
     atom:   67    charge:    5.8033    magn:   -0.0000    constr:    0.0000
     atom:   68    charge:    5.8033    magn:   -0.0000    constr:    0.0000
     atom:   69    charge:    5.8032    magn:    0.0000    constr:    0.0000
     atom:   70    charge:    5.8034    magn:   -0.0000    constr:    0.0000
     atom:   71    charge:    5.8033    magn:    0.0000    constr:    0.0000
     atom:   72    charge:    5.8033    magn:    0.0000    constr:    0.0000
     atom:   73    charge:    5.8033    magn:    0.0000    constr:    0.0000
     atom:   74    charge:    5.8033    magn:    0.0000    constr:    0.0000
     atom:   75    charge:    5.8033    magn:    0.0000    constr:    0.0000
     atom:   76    charge:    5.8033    magn:    0.0000    constr:    0.0000
     atom:   77    charge:    5.8033    magn:   -0.0000    constr:    0.0000
     atom:   78    charge:    5.8033    magn:    0.0000    constr:    0.0000
     atom:   79    charge:    5.8034    magn:   -0.0000    constr:    0.0000
     atom:   80    charge:    5.8033    magn:   -0.0000    constr:    0.0000

     total cpu time spent up to now is    12442.7 secs

     End of self-consistent calculation

 ------ SPIN UP ------------


          k = 0.0000 0.0000 0.0000 ( 63395 PWs)   bands (ev):

    -9.2335  -8.8487  -8.8483  -8.8481  -8.7284  -8.7281  -8.7275  -8.7274
    -8.7273  -8.7271  -8.7267  -8.7262  -8.6115  -8.6113  -8.6110  -8.4642
    -8.4637  -8.4632  -8.4447  -8.4444  -8.3606  -8.3602  -8.3602  -8.3599
    -8.3597  -8.3595  -8.3495  -8.3493  -8.3492  -8.3491  -8.3319  -8.3317
    -8.3316  -8.3266  -8.3264  -8.3262  -8.3206  -8.3205  -8.3200  -8.3197
    -8.3193  -8.3189  -8.2492  -8.2491  -8.1607  -8.1593  -8.1590  -8.1588
    -4.3160  -4.3159  -4.2844  -4.2842  -4.2839  -4.2674  -4.2670  -4.2669
    -4.2667  -4.2666  -4.2662  -4.2446  -4.2445  -4.2444  -4.2301  -4.2296
    -4.2175  -4.2174  -4.2172  -4.2153  -4.2152  -4.2150  -4.2149  -4.1929
    -4.1865  -4.1864  -4.1863  -4.1819  -4.1818  -4.1776  -4.1774  -4.1773
    -4.1573  -4.1572  -4.1569  -4.1568  -4.1565  -4.1563  -4.1391  -4.1390
    -4.1388  -4.1259  -4.1257  -4.1256  -4.1231  -4.1230  -4.1229  -4.1157
    -4.1154  -4.1153  -4.1152  -4.1147  -4.1146  -4.0953  -4.0950  -4.0949
    -4.0948  -4.0943  -4.0940  -4.0772  -4.0769  -4.0767  -4.0706  -4.0705
    -4.0700  -4.0700  -4.0642  -4.0511  -4.0510  -4.0164  -4.0161  -4.0154
    -4.0149  -4.0148  -4.0148  -4.0143  -4.0140  -3.9758  -3.9757  -3.9662
    -3.9661  -3.9658  -3.9649  -3.9648  -3.9646  -3.9643  -3.9642  -3.9639
    -3.9504  -3.9501  -3.9499  -3.9334  -3.9332  -3.9330  -3.9288  -3.9285
    -3.9283  -3.8887  -3.8886  -3.8882  -3.8881  -3.8760  -3.8759  -3.8740
    -3.8661  -3.8659  -3.8657  -3.8656  -3.8655  -3.8650  -3.8611  -3.8597
    -3.8594  -3.8591  -3.8591  -3.8585  -3.8583  -3.8471  -3.8470  -3.8468
    -3.8317  -3.8315  -3.8313  -3.7935  -3.7933  -3.7929  -3.7837  -3.7830
    -3.7323  -3.7319  -3.7317  -3.6898  -3.6892  -3.6890  -3.6004  -3.6000
    -3.4770  -3.4767  -3.4764  -3.4761  -3.4759  -3.4754  -3.3528  -3.3523
    -3.3518  -3.3516  -3.3174  -3.3172  -3.3170  -3.3051  -3.3050  -3.3044
    -3.3043  -3.3037  -3.3035  -2.9633  -2.9628  -2.8481  -2.8476  -2.8475
     2.6339   3.0032   3.1899   3.1907   3.1910   3.1912   3.1914   3.1917
     3.2104   3.2110   3.2110   3.2880   3.2883   3.7048   3.7061   3.7063
     3.9325   3.9333   3.9336   3.9338   3.9342   3.9346   4.2683   4.2685
     4.4442   4.4445   4.4449   4.4499   4.4511   4.4517   4.5737   4.5746
     4.8970   4.8973   4.8981   4.9684   5.2064   5.3168   5.3171   5.3176
     5.3177   5.3627   5.3630   5.3632   5.3823   5.3830   5.3834   5.4456
     5.4462   5.4466   5.4469   5.4474   5.4481   5.5937   5.5943   5.8032
     5.9243   5.9247   5.9252   5.9253   5.9258   5.9260   5.9333   5.9337
     5.9337   6.0372   6.0373   6.0375   6.2311   6.2315   6.2322   6.2327
     6.2333   6.6541   6.6552   6.6555   6.6557   6.6561   6.6565   7.0632
     7.0644   7.0646   7.0650   7.0669   7.0670   7.0676   7.1521   7.1521
     7.1526   7.1714   7.1723   7.1726   7.1729   7.1733   7.1736   7.1745
     7.1750   7.1756   7.2623   7.2631   7.2637   7.2637   7.2647   7.2647
     7.3068   7.3072   7.3074   7.3695   7.3699   7.3743   7.3750   7.3751
     7.3752   7.3761   7.3762   7.5650   7.5652   7.5657   7.6623   7.7418
     7.7420   7.7422   7.7489   7.7493   7.8553   7.8558   7.8993   7.8994
     7.8996   7.8998   7.9904   7.9907   7.9909   7.9998   7.9999   8.0282
     8.0288   8.0290   8.0293   8.0296   8.0301   8.0426   8.0429   8.0432
     9.0291  12.1668  12.1673  12.6900  12.6909  12.6917  12.6921  12.6926
    12.6941  12.8702  12.8715  12.8727  13.2470  13.2477  13.2489  13.4075
    13.6078  13.6097  13.6099  13.6104

          k =-0.0000-0.0000 0.0363 ( 63469 PWs)   bands (ev):

    -9.1646  -8.9777  -8.8417  -8.8410  -8.8405  -8.8059  -8.8045  -8.8040
    -8.6420  -8.6418  -8.6412  -8.6113  -8.6097  -8.6093  -8.4844  -8.4500
    -8.4492  -8.4451  -8.4356  -8.4305  -8.4114  -8.4103  -8.4045  -8.4014
    -8.3888  -8.3851  -8.3666  -8.3659  -8.3583  -8.3513  -8.3507  -8.3241
    -8.3231  -8.3230  -8.3221  -8.3213  -8.3206  -8.3092  -8.3036  -8.2666
    -8.2636  -8.2519  -8.2512  -8.2476  -8.1902  -8.1866  -8.1855  -8.1850
    -4.2997  -4.2898  -4.2854  -4.2808  -4.2805  -4.2794  -4.2785  -4.2780
    -4.2641  -4.2549  -4.2547  -4.2494  -4.2485  -4.2481  -4.2267  -4.2239
    -4.2230  -4.2223  -4.2155  -4.2154  -4.2103  -4.2070  -4.2007  -4.1981
    -4.1976  -4.1944  -4.1942  -4.1864  -4.1803  -4.1780  -4.1658  -4.1615
    -4.1612  -4.1610  -4.1608  -4.1545  -4.1540  -4.1536  -4.1499  -4.1492
    -4.1463  -4.1436  -4.1434  -4.1414  -4.1368  -4.1218  -4.1216  -4.1182
    -4.1170  -4.1168  -4.1037  -4.1013  -4.1011  -4.0986  -4.0925  -4.0921
    -4.0856  -4.0834  -4.0829  -4.0731  -4.0687  -4.0660  -4.0566  -4.0562
    -4.0465  -4.0430  -4.0369  -4.0315  -4.0275  -4.0270  -4.0267  -4.0223
    -4.0215  -4.0189  -4.0174  -4.0058  -4.0051  -3.9882  -3.9877  -3.9874
    -3.9870  -3.9823  -3.9714  -3.9706  -3.9690  -3.9684  -3.9597  -3.9593
    -3.9538  -3.9528  -3.9440  -3.9437  -3.9376  -3.9313  -3.9267  -3.9241
    -3.9097  -3.9027  -3.9012  -3.9006  -3.9003  -3.8949  -3.8943  -3.8937
    -3.8890  -3.8821  -3.8736  -3.8705  -3.8686  -3.8671  -3.8596  -3.8591
    -3.8585  -3.8580  -3.8446  -3.8443  -3.8401  -3.8397  -3.8309  -3.8227
    -3.8216  -3.8064  -3.8059  -3.7961  -3.7926  -3.7921  -3.7722  -3.7503
    -3.7278  -3.6956  -3.6896  -3.6889  -3.6645  -3.6259  -3.6247  -3.6241
    -3.5956  -3.5855  -3.5695  -3.5690  -3.5600  -3.5421  -3.5076  -3.5070
    -3.3653  -3.3646  -3.3267  -3.3263  -3.2647  -3.2191  -3.1997  -3.1215
    -3.1206  -3.1147  -3.0752  -3.0631  -2.9959  -2.9312  -2.9308  -2.9050
     2.7474   2.9955   3.0023   3.2066   3.2123   3.2158   3.3062   3.3067
     3.3106   3.3109   3.3857   3.3869   3.4963   3.5262   3.5760   3.5771
     3.6357   3.6363   3.8011   3.9354   3.9602   3.9611   3.9641   4.1344
     4.2514   4.2522   4.5252   4.5260   4.6146   4.6238   4.6332   4.6922
     4.7765   4.9848   4.9853   5.0988   5.1102   5.1268   5.1832   5.2842
     5.3117   5.3124   5.3222   5.3228   5.3658   5.3664   5.3953   5.4350
     5.5109   5.6207   5.6210   5.6564   5.6833   5.6898   5.8136   5.8139
     5.8438   5.8468   5.9723   5.9725   5.9734   6.0261   6.0264   6.1311
     6.1328   6.1636   6.1740   6.2039   6.2255   6.2518   6.2525   6.2656
     6.4160   6.4167   6.4838   6.5316   6.5403   6.5876   6.6419   6.6887
     6.6896   6.7814   6.7825   6.9016   6.9297   6.9372   6.9644   6.9657
     7.0097   7.0499   7.0506   7.1190   7.1193   7.1818   7.2071   7.2075
     7.2296   7.2306   7.2557   7.2593   7.2674   7.3028   7.3053   7.4356
     7.4391   7.4403   7.4740   7.4958   7.5357   7.5593   7.5602   7.5823
     7.5828   7.5832   7.6185   7.6286   7.6301   7.6577   7.6631   7.6643
     7.6738   7.7217   7.7228   7.7233   7.7883   7.7886   7.8025   7.8034
     7.8606   7.8856   7.9122   7.9125   7.9166   7.9181   7.9194   7.9202
     7.9325   7.9621   7.9632   7.9671   8.0122   8.0132   8.0405   8.0897
     9.9490  11.3469  12.1356  12.3785  12.3788  12.4938  12.5365  12.5366
    12.7630  13.2130  13.2139  13.4329  13.4341  13.5784  13.5996  13.6688
    13.6706  13.6731  13.7262  13.7442

          k =-0.0000 0.0339-0.0128 ( 63469 PWs)   bands (ev):

    -9.1646  -8.9777  -8.8417  -8.8410  -8.8406  -8.8059  -8.8044  -8.8041
    -8.6420  -8.6416  -8.6413  -8.6114  -8.6095  -8.6094  -8.4844  -8.4502
    -8.4495  -8.4446  -8.4358  -8.4303  -8.4113  -8.4108  -8.4045  -8.4013
    -8.3887  -8.3852  -8.3664  -8.3658  -8.3585  -8.3510  -8.3507  -8.3242
    -8.3233  -8.3227  -8.3223  -8.3211  -8.3209  -8.3091  -8.3037  -8.2667
    -8.2636  -8.2518  -8.2513  -8.2475  -8.1902  -8.1868  -8.1853  -8.1849
    -4.2996  -4.2898  -4.2855  -4.2808  -4.2805  -4.2795  -4.2783  -4.2781
    -4.2640  -4.2549  -4.2547  -4.2492  -4.2484  -4.2483  -4.2269  -4.2240
    -4.2229  -4.2221  -4.2155  -4.2153  -4.2103  -4.2070  -4.2007  -4.1981
    -4.1977  -4.1943  -4.1942  -4.1864  -4.1803  -4.1780  -4.1659  -4.1615
    -4.1613  -4.1609  -4.1608  -4.1545  -4.1540  -4.1537  -4.1497  -4.1495
    -4.1464  -4.1435  -4.1434  -4.1413  -4.1369  -4.1218  -4.1216  -4.1182
    -4.1171  -4.1168  -4.1037  -4.1014  -4.1011  -4.0986  -4.0923  -4.0922
    -4.0855  -4.0832  -4.0831  -4.0731  -4.0688  -4.0661  -4.0566  -4.0561
    -4.0464  -4.0430  -4.0369  -4.0315  -4.0273  -4.0271  -4.0268  -4.0220
    -4.0216  -4.0189  -4.0174  -4.0056  -4.0053  -3.9880  -3.9879  -3.9873
    -3.9872  -3.9824  -3.9714  -3.9706  -3.9689  -3.9685  -3.9596  -3.9594
    -3.9538  -3.9529  -3.9441  -3.9436  -3.9376  -3.9314  -3.9267  -3.9241
    -3.9098  -3.9027  -3.9010  -3.9008  -3.9003  -3.8947  -3.8943  -3.8939
    -3.8890  -3.8821  -3.8737  -3.8706  -3.8685  -3.8670  -3.8596  -3.8591
    -3.8585  -3.8582  -3.8445  -3.8444  -3.8401  -3.8397  -3.8309  -3.8223
    -3.8220  -3.8062  -3.8060  -3.7961  -3.7929  -3.7917  -3.7722  -3.7505
    -3.7279  -3.6954  -3.6896  -3.6894  -3.6645  -3.6256  -3.6243  -3.6240
    -3.5955  -3.5858  -3.5694  -3.5693  -3.5599  -3.5422  -3.5073  -3.5070
    -3.3650  -3.3649  -3.3266  -3.3265  -3.2645  -3.2190  -3.1996  -3.1212
    -3.1209  -3.1148  -3.0752  -3.0628  -2.9962  -2.9312  -2.9309  -2.9049
     2.7472   2.9957   3.0026   3.2066   3.2124   3.2155   3.3063   3.3068
     3.3100   3.3108   3.3863   3.3868   3.4965   3.5262   3.5765   3.5771
     3.6354   3.6364   3.8002   3.9354   3.9600   3.9608   3.9641   4.1338
     4.2516   4.2523   4.5254   4.5259   4.6146   4.6246   4.6331   4.6928
     4.7767   4.9847   4.9852   5.0990   5.1104   5.1267   5.1836   5.2840
     5.3113   5.3118   5.3222   5.3227   5.3661   5.3665   5.3952   5.4348
     5.5104   5.6204   5.6207   5.6566   5.6831   5.6897   5.8134   5.8135
     5.8441   5.8471   5.9728   5.9730   5.9737   6.0263   6.0269   6.1314
     6.1319   6.1638   6.1742   6.2036   6.2259   6.2521   6.2525   6.2653
     6.4164   6.4169   6.4836   6.5314   6.5397   6.5871   6.6422   6.6883
     6.6891   6.7816   6.7819   6.9012   6.9292   6.9377   6.9646   6.9650
     7.0099   7.0499   7.0501   7.1189   7.1192   7.1819   7.2073   7.2079
     7.2301   7.2304   7.2559   7.2592   7.2678   7.3031   7.3059   7.4355
     7.4397   7.4401   7.4737   7.4953   7.5358   7.5598   7.5601   7.5821
     7.5830   7.5839   7.6178   7.6287   7.6303   7.6575   7.6632   7.6637
     7.6743   7.7221   7.7224   7.7231   7.7883   7.7885   7.8025   7.8033
     7.8606   7.8857   7.9124   7.9127   7.9166   7.9179   7.9197   7.9202
     7.9321   7.9624   7.9627   7.9670   8.0123   8.0128   8.0407   8.0898
     9.9490  11.3470  12.1353  12.3783  12.3791  12.4933  12.5362  12.5373
    12.7634  13.2128  13.2138  13.4329  13.4343  13.5784  13.6004  13.6690
    13.6711  13.6725  13.7266  13.7429

          k =-0.0000 0.0339 0.0234 ( 63470 PWs)   bands (ev):

    -9.1467  -8.9555  -8.8746  -8.8732  -8.8624  -8.8623  -8.7789  -8.7788
    -8.6513  -8.6511  -8.5899  -8.5896  -8.5720  -8.5705  -8.5500  -8.4617
    -8.4553  -8.4549  -8.4376  -8.4372  -8.4250  -8.4231  -8.4219  -8.4061
    -8.3906  -8.3902  -8.3582  -8.3529  -8.3451  -8.3364  -8.3361  -8.3262
    -8.3221  -8.3135  -8.3050  -8.2994  -8.2990  -8.2846  -8.2842  -8.2826
    -8.2716  -8.2712  -8.2621  -8.2357  -8.2137  -8.1987  -8.1984  -8.1919
    -4.3090  -4.2932  -4.2832  -4.2783  -4.2747  -4.2744  -4.2736  -4.2734
    -4.2709  -4.2510  -4.2509  -4.2485  -4.2484  -4.2374  -4.2349  -4.2305
    -4.2254  -4.2159  -4.2127  -4.2110  -4.2108  -4.2061  -4.2020  -4.2017
    -4.1991  -4.1864  -4.1820  -4.1817  -4.1815  -4.1777  -4.1756  -4.1708
    -4.1688  -4.1685  -4.1661  -4.1576  -4.1575  -4.1479  -4.1474  -4.1472
    -4.1462  -4.1460  -4.1432  -4.1427  -4.1313  -4.1273  -4.1187  -4.1185
    -4.1146  -4.1060  -4.1058  -4.1008  -4.0991  -4.0989  -4.0969  -4.0964
    -4.0817  -4.0810  -4.0808  -4.0805  -4.0801  -4.0763  -4.0622  -4.0514
    -4.0480  -4.0347  -4.0339  -4.0326  -4.0324  -4.0305  -4.0190  -4.0142
    -4.0050  -4.0044  -4.0043  -4.0011  -4.0008  -3.9919  -3.9913  -3.9791
    -3.9789  -3.9782  -3.9774  -3.9741  -3.9738  -3.9718  -3.9597  -3.9594
    -3.9591  -3.9582  -3.9579  -3.9416  -3.9410  -3.9363  -3.9304  -3.9276
    -3.9194  -3.9079  -3.9031  -3.9025  -3.9021  -3.9009  -3.9003  -3.8903
    -3.8872  -3.8767  -3.8688  -3.8678  -3.8599  -3.8590  -3.8553  -3.8552
    -3.8524  -3.8522  -3.8486  -3.8472  -3.8469  -3.8456  -3.8452  -3.8129
    -3.8049  -3.8046  -3.7885  -3.7856  -3.7847  -3.7658  -3.7656  -3.7555
    -3.7461  -3.7457  -3.7178  -3.7172  -3.6905  -3.6738  -3.6704  -3.6511
    -3.6400  -3.6399  -3.5536  -3.5204  -3.5197  -3.5051  -3.4056  -3.4051
    -3.3808  -3.3097  -3.3069  -3.3066  -3.2569  -3.2261  -3.2258  -3.2007
    -3.2006  -3.1443  -3.0435  -3.0243  -2.9665  -2.9662  -2.9457  -2.8877
     2.7534   3.0204   3.0732   3.1360   3.1366   3.1638   3.3372   3.3792
     3.3814   3.3815   3.3962   3.3967   3.4057   3.4214   3.5324   3.6185
     3.6188   3.7422   3.7429   3.8941   4.0175   4.0449   4.0592   4.0594
     4.2129   4.2134   4.3992   4.3995   4.5603   4.6217   4.7941   4.8365
     4.9089   4.9399   5.0454   5.0738   5.0740   5.1781   5.1786   5.2224
     5.2243   5.2252   5.2798   5.2802   5.2918   5.3810   5.3814   5.3990
     5.4619   5.5397   5.6537   5.6546   5.7257   5.7405   5.7407   5.7854
     5.7919   5.7931   5.8816   5.9644   6.0601   6.0958   6.0965   6.1510
     6.1649   6.1802   6.2480   6.2527   6.2532   6.4275   6.4286   6.4336
     6.4541   6.4930   6.4939   6.4963   6.5162   6.7033   6.7201   6.7409
     6.7415   6.7919   6.7923   6.8531   6.9545   6.9547   6.9724   6.9779
     6.9809   7.0197   7.0200   7.0476   7.0481   7.0546   7.0800   7.0897
     7.1097   7.2368   7.2371   7.2377   7.2380   7.3051   7.3061   7.3072
     7.3879   7.4024   7.4349   7.4584   7.4588   7.4958   7.5206   7.5209
     7.5566   7.5983   7.6032   7.6263   7.6644   7.6649   7.6819   7.7097
     7.7120   7.7637   7.7661   7.7667   7.8040   7.8065   7.8103   7.8282
     7.8286   7.8991   7.8992   7.9071   7.9136   7.9343   7.9613   7.9614
     7.9742   7.9785   7.9787   7.9971   8.0089   8.0146   8.0574   8.0576
    10.1461  11.7341  11.7906  11.9672  12.0657  12.0664  13.0136  13.0589
    13.0605  13.3160  13.3168  13.3594  13.3606  13.5158  13.5171  13.5827
    13.6416  13.6833  13.6844  13.8717

          k =-0.0000 0.0339-0.0491 ( 63467 PWs)   bands (ev):

    -9.0585  -9.0117  -9.0115  -8.8842  -8.8841  -8.7259  -8.7160  -8.7156
    -8.7148  -8.7146  -8.7016  -8.5715  -8.5712  -8.4935  -8.4930  -8.4566
    -8.4477  -8.4261  -8.4203  -8.4201  -8.4186  -8.4184  -8.4130  -8.4126
    -8.3958  -8.3955  -8.3860  -8.3855  -8.3742  -8.3687  -8.3685  -8.3622
    -8.3104  -8.3099  -8.3046  -8.3040  -8.2990  -8.2606  -8.2597  -8.2589
    -8.2530  -8.2528  -8.2282  -8.2278  -8.2271  -8.2266  -8.2198  -8.2196
    -4.2918  -4.2913  -4.2819  -4.2814  -4.2767  -4.2747  -4.2687  -4.2686
    -4.2674  -4.2558  -4.2527  -4.2526  -4.2412  -4.2411  -4.2310  -4.2307
    -4.2250  -4.2247  -4.2214  -4.2203  -4.2200  -4.2135  -4.2065  -4.2062
    -4.1922  -4.1917  -4.1911  -4.1826  -4.1823  -4.1733  -4.1726  -4.1724
    -4.1630  -4.1627  -4.1605  -4.1570  -4.1568  -4.1565  -4.1532  -4.1530
    -4.1512  -4.1511  -4.1324  -4.1321  -4.1305  -4.1300  -4.1164  -4.1160
    -4.1113  -4.1109  -4.0957  -4.0957  -4.0941  -4.0932  -4.0928  -4.0911
    -4.0906  -4.0836  -4.0666  -4.0663  -4.0611  -4.0605  -4.0586  -4.0515
    -4.0442  -4.0279  -4.0276  -4.0272  -4.0268  -4.0196  -4.0192  -4.0114
    -4.0090  -4.0056  -4.0052  -4.0037  -4.0032  -4.0025  -3.9998  -3.9994
    -3.9853  -3.9845  -3.9838  -3.9809  -3.9743  -3.9741  -3.9647  -3.9644
    -3.9629  -3.9536  -3.9533  -3.9518  -3.9401  -3.9399  -3.9389  -3.9384
    -3.9252  -3.9249  -3.9212  -3.9208  -3.9187  -3.8876  -3.8875  -3.8827
    -3.8810  -3.8808  -3.8710  -3.8704  -3.8564  -3.8558  -3.8525  -3.8524
    -3.8474  -3.8470  -3.8383  -3.8350  -3.8340  -3.8338  -3.8306  -3.8301
    -3.7854  -3.7818  -3.7814  -3.7773  -3.7770  -3.7758  -3.7587  -3.7584
    -3.7427  -3.7422  -3.7166  -3.7160  -3.6881  -3.6797  -3.6795  -3.6600
    -3.6228  -3.6221  -3.6047  -3.6036  -3.5802  -3.4896  -3.4522  -3.4520
    -3.3608  -3.3602  -3.2765  -3.2506  -3.2499  -3.1817  -3.1815  -3.1483
    -3.1220  -3.0997  -3.0655  -3.0653  -2.9735  -2.9733  -2.9577  -2.9572
     2.9176   3.0071   3.0075   3.0329   3.1876   3.1879   3.2296   3.2297
     3.4652   3.4655   3.4971   3.5513   3.5521   3.5556   3.5562   3.6152
     3.7070   3.7079   3.7305   3.7311   3.7722   3.8897   3.9034   3.9038
     3.9318   4.2397   4.2406   4.6838   4.7793   4.7795   4.8929   4.8933
     4.9956   4.9961   5.0393   5.0509   5.0513   5.1495   5.1504   5.1772
     5.1777   5.1921   5.2697   5.3511   5.3513   5.3653   5.3662   5.3917
     5.5087   5.6337   5.6347   5.6813   5.6816   5.7586   5.7592   5.7697
     5.7702   5.8102   5.9043   5.9050   5.9475   5.9480   6.1477   6.1642
     6.1787   6.1791   6.2352   6.3370   6.3381   6.4214   6.4219   6.4797
     6.5163   6.5172   6.5179   6.5202   6.5210   6.5541   6.7077   6.7084
     6.7142   6.8683   6.8691   6.8831   6.8839   6.8877   6.8879   6.9178
     6.9181   7.0406   7.0434   7.0513   7.0515   7.1049   7.1057   7.1514
     7.1905   7.2047   7.2056   7.2168   7.2173   7.3506   7.3506   7.3556
     7.3562   7.3609   7.3617   7.3733   7.4130   7.4604   7.4611   7.5701
     7.5777   7.5782   7.6043   7.6046   7.6118   7.6542   7.7038   7.7047
     7.7178   7.7182   7.8212   7.8217   7.8268   7.8273   7.8298   7.8715
     7.8720   7.8809   7.8819   7.8992   7.8993   7.9237   7.9430   7.9449
     7.9452   7.9559   7.9582   7.9587   8.0019   8.0367   8.0367   8.0923
    10.8423  11.1958  11.1964  11.9969  11.9977  12.8894  12.8906  12.9163
    13.0069  13.0078  13.2720  13.2753  13.5471  13.5631  13.5645  13.6408
    13.6424  13.6765  13.6773  13.8503

          k = 0.0283-0.0186-0.0128 ( 63469 PWs)   bands (ev):

    -9.1646  -8.9777  -8.8417  -8.8408  -8.8407  -8.8059  -8.8043  -8.8042
    -8.6421  -8.6416  -8.6413  -8.6113  -8.6097  -8.6094  -8.4845  -8.4499
    -8.4495  -8.4449  -8.4356  -8.4305  -8.4110  -8.4108  -8.4044  -8.4014
    -8.3888  -8.3850  -8.3663  -8.3661  -8.3583  -8.3510  -8.3509  -8.3243
    -8.3230  -8.3227  -8.3225  -8.3211  -8.3209  -8.3092  -8.3035  -8.2666
    -8.2636  -8.2518  -8.2515  -8.2475  -8.1902  -8.1867  -8.1854  -8.1850
    -4.2996  -4.2897  -4.2855  -4.2808  -4.2805  -4.2795  -4.2783  -4.2782
    -4.2641  -4.2549  -4.2548  -4.2490  -4.2485  -4.2483  -4.2267  -4.2239
    -4.2229  -4.2223  -4.2156  -4.2153  -4.2103  -4.2070  -4.2006  -4.1980
    -4.1977  -4.1944  -4.1942  -4.1864  -4.1803  -4.1781  -4.1659  -4.1615
    -4.1612  -4.1610  -4.1608  -4.1545  -4.1540  -4.1537  -4.1497  -4.1494
    -4.1464  -4.1436  -4.1434  -4.1414  -4.1368  -4.1218  -4.1217  -4.1182
    -4.1171  -4.1167  -4.1037  -4.1013  -4.1011  -4.0986  -4.0924  -4.0921
    -4.0856  -4.0833  -4.0831  -4.0731  -4.0687  -4.0661  -4.0568  -4.0561
    -4.0465  -4.0430  -4.0369  -4.0315  -4.0272  -4.0271  -4.0269  -4.0221
    -4.0217  -4.0189  -4.0174  -4.0056  -4.0053  -3.9881  -3.9878  -3.9873
    -3.9871  -3.9823  -3.9714  -3.9706  -3.9689  -3.9685  -3.9597  -3.9593
    -3.9538  -3.9529  -3.9441  -3.9435  -3.9376  -3.9313  -3.9267  -3.9241
    -3.9098  -3.9027  -3.9012  -3.9007  -3.9002  -3.8947  -3.8943  -3.8939
    -3.8890  -3.8821  -3.8736  -3.8705  -3.8686  -3.8671  -3.8595  -3.8592
    -3.8584  -3.8582  -3.8446  -3.8443  -3.8402  -3.8396  -3.8309  -3.8223
    -3.8221  -3.8062  -3.8060  -3.7961  -3.7925  -3.7921  -3.7722  -3.7504
    -3.7277  -3.6954  -3.6895  -3.6893  -3.6645  -3.6257  -3.6245  -3.6241
    -3.5957  -3.5857  -3.5693  -3.5691  -3.5598  -3.5423  -3.5075  -3.5070
    -3.3651  -3.3648  -3.3267  -3.3264  -3.2647  -3.2191  -3.1997  -3.1211
    -3.1210  -3.1148  -3.0752  -3.0629  -2.9961  -2.9313  -2.9309  -2.9048
     2.7473   2.9957   3.0023   3.2062   3.2121   3.2159   3.3065   3.3068
     3.3102   3.3109   3.3864   3.3866   3.4964   3.5264   3.5762   3.5771
     3.6357   3.6362   3.8008   3.9355   3.9604   3.9608   3.9644   4.1342
     4.2514   4.2519   4.5252   4.5256   4.6143   4.6241   4.6332   4.6924
     4.7766   4.9848   4.9850   5.0990   5.1104   5.1269   5.1834   5.2841
     5.3117   5.3120   5.3223   5.3225   5.3658   5.3662   5.3951   5.4350
     5.5110   5.6207   5.6209   5.6564   5.6833   5.6895   5.8134   5.8138
     5.8438   5.8467   5.9723   5.9729   5.9731   6.0261   6.0267   6.1316
     6.1324   6.1639   6.1741   6.2039   6.2255   6.2522   6.2528   6.2654
     6.4164   6.4171   6.4841   6.5317   6.5399   6.5875   6.6418   6.6891
     6.6894   6.7818   6.7822   6.9017   6.9294   6.9373   6.9648   6.9651
     7.0098   7.0494   7.0503   7.1189   7.1195   7.1817   7.2071   7.2077
     7.2295   7.2302   7.2562   7.2590   7.2678   7.3030   7.3056   7.4354
     7.4397   7.4399   7.4737   7.4956   7.5359   7.5598   7.5601   7.5820
     7.5828   7.5836   7.6181   7.6287   7.6303   7.6575   7.6635   7.6636
     7.6740   7.7223   7.7226   7.7229   7.7883   7.7885   7.8027   7.8030
     7.8606   7.8856   7.9123   7.9126   7.9167   7.9178   7.9197   7.9200
     7.9322   7.9626   7.9627   7.9670   8.0124   8.0128   8.0407   8.0897
     9.9490  11.3468  12.1355  12.3783  12.3795  12.4936  12.5361  12.5376
    12.7631  13.2127  13.2140  13.4325  13.4341  13.5789  13.5999  13.6681
    13.6695  13.6715  13.7265  13.7421

          k = 0.0283-0.0186 0.0234 ( 63470 PWs)   bands (ev):

    -9.1467  -8.9555  -8.8746  -8.8732  -8.8626  -8.8622  -8.7790  -8.7786
    -8.6514  -8.6511  -8.5898  -8.5896  -8.5720  -8.5705  -8.5501  -8.4619
    -8.4556  -8.4549  -8.4377  -8.4366  -8.4249  -8.4229  -8.4215  -8.4059
    -8.3908  -8.3902  -8.3584  -8.3530  -8.3450  -8.3365  -8.3364  -8.3263
    -8.3223  -8.3137  -8.3050  -8.2994  -8.2991  -8.2844  -8.2839  -8.2828
    -8.2716  -8.2711  -8.2621  -8.2357  -8.2136  -8.1987  -8.1982  -8.1920
    -4.3090  -4.2933  -4.2832  -4.2783  -4.2746  -4.2744  -4.2735  -4.2735
    -4.2709  -4.2512  -4.2509  -4.2485  -4.2483  -4.2375  -4.2350  -4.2305
    -4.2254  -4.2157  -4.2128  -4.2109  -4.2108  -4.2061  -4.2019  -4.2017
    -4.1992  -4.1863  -4.1821  -4.1817  -4.1815  -4.1778  -4.1756  -4.1708
    -4.1688  -4.1685  -4.1661  -4.1576  -4.1575  -4.1479  -4.1475  -4.1471
    -4.1463  -4.1461  -4.1432  -4.1428  -4.1313  -4.1272  -4.1187  -4.1186
    -4.1145  -4.1060  -4.1057  -4.1009  -4.0992  -4.0989  -4.0969  -4.0964
    -4.0817  -4.0810  -4.0808  -4.0805  -4.0800  -4.0763  -4.0622  -4.0514
    -4.0479  -4.0348  -4.0339  -4.0325  -4.0324  -4.0304  -4.0190  -4.0144
    -4.0051  -4.0044  -4.0042  -4.0010  -4.0008  -3.9918  -3.9914  -3.9793
    -3.9787  -3.9782  -3.9775  -3.9740  -3.9738  -3.9718  -3.9597  -3.9595
    -3.9591  -3.9582  -3.9579  -3.9416  -3.9411  -3.9363  -3.9304  -3.9276
    -3.9194  -3.9080  -3.9030  -3.9025  -3.9022  -3.9008  -3.9004  -3.8902
    -3.8873  -3.8767  -3.8688  -3.8678  -3.8600  -3.8590  -3.8555  -3.8552
    -3.8524  -3.8521  -3.8485  -3.8472  -3.8469  -3.8455  -3.8452  -3.8129
    -3.8048  -3.8047  -3.7885  -3.7856  -3.7848  -3.7657  -3.7655  -3.7554
    -3.7460  -3.7458  -3.7175  -3.7173  -3.6906  -3.6739  -3.6704  -3.6510
    -3.6400  -3.6397  -3.5535  -3.5204  -3.5197  -3.5050  -3.4057  -3.4054
    -3.3807  -3.3096  -3.3071  -3.3068  -3.2570  -3.2262  -3.2257  -3.2007
    -3.2005  -3.1444  -3.0436  -3.0243  -2.9665  -2.9661  -2.9455  -2.8878
     2.7536   3.0209   3.0731   3.1363   3.1365   3.1635   3.3373   3.3794
     3.3811   3.3816   3.3966   3.3968   3.4052   3.4209   3.5325   3.6175
     3.6189   3.7425   3.7430   3.8943   4.0178   4.0450   4.0591   4.0595
     4.2129   4.2136   4.3991   4.4001   4.5603   4.6212   4.7936   4.8361
     4.9091   4.9393   5.0454   5.0738   5.0741   5.1782   5.1787   5.2222
     5.2245   5.2253   5.2797   5.2803   5.2921   5.3807   5.3816   5.3989
     5.4620   5.5399   5.6534   5.6540   5.7257   5.7405   5.7407   5.7856
     5.7918   5.7924   5.8818   5.9643   6.0603   6.0962   6.0972   6.1513
     6.1652   6.1800   6.2483   6.2527   6.2530   6.4278   6.4283   6.4337
     6.4537   6.4935   6.4943   6.4967   6.5163   6.7035   6.7196   6.7410
     6.7418   6.7920   6.7924   6.8535   6.9537   6.9546   6.9728   6.9778
     6.9813   7.0196   7.0200   7.0475   7.0482   7.0542   7.0801   7.0898
     7.1096   7.2363   7.2368   7.2374   7.2382   7.3048   7.3059   7.3066
     7.3879   7.4023   7.4350   7.4583   7.4591   7.4953   7.5206   7.5210
     7.5569   7.5982   7.6031   7.6264   7.6643   7.6652   7.6823   7.7097
     7.7119   7.7636   7.7661   7.7668   7.8040   7.8065   7.8102   7.8282
     7.8288   7.8990   7.8993   7.9072   7.9134   7.9342   7.9613   7.9614
     7.9744   7.9785   7.9788   7.9970   8.0090   8.0146   8.0574   8.0576
    10.1461  11.7339  11.7908  11.9675  12.0656  12.0663  13.0134  13.0588
    13.0605  13.3161  13.3173  13.3598  13.3605  13.5157  13.5173  13.5824
    13.6416  13.6834  13.6838  13.8720

          k = 0.0283-0.0186-0.0491 ( 63467 PWs)   bands (ev):

    -9.0585  -9.0117  -9.0115  -8.8843  -8.8839  -8.7259  -8.7160  -8.7156
    -8.7148  -8.7145  -8.7017  -8.5715  -8.5711  -8.4936  -8.4933  -8.4564
    -8.4475  -8.4260  -8.4205  -8.4202  -8.4186  -8.4184  -8.4129  -8.4126
    -8.3956  -8.3955  -8.3860  -8.3856  -8.3745  -8.3686  -8.3684  -8.3622
    -8.3106  -8.3100  -8.3042  -8.3040  -8.2991  -8.2606  -8.2595  -8.2588
    -8.2529  -8.2526  -8.2281  -8.2278  -8.2273  -8.2267  -8.2198  -8.2197
    -4.2917  -4.2915  -4.2819  -4.2813  -4.2767  -4.2746  -4.2688  -4.2688
    -4.2672  -4.2558  -4.2527  -4.2526  -4.2412  -4.2412  -4.2310  -4.2307
    -4.2251  -4.2247  -4.2211  -4.2203  -4.2202  -4.2135  -4.2065  -4.2062
    -4.1920  -4.1916  -4.1915  -4.1826  -4.1823  -4.1733  -4.1727  -4.1722
    -4.1630  -4.1627  -4.1605  -4.1570  -4.1569  -4.1564  -4.1532  -4.1531
    -4.1513  -4.1511  -4.1323  -4.1322  -4.1306  -4.1299  -4.1163  -4.1160
    -4.1113  -4.1110  -4.0957  -4.0955  -4.0940  -4.0932  -4.0928  -4.0910
    -4.0907  -4.0837  -4.0667  -4.0664  -4.0609  -4.0606  -4.0586  -4.0514
    -4.0442  -4.0280  -4.0277  -4.0272  -4.0267  -4.0196  -4.0192  -4.0114
    -4.0089  -4.0056  -4.0053  -4.0036  -4.0033  -4.0025  -3.9998  -3.9994
    -3.9851  -3.9843  -3.9841  -3.9809  -3.9743  -3.9741  -3.9646  -3.9644
    -3.9629  -3.9534  -3.9533  -3.9519  -3.9400  -3.9399  -3.9389  -3.9384
    -3.9253  -3.9249  -3.9210  -3.9208  -3.9188  -3.8877  -3.8874  -3.8828
    -3.8810  -3.8808  -3.8710  -3.8704  -3.8563  -3.8559  -3.8525  -3.8525
    -3.8474  -3.8471  -3.8383  -3.8351  -3.8339  -3.8338  -3.8305  -3.8301
    -3.7854  -3.7819  -3.7813  -3.7774  -3.7770  -3.7757  -3.7587  -3.7584
    -3.7426  -3.7423  -3.7165  -3.7160  -3.6880  -3.6798  -3.6795  -3.6600
    -3.6226  -3.6221  -3.6044  -3.6037  -3.5803  -3.4900  -3.4522  -3.4518
    -3.3607  -3.3603  -3.2765  -3.2506  -3.2500  -3.1816  -3.1814  -3.1484
    -3.1221  -3.0998  -3.0654  -3.0652  -2.9735  -2.9733  -2.9577  -2.9572
     2.9178   3.0075   3.0077   3.0328   3.1870   3.1880   3.2290   3.2295
     3.4651   3.4655   3.4971   3.5518   3.5522   3.5558   3.5562   3.6153
     3.7074   3.7080   3.7309   3.7310   3.7719   3.8892   3.9031   3.9037
     3.9322   4.2400   4.2406   4.6840   4.7789   4.7793   4.8918   4.8930
     4.9959   4.9963   5.0392   5.0507   5.0512   5.1498   5.1503   5.1773
     5.1777   5.1923   5.2696   5.3511   5.3513   5.3656   5.3664   5.3916
     5.5086   5.6338   5.6343   5.6814   5.6820   5.7589   5.7595   5.7690
     5.7698   5.8104   5.9044   5.9052   5.9471   5.9481   6.1482   6.1645
     6.1789   6.1792   6.2354   6.3374   6.3381   6.4209   6.4216   6.4794
     6.5156   6.5172   6.5175   6.5204   6.5208   6.5543   6.7083   6.7087
     6.7141   6.8687   6.8690   6.8834   6.8839   6.8877   6.8883   6.9179
     6.9183   7.0410   7.0437   7.0511   7.0515   7.1051   7.1058   7.1512
     7.1902   7.2049   7.2056   7.2170   7.2175   7.3501   7.3509   7.3553
     7.3561   7.3612   7.3616   7.3730   7.4126   7.4602   7.4610   7.5701
     7.5778   7.5784   7.6039   7.6044   7.6117   7.6543   7.7040   7.7046
     7.7177   7.7179   7.8212   7.8215   7.8272   7.8276   7.8296   7.8718
     7.8721   7.8812   7.8814   7.8990   7.8994   7.9234   7.9430   7.9449
     7.9450   7.9557   7.9582   7.9587   8.0021   8.0366   8.0369   8.0923
    10.8422  11.1960  11.1961  11.9967  11.9985  12.8893  12.8905  12.9161
    13.0069  13.0083  13.2723  13.2750  13.5474  13.5625  13.5645  13.6404
    13.6419  13.6766  13.6773  13.8510

          k = 0.0283 0.0153-0.0257 ( 63470 PWs)   bands (ev):

    -9.1466  -8.9555  -8.8746  -8.8732  -8.8626  -8.8622  -8.7790  -8.7786
    -8.6516  -8.6508  -8.5903  -8.5892  -8.5720  -8.5705  -8.5500  -8.4617
    -8.4555  -8.4545  -8.4376  -8.4372  -8.4251  -8.4232  -8.4220  -8.4061
    -8.3907  -8.3900  -8.3583  -8.3530  -8.3449  -8.3374  -8.3353  -8.3262
    -8.3221  -8.3135  -8.3049  -8.2995  -8.2987  -8.2846  -8.2842  -8.2827
    -8.2716  -8.2711  -8.2621  -8.2358  -8.2137  -8.1988  -8.1985  -8.1920
    -4.3090  -4.2932  -4.2833  -4.2783  -4.2751  -4.2741  -4.2736  -4.2733
    -4.2710  -4.2510  -4.2509  -4.2486  -4.2483  -4.2374  -4.2349  -4.2304
    -4.2254  -4.2159  -4.2128  -4.2110  -4.2108  -4.2062  -4.2021  -4.2016
    -4.1992  -4.1863  -4.1822  -4.1818  -4.1811  -4.1778  -4.1756  -4.1707
    -4.1687  -4.1686  -4.1662  -4.1580  -4.1572  -4.1479  -4.1474  -4.1473
    -4.1464  -4.1458  -4.1430  -4.1427  -4.1313  -4.1273  -4.1187  -4.1185
    -4.1146  -4.1060  -4.1057  -4.1008  -4.0993  -4.0988  -4.0969  -4.0964
    -4.0817  -4.0809  -4.0807  -4.0806  -4.0802  -4.0763  -4.0622  -4.0513
    -4.0479  -4.0346  -4.0340  -4.0329  -4.0321  -4.0303  -4.0190  -4.0142
    -4.0051  -4.0048  -4.0038  -4.0012  -4.0007  -3.9919  -3.9913  -3.9791
    -3.9789  -3.9783  -3.9773  -3.9744  -3.9735  -3.9719  -3.9599  -3.9596
    -3.9590  -3.9583  -3.9577  -3.9416  -3.9411  -3.9362  -3.9303  -3.9277
    -3.9194  -3.9080  -3.9032  -3.9026  -3.9020  -3.9009  -3.9003  -3.8903
    -3.8873  -3.8767  -3.8691  -3.8676  -3.8597  -3.8592  -3.8557  -3.8548
    -3.8527  -3.8518  -3.8485  -3.8472  -3.8469  -3.8456  -3.8452  -3.8129
    -3.8051  -3.8045  -3.7884  -3.7856  -3.7848  -3.7662  -3.7652  -3.7555
    -3.7459  -3.7457  -3.7176  -3.7173  -3.6903  -3.6737  -3.6706  -3.6511
    -3.6405  -3.6396  -3.5536  -3.5205  -3.5199  -3.5051  -3.4057  -3.4051
    -3.3809  -3.3095  -3.3075  -3.3060  -3.2569  -3.2261  -3.2258  -3.2009
    -3.2005  -3.1443  -3.0434  -3.0241  -2.9665  -2.9662  -2.9459  -2.8880
     2.7535   3.0207   3.0732   3.1360   3.1365   3.1637   3.3373   3.3791
     3.3811   3.3815   3.3961   3.3970   3.4053   3.4216   3.5326   3.6186
     3.6192   3.7421   3.7431   3.8939   4.0174   4.0448   4.0583   4.0597
     4.2124   4.2136   4.3993   4.4000   4.5605   4.6216   4.7940   4.8363
     4.9088   4.9399   5.0454   5.0739   5.0744   5.1781   5.1793   5.2223
     5.2243   5.2249   5.2800   5.2806   5.2915   5.3809   5.3816   5.3990
     5.4618   5.5395   5.6534   5.6550   5.7259   5.7401   5.7406   5.7857
     5.7923   5.7930   5.8816   5.9641   6.0602   6.0954   6.0963   6.1513
     6.1649   6.1803   6.2479   6.2524   6.2531   6.4277   6.4283   6.4337
     6.4542   6.4935   6.4938   6.4964   6.5156   6.7030   6.7201   6.7406
     6.7417   6.7917   6.7927   6.8534   6.9543   6.9547   6.9727   6.9780
     6.9812   7.0196   7.0199   7.0478   7.0482   7.0543   7.0804   7.0900
     7.1100   7.2364   7.2376   7.2381   7.2383   7.3048   7.3056   7.3068
     7.3878   7.4028   7.4352   7.4581   7.4589   7.4961   7.5203   7.5211
     7.5561   7.5985   7.6031   7.6260   7.6644   7.6648   7.6818   7.7094
     7.7122   7.7638   7.7662   7.7665   7.8041   7.8062   7.8104   7.8280
     7.8286   7.8992   7.8993   7.9071   7.9137   7.9343   7.9611   7.9617
     7.9742   7.9784   7.9786   7.9969   8.0089   8.0146   8.0569   8.0582
    10.1461  11.7343  11.7906  11.9672  12.0657  12.0661  13.0137  13.0592
    13.0597  13.3157  13.3169  13.3595  13.3605  13.5159  13.5182  13.5825
    13.6419  13.6829  13.6845  13.8722

          k = 0.0283 0.0153 0.0106 ( 63420 PWs)   bands (ev):

    -9.1688  -8.9873  -8.8358  -8.8354  -8.8352  -8.7948  -8.7945  -8.7942
    -8.6539  -8.6534  -8.6530  -8.6148  -8.6143  -8.6138  -8.4670  -8.4664
    -8.4656  -8.4528  -8.4378  -8.4372  -8.4365  -8.4322  -8.4318  -8.3976
    -8.3974  -8.3307  -8.3305  -8.3302  -8.3260  -8.3258  -8.3254  -8.3239
    -8.3236  -8.3235  -8.3204  -8.3200  -8.3197  -8.2999  -8.2998  -8.2657
    -8.2653  -8.2650  -8.2628  -8.2627  -8.2408  -8.1891  -8.1888  -8.1886
    -4.3043  -4.3042  -4.2806  -4.2802  -4.2798  -4.2767  -4.2764  -4.2760
    -4.2690  -4.2689  -4.2498  -4.2497  -4.2495  -4.2321  -4.2320  -4.2318
    -4.2283  -4.2281  -4.2279  -4.2163  -4.2100  -4.2098  -4.2096  -4.2049
    -4.1983  -4.1776  -4.1774  -4.1772  -4.1757  -4.1753  -4.1748  -4.1687
    -4.1686  -4.1659  -4.1656  -4.1517  -4.1513  -4.1509  -4.1302  -4.1300
    -4.1297  -4.1289  -4.1217  -4.1214  -4.1211  -4.1150  -4.1147  -4.1145
    -4.1131  -4.1128  -4.1127  -4.1000  -4.0999  -4.0998  -4.0884  -4.0883
    -4.0879  -4.0879  -4.0877  -4.0876  -4.0872  -4.0870  -4.0697  -4.0694
    -4.0483  -4.0480  -4.0477  -4.0457  -4.0453  -4.0234  -4.0231  -4.0165
    -4.0161  -4.0156  -3.9853  -3.9850  -3.9848  -3.9786  -3.9782  -3.9780
    -3.9716  -3.9713  -3.9709  -3.9674  -3.9672  -3.9672  -3.9620  -3.9617
    -3.9518  -3.9514  -3.9510  -3.9386  -3.9381  -3.9376  -3.9350  -3.9347
    -3.9344  -3.9263  -3.9258  -3.9005  -3.9002  -3.8999  -3.8729  -3.8726
    -3.8709  -3.8706  -3.8642  -3.8641  -3.8638  -3.8607  -3.8604  -3.8600
    -3.8549  -3.8547  -3.8545  -3.8522  -3.8414  -3.8412  -3.8409  -3.8224
    -3.8206  -3.8102  -3.8097  -3.8093  -3.8006  -3.8003  -3.8000  -3.7746
    -3.7361  -3.7355  -3.7352  -3.7022  -3.7019  -3.7016  -3.6383  -3.6381
    -3.6378  -3.5757  -3.5752  -3.4954  -3.4947  -3.4779  -3.4775  -3.4771
    -3.3159  -3.3156  -3.3153  -3.2975  -3.2973  -3.2971  -3.1738  -3.1733
    -3.1058  -3.1053  -3.1049  -3.0227  -3.0222  -2.9197  -2.9192  -2.9190
     2.7076   2.9290   3.0636   3.0639   3.0642   3.1334   3.1338   3.1340
     3.1991   3.5455   3.5461   3.5466   3.7224   3.7236   3.7239   3.7490
     3.7809   3.7841   3.7849   3.7854   4.0301   4.0309   4.0315   4.1878
     4.1881   4.1888   4.3937   4.3941   4.3949   4.4691   4.4693   4.4698
     4.7605   4.7608   4.9924   4.9928   4.9933   5.2060   5.2066   5.2072
     5.3957   5.3961   5.3962   5.4845   5.4850   5.4856   5.5208   5.5535
     5.5540   5.5543   5.6271   5.6272   5.6277   5.6745   5.7299   5.7305
     5.8361   5.8365   5.8731   6.0527   6.1039   6.1045   6.1048   6.1991
     6.1995   6.2001   6.2585   6.2592   6.2600   6.2921   6.3482   6.3487
     6.3494   6.3768   6.3771   6.3781   6.6610   6.6616   6.7687   6.7694
     6.7699   6.8729   6.8734   6.8739   6.8996   6.9004   6.9009   6.9149
     6.9154   6.9157   6.9161   6.9443   6.9447   6.9452   7.0231   7.0236
     7.1765   7.1771   7.1772   7.2148   7.2154   7.2159   7.4039   7.4044
     7.4047   7.4830   7.4835   7.4837   7.5351   7.5356   7.5360   7.5715
     7.5717   7.6976   7.6982   7.6987   7.7092   7.7097   7.7633   7.7638
     7.7645   7.7659   7.7661   7.7667   7.8229   7.8234   7.8601   7.8603
     7.8605   7.9160   7.9161   7.9351   7.9357   7.9361   7.9632   7.9637
     7.9644   7.9799   7.9801   7.9911   7.9916   7.9920   7.9971   7.9974
     9.8430  11.0583  12.5567  12.5573  12.5581  12.6952  12.6959  12.6969
    12.9591  13.1308  13.1313  13.1324  13.3429  13.3439  13.3453  13.3870
    13.3879  13.7304  13.7311  13.7323

          k = 0.0283 0.0153-0.0620 ( 63467 PWs)   bands (ev):

    -9.0664  -9.0169  -9.0071  -8.8745  -8.8741  -8.7289  -8.7247  -8.7235
    -8.7052  -8.7044  -8.7008  -8.5828  -8.5818  -8.4928  -8.4896  -8.4553
    -8.4492  -8.4479  -8.4467  -8.4460  -8.4369  -8.4288  -8.4192  -8.3852
    -8.3840  -8.3693  -8.3681  -8.3658  -8.3619  -8.3578  -8.3567  -8.3346
    -8.3344  -8.3100  -8.2984  -8.2899  -8.2891  -8.2726  -8.2716  -8.2566
    -8.2435  -8.2422  -8.2405  -8.2381  -8.2361  -8.2338  -8.2283  -8.2279
    -4.2999  -4.2987  -4.2789  -4.2781  -4.2778  -4.2777  -4.2749  -4.2726
    -4.2574  -4.2518  -4.2440  -4.2403  -4.2402  -4.2393  -4.2389  -4.2315
    -4.2298  -4.2245  -4.2237  -4.2201  -4.2198  -4.2195  -4.2161  -4.2098
    -4.1904  -4.1903  -4.1895  -4.1759  -4.1758  -4.1745  -4.1647  -4.1628
    -4.1609  -4.1605  -4.1574  -4.1570  -4.1567  -4.1508  -4.1500  -4.1495
    -4.1450  -4.1401  -4.1320  -4.1319  -4.1287  -4.1191  -4.1188  -4.1166
    -4.1162  -4.1070  -4.1063  -4.1051  -4.1045  -4.0968  -4.0922  -4.0916
    -4.0822  -4.0814  -4.0813  -4.0812  -4.0770  -4.0708  -4.0651  -4.0587
    -4.0562  -4.0558  -4.0439  -4.0276  -4.0272  -4.0204  -4.0161  -4.0115
    -4.0052  -3.9976  -3.9970  -3.9950  -3.9947  -3.9888  -3.9881  -3.9831
    -3.9828  -3.9725  -3.9719  -3.9712  -3.9694  -3.9644  -3.9575  -3.9564
    -3.9533  -3.9502  -3.9494  -3.9489  -3.9454  -3.9396  -3.9393  -3.9357
    -3.9299  -3.9192  -3.9076  -3.9070  -3.8952  -3.8827  -3.8825  -3.8807
    -3.8794  -3.8787  -3.8737  -3.8675  -3.8669  -3.8651  -3.8622  -3.8619
    -3.8595  -3.8505  -3.8467  -3.8464  -3.8406  -3.8392  -3.8385  -3.8150
    -3.8148  -3.8118  -3.8075  -3.7771  -3.7762  -3.7739  -3.7717  -3.7713
    -3.7609  -3.7588  -3.7129  -3.7120  -3.7045  -3.6798  -3.6760  -3.6643
    -3.6635  -3.6270  -3.6266  -3.5200  -3.4946  -3.4942  -3.4395  -3.3725
    -3.3724  -3.3710  -3.3584  -3.3012  -3.2740  -3.1725  -3.1712  -3.1320
    -3.0734  -3.0721  -3.0377  -3.0373  -3.0170  -3.0111  -2.9626  -2.9561
     2.8931   2.8976   2.9271   3.1503   3.1508   3.2126   3.2881   3.2924
     3.3242   3.3246   3.4402   3.4411   3.4782   3.6964   3.7600   3.7609
     3.7827   3.7841   3.8058   3.8063   3.8122   3.8126   3.9039   3.9671
     4.1200   4.1213   4.2790   4.5377   4.5384   4.6903   4.7082   4.7540
     4.8377   4.8956   5.0250   5.0263   5.1397   5.1404   5.1569   5.1794
     5.2343   5.3412   5.3560   5.3566   5.3572   5.3580   5.4518   5.5433
     5.5722   5.5967   5.6041   5.6047   5.6429   5.6435   5.6736   5.6894
     5.8753   6.0051   6.1154   6.1176   6.1256   6.1263   6.1393   6.1409
     6.2709   6.3100   6.3106   6.3109   6.3116   6.3335   6.3509   6.3605
     6.4013   6.4888   6.5113   6.5117   6.5426   6.6180   6.6629   6.6646
     6.6660   6.6931   6.7215   6.7221   6.8102   6.8390   6.8883   6.8895
     6.9153   6.9158   6.9184   6.9878   6.9888   7.0094   7.0713   7.1409
     7.1757   7.1760   7.2615   7.2629   7.2657   7.3309   7.3483   7.3564
     7.4120   7.4154   7.4165   7.5417   7.5451   7.5458   7.5787   7.5828
     7.6133   7.6201   7.6714   7.6727   7.6788   7.6992   7.7022   7.7264
     7.7276   7.7908   7.7916   7.7944   7.8204   7.8261   7.8426   7.8501
     7.8505   7.8515   7.8521   7.9155   7.9346   7.9376   7.9389   7.9408
     7.9432   7.9444   7.9494   7.9532   7.9549   7.9551   7.9968   8.0490
    10.7287  11.0813  11.2606  12.1411  12.1415  12.8159  12.9613  12.9617
    13.2340  13.2703  13.2717  13.3684  13.3692  13.4085  13.4474  13.4479
    13.5105  13.7207  13.7231  13.7922

          k = 0.0283-0.0525-0.0000 ( 63467 PWs)   bands (ev):

    -9.0585  -9.0121  -9.0110  -8.8843  -8.8840  -8.7260  -8.7161  -8.7158
    -8.7147  -8.7142  -8.7016  -8.5716  -8.5711  -8.4938  -8.4928  -8.4568
    -8.4477  -8.4261  -8.4205  -8.4203  -8.4185  -8.4179  -8.4129  -8.4128
    -8.3959  -8.3953  -8.3859  -8.3856  -8.3743  -8.3690  -8.3681  -8.3621
    -8.3102  -8.3101  -8.3048  -8.3038  -8.2988  -8.2605  -8.2600  -8.2589
    -8.2531  -8.2528  -8.2280  -8.2277  -8.2274  -8.2264  -8.2205  -8.2189
    -4.2920  -4.2910  -4.2817  -4.2817  -4.2768  -4.2746  -4.2688  -4.2686
    -4.2674  -4.2558  -4.2528  -4.2525  -4.2414  -4.2409  -4.2309  -4.2308
    -4.2249  -4.2248  -4.2212  -4.2204  -4.2201  -4.2134  -4.2065  -4.2062
    -4.1920  -4.1917  -4.1912  -4.1826  -4.1823  -4.1734  -4.1727  -4.1724
    -4.1629  -4.1627  -4.1604  -4.1571  -4.1568  -4.1566  -4.1532  -4.1530
    -4.1512  -4.1511  -4.1323  -4.1322  -4.1306  -4.1299  -4.1163  -4.1160
    -4.1113  -4.1109  -4.0958  -4.0956  -4.0941  -4.0932  -4.0927  -4.0911
    -4.0906  -4.0836  -4.0665  -4.0664  -4.0613  -4.0603  -4.0585  -4.0514
    -4.0443  -4.0281  -4.0274  -4.0272  -4.0267  -4.0197  -4.0192  -4.0115
    -4.0090  -4.0055  -4.0053  -4.0036  -4.0033  -4.0025  -3.9998  -3.9994
    -3.9851  -3.9845  -3.9838  -3.9810  -3.9743  -3.9741  -3.9646  -3.9645
    -3.9629  -3.9537  -3.9531  -3.9518  -3.9401  -3.9400  -3.9387  -3.9385
    -3.9251  -3.9250  -3.9213  -3.9207  -3.9188  -3.8877  -3.8875  -3.8827
    -3.8810  -3.8808  -3.8708  -3.8705  -3.8565  -3.8557  -3.8528  -3.8522
    -3.8474  -3.8470  -3.8383  -3.8350  -3.8340  -3.8338  -3.8304  -3.8302
    -3.7854  -3.7818  -3.7816  -3.7774  -3.7770  -3.7759  -3.7586  -3.7583
    -3.7426  -3.7421  -3.7165  -3.7162  -3.6882  -3.6797  -3.6792  -3.6602
    -3.6227  -3.6221  -3.6041  -3.6039  -3.5801  -3.4894  -3.4525  -3.4519
    -3.3613  -3.3598  -3.2765  -3.2502  -3.2502  -3.1818  -3.1813  -3.1484
    -3.1221  -3.0996  -3.0656  -3.0652  -2.9741  -2.9731  -2.9574  -2.9571
     2.9175   3.0071   3.0078   3.0331   3.1874   3.1883   3.2292   3.2296
     3.4650   3.4655   3.4969   3.5513   3.5522   3.5555   3.5563   3.6154
     3.7069   3.7080   3.7304   3.7311   3.7725   3.8897   3.9028   3.9036
     3.9324   4.2395   4.2407   4.6838   4.7788   4.7797   4.8930   4.8933
     4.9955   4.9959   5.0390   5.0509   5.0515   5.1496   5.1502   5.1773
     5.1780   5.1921   5.2697   5.3512   5.3516   5.3655   5.3660   5.3916
     5.5084   5.6339   5.6344   5.6808   5.6817   5.7590   5.7594   5.7698
     5.7702   5.8105   5.9046   5.9050   5.9472   5.9478   6.1479   6.1642
     6.1783   6.1793   6.2348   6.3373   6.3379   6.4218   6.4222   6.4800
     6.5161   6.5173   6.5177   6.5204   6.5209   6.5539   6.7076   6.7086
     6.7143   6.8680   6.8694   6.8828   6.8838   6.8876   6.8881   6.9180
     6.9184   7.0400   7.0432   7.0510   7.0517   7.1052   7.1057   7.1511
     7.1906   7.2052   7.2058   7.2164   7.2173   7.3503   7.3512   7.3558
     7.3560   7.3613   7.3617   7.3736   7.4127   7.4605   7.4616   7.5700
     7.5775   7.5784   7.6044   7.6048   7.6118   7.6542   7.7043   7.7044
     7.7172   7.7186   7.8209   7.8220   7.8271   7.8273   7.8297   7.8716
     7.8717   7.8807   7.8818   7.8990   7.8992   7.9234   7.9428   7.9448
     7.9451   7.9559   7.9582   7.9586   8.0021   8.0365   8.0369   8.0924
    10.8422  11.1954  11.1972  11.9971  11.9975  12.8893  12.8904  12.9163
    13.0068  13.0079  13.2718  13.2757  13.5470  13.5631  13.5646  13.6403
    13.6424  13.6758  13.6784  13.8507

          k = 0.0283-0.0525 0.0363 ( 63467 PWs)   bands (ev):

    -9.0664  -9.0169  -9.0071  -8.8745  -8.8741  -8.7288  -8.7244  -8.7241
    -8.7050  -8.7047  -8.7007  -8.5823  -8.5822  -8.4929  -8.4898  -8.4551
    -8.4488  -8.4487  -8.4466  -8.4458  -8.4366  -8.4287  -8.4193  -8.3849
    -8.3846  -8.3695  -8.3679  -8.3658  -8.3619  -8.3574  -8.3572  -8.3346
    -8.3342  -8.3100  -8.2987  -8.2899  -8.2894  -8.2720  -8.2717  -8.2565
    -8.2429  -8.2425  -8.2408  -8.2377  -8.2365  -8.2338  -8.2283  -8.2280
    -4.3000  -4.2986  -4.2785  -4.2782  -4.2780  -4.2778  -4.2749  -4.2727
    -4.2574  -4.2519  -4.2440  -4.2403  -4.2402  -4.2392  -4.2390  -4.2315
    -4.2298  -4.2242  -4.2241  -4.2199  -4.2198  -4.2194  -4.2160  -4.2098
    -4.1905  -4.1903  -4.1893  -4.1759  -4.1757  -4.1746  -4.1648  -4.1627
    -4.1607  -4.1606  -4.1573  -4.1570  -4.1568  -4.1505  -4.1503  -4.1495
    -4.1450  -4.1401  -4.1320  -4.1318  -4.1287  -4.1191  -4.1189  -4.1165
    -4.1161  -4.1068  -4.1066  -4.1051  -4.1045  -4.0969  -4.0921  -4.0917
    -4.0822  -4.0815  -4.0813  -4.0809  -4.0771  -4.0708  -4.0650  -4.0588
    -4.0564  -4.0556  -4.0440  -4.0275  -4.0272  -4.0204  -4.0161  -4.0115
    -4.0052  -3.9974  -3.9972  -3.9949  -3.9948  -3.9886  -3.9883  -3.9832
    -3.9828  -3.9725  -3.9717  -3.9714  -3.9694  -3.9646  -3.9575  -3.9564
    -3.9534  -3.9502  -3.9494  -3.9490  -3.9453  -3.9395  -3.9391  -3.9356
    -3.9299  -3.9191  -3.9075  -3.9070  -3.8952  -3.8829  -3.8822  -3.8807
    -3.8791  -3.8789  -3.8737  -3.8673  -3.8672  -3.8651  -3.8622  -3.8620
    -3.8595  -3.8505  -3.8466  -3.8465  -3.8406  -3.8390  -3.8387  -3.8150
    -3.8148  -3.8119  -3.8076  -3.7767  -3.7766  -3.7739  -3.7718  -3.7715
    -3.7610  -3.7588  -3.7130  -3.7118  -3.7047  -3.6796  -3.6762  -3.6638
    -3.6635  -3.6269  -3.6267  -3.5198  -3.4948  -3.4945  -3.4398  -3.3727
    -3.3724  -3.3709  -3.3585  -3.3012  -3.2737  -3.1719  -3.1717  -3.1319
    -3.0728  -3.0725  -3.0378  -3.0374  -3.0168  -3.0113  -2.9629  -2.9558
     2.8929   2.8979   2.9272   3.1504   3.1508   3.2121   3.2885   3.2923
     3.3240   3.3246   3.4408   3.4411   3.4778   3.6963   3.7606   3.7609
     3.7831   3.7839   3.8055   3.8065   3.8109   3.8123   3.9040   3.9677
     4.1209   4.1214   4.2780   4.5376   4.5385   4.6901   4.7081   4.7546
     4.8378   4.8953   5.0254   5.0259   5.1395   5.1400   5.1576   5.1794
     5.2345   5.3413   5.3561   5.3563   5.3569   5.3578   5.4521   5.5437
     5.5720   5.5966   5.6044   5.6047   5.6425   5.6429   5.6737   5.6892
     5.8744   6.0062   6.1154   6.1176   6.1262   6.1271   6.1394   6.1399
     6.2703   6.3101   6.3105   6.3108   6.3118   6.3337   6.3513   6.3602
     6.4015   6.4885   6.5114   6.5121   6.5427   6.6180   6.6626   6.6649
     6.6654   6.6926   6.7217   6.7223   6.8106   6.8395   6.8886   6.8891
     6.9149   6.9156   6.9187   6.9879   6.9887   7.0092   7.0710   7.1409
     7.1757   7.1761   7.2619   7.2623   7.2654   7.3314   7.3482   7.3562
     7.4129   7.4157   7.4162   7.5416   7.5454   7.5458   7.5786   7.5823
     7.6135   7.6202   7.6718   7.6721   7.6789   7.6988   7.7017   7.7265
     7.7270   7.7911   7.7918   7.7944   7.8202   7.8265   7.8431   7.8497
     7.8502   7.8518   7.8526   7.9156   7.9345   7.9381   7.9383   7.9408
     7.9437   7.9439   7.9493   7.9535   7.9548   7.9553   7.9967   8.0490
    10.7288  11.0811  11.2604  12.1410  12.1417  12.8164  12.9611  12.9620
    13.2334  13.2705  13.2714  13.3684  13.3699  13.4090  13.4470  13.4486
    13.5103  13.7210  13.7217  13.7923

          k = 0.0284-0.0525-0.0363 ( 63467 PWs)   bands (ev):

    -9.0664  -9.0169  -9.0071  -8.8743  -8.8742  -8.7289  -8.7242  -8.7241
    -8.7050  -8.7048  -8.7007  -8.5825  -8.5821  -8.4927  -8.4896  -8.4553
    -8.4486  -8.4485  -8.4465  -8.4462  -8.4368  -8.4288  -8.4192  -8.3847
    -8.3846  -8.3694  -8.3680  -8.3659  -8.3618  -8.3573  -8.3571  -8.3345
    -8.3344  -8.3099  -8.2986  -8.2897  -8.2894  -8.2721  -8.2720  -8.2565
    -8.2428  -8.2427  -8.2406  -8.2377  -8.2364  -8.2338  -8.2283  -8.2279
    -4.3000  -4.2987  -4.2785  -4.2783  -4.2780  -4.2778  -4.2749  -4.2726
    -4.2574  -4.2518  -4.2441  -4.2404  -4.2402  -4.2392  -4.2389  -4.2314
    -4.2297  -4.2243  -4.2241  -4.2200  -4.2198  -4.2193  -4.2161  -4.2098
    -4.1905  -4.1903  -4.1894  -4.1759  -4.1757  -4.1745  -4.1647  -4.1628
    -4.1607  -4.1606  -4.1573  -4.1569  -4.1569  -4.1505  -4.1502  -4.1495
    -4.1450  -4.1401  -4.1321  -4.1318  -4.1288  -4.1191  -4.1188  -4.1165
    -4.1161  -4.1068  -4.1065  -4.1051  -4.1046  -4.0969  -4.0921  -4.0917
    -4.0823  -4.0815  -4.0813  -4.0810  -4.0770  -4.0708  -4.0651  -4.0588
    -4.0561  -4.0558  -4.0439  -4.0274  -4.0273  -4.0205  -4.0161  -4.0115
    -4.0051  -3.9974  -3.9972  -3.9949  -3.9947  -3.9886  -3.9883  -3.9832
    -3.9828  -3.9726  -3.9717  -3.9714  -3.9694  -3.9644  -3.9575  -3.9564
    -3.9533  -3.9502  -3.9494  -3.9489  -3.9454  -3.9396  -3.9393  -3.9356
    -3.9299  -3.9191  -3.9074  -3.9071  -3.8952  -3.8828  -3.8823  -3.8807
    -3.8792  -3.8789  -3.8737  -3.8673  -3.8671  -3.8652  -3.8623  -3.8619
    -3.8594  -3.8505  -3.8466  -3.8465  -3.8406  -3.8390  -3.8388  -3.8151
    -3.8148  -3.8118  -3.8075  -3.7768  -3.7765  -3.7740  -3.7716  -3.7714
    -3.7610  -3.7588  -3.7130  -3.7118  -3.7047  -3.6796  -3.6761  -3.6640
    -3.6637  -3.6270  -3.6266  -3.5199  -3.4946  -3.4943  -3.4397  -3.3727
    -3.3723  -3.3707  -3.3584  -3.3012  -3.2739  -3.1719  -3.1718  -3.1322
    -3.0729  -3.0726  -3.0378  -3.0374  -3.0169  -3.0110  -2.9628  -2.9559
     2.8932   2.8975   2.9269   3.1505   3.1508   3.2125   3.2883   3.2920
     3.3242   3.3246   3.4402   3.4411   3.4780   3.6967   3.7605   3.7610
     3.7829   3.7840   3.8056   3.8061   3.8118   3.8123   3.9041   3.9673
     4.1206   4.1211   4.2788   4.5375   4.5379   4.6903   4.7082   4.7543
     4.8376   4.8956   5.0253   5.0257   5.1397   5.1401   5.1573   5.1792
     5.2344   5.3412   5.3559   5.3563   5.3572   5.3576   5.4516   5.5438
     5.5723   5.5966   5.6045   5.6046   5.6429   5.6432   5.6735   5.6893
     5.8748   6.0058   6.1157   6.1174   6.1258   6.1264   6.1398   6.1407
     6.2706   6.3097   6.3106   6.3109   6.3117   6.3334   6.3508   6.3606
     6.4011   6.4885   6.5116   6.5121   6.5427   6.6182   6.6628   6.6652
     6.6660   6.6933   6.7218   6.7220   6.8104   6.8394   6.8887   6.8890
     6.9153   6.9158   6.9183   6.9876   6.9884   7.0091   7.0709   7.1411
     7.1754   7.1761   7.2619   7.2623   7.2656   7.3315   7.3480   7.3564
     7.4125   7.4157   7.4159   7.5418   7.5453   7.5457   7.5785   7.5828
     7.6134   7.6200   7.6720   7.6723   7.6787   7.6990   7.7018   7.7270
     7.7270   7.7913   7.7916   7.7943   7.8203   7.8264   7.8428   7.8501
     7.8503   7.8516   7.8522   7.9155   7.9346   7.9380   7.9381   7.9409
     7.9437   7.9439   7.9494   7.9533   7.9549   7.9552   7.9967   8.0491
    10.7287  11.0812  11.2604  12.1410  12.1420  12.8160  12.9610  12.9625
    13.2339  13.2703  13.2717  13.3681  13.3694  13.4087  13.4467  13.4486
    13.5103  13.7212  13.7228  13.7924

 ------ SPIN DOWN ----------


          k = 0.0000 0.0000 0.0000 ( 63395 PWs)   bands (ev):

    -9.2335  -8.8487  -8.8483  -8.8481  -8.7284  -8.7281  -8.7275  -8.7274
    -8.7273  -8.7271  -8.7267  -8.7262  -8.6115  -8.6113  -8.6110  -8.4642
    -8.4637  -8.4632  -8.4447  -8.4444  -8.3606  -8.3602  -8.3602  -8.3599
    -8.3597  -8.3595  -8.3495  -8.3493  -8.3492  -8.3491  -8.3319  -8.3317
    -8.3316  -8.3266  -8.3264  -8.3262  -8.3206  -8.3205  -8.3200  -8.3197
    -8.3193  -8.3189  -8.2492  -8.2491  -8.1607  -8.1593  -8.1590  -8.1588
    -4.3160  -4.3159  -4.2844  -4.2842  -4.2839  -4.2674  -4.2670  -4.2669
    -4.2667  -4.2666  -4.2662  -4.2446  -4.2445  -4.2445  -4.2301  -4.2296
    -4.2175  -4.2174  -4.2172  -4.2153  -4.2152  -4.2150  -4.2149  -4.1929
    -4.1865  -4.1864  -4.1863  -4.1819  -4.1818  -4.1776  -4.1774  -4.1773
    -4.1573  -4.1572  -4.1569  -4.1568  -4.1565  -4.1563  -4.1391  -4.1390
    -4.1388  -4.1259  -4.1257  -4.1256  -4.1231  -4.1230  -4.1229  -4.1157
    -4.1154  -4.1153  -4.1152  -4.1147  -4.1146  -4.0953  -4.0950  -4.0949
    -4.0948  -4.0943  -4.0940  -4.0772  -4.0769  -4.0767  -4.0706  -4.0705
    -4.0700  -4.0700  -4.0642  -4.0511  -4.0510  -4.0164  -4.0161  -4.0154
    -4.0149  -4.0148  -4.0148  -4.0143  -4.0140  -3.9758  -3.9757  -3.9662
    -3.9661  -3.9658  -3.9649  -3.9648  -3.9646  -3.9643  -3.9642  -3.9639
    -3.9504  -3.9501  -3.9499  -3.9334  -3.9332  -3.9330  -3.9288  -3.9285
    -3.9283  -3.8887  -3.8886  -3.8882  -3.8881  -3.8760  -3.8759  -3.8740
    -3.8661  -3.8659  -3.8657  -3.8656  -3.8655  -3.8650  -3.8611  -3.8597
    -3.8594  -3.8591  -3.8591  -3.8585  -3.8583  -3.8471  -3.8470  -3.8468
    -3.8317  -3.8315  -3.8313  -3.7935  -3.7933  -3.7929  -3.7837  -3.7830
    -3.7323  -3.7319  -3.7317  -3.6898  -3.6892  -3.6890  -3.6004  -3.6000
    -3.4770  -3.4767  -3.4764  -3.4761  -3.4759  -3.4754  -3.3528  -3.3523
    -3.3518  -3.3516  -3.3174  -3.3172  -3.3170  -3.3051  -3.3050  -3.3044
    -3.3043  -3.3037  -3.3035  -2.9633  -2.9628  -2.8481  -2.8476  -2.8475
     2.6339   3.0032   3.1899   3.1907   3.1910   3.1912   3.1914   3.1917
     3.2104   3.2110   3.2110   3.2880   3.2883   3.7048   3.7061   3.7063
     3.9325   3.9333   3.9336   3.9338   3.9342   3.9346   4.2683   4.2685
     4.4442   4.4445   4.4449   4.4499   4.4511   4.4517   4.5737   4.5746
     4.8970   4.8973   4.8981   4.9684   5.2064   5.3168   5.3171   5.3176
     5.3177   5.3627   5.3630   5.3632   5.3823   5.3830   5.3834   5.4456
     5.4462   5.4466   5.4469   5.4474   5.4481   5.5937   5.5943   5.8032
     5.9243   5.9247   5.9252   5.9253   5.9258   5.9260   5.9333   5.9337
     5.9337   6.0372   6.0373   6.0375   6.2311   6.2315   6.2322   6.2327
     6.2333   6.6541   6.6552   6.6555   6.6557   6.6561   6.6565   7.0632
     7.0644   7.0646   7.0650   7.0669   7.0670   7.0676   7.1521   7.1521
     7.1526   7.1714   7.1723   7.1726   7.1729   7.1733   7.1736   7.1745
     7.1750   7.1756   7.2623   7.2631   7.2637   7.2637   7.2647   7.2647
     7.3068   7.3072   7.3074   7.3695   7.3699   7.3743   7.3750   7.3751
     7.3752   7.3761   7.3762   7.5650   7.5652   7.5657   7.6623   7.7419
     7.7420   7.7422   7.7489   7.7493   7.8553   7.8558   7.8993   7.8994
     7.8996   7.8998   7.9904   7.9907   7.9909   7.9998   7.9999   8.0282
     8.0288   8.0290   8.0293   8.0296   8.0301   8.0426   8.0429   8.0432
     9.0291  12.1668  12.1673  12.6900  12.6909  12.6917  12.6921  12.6926
    12.6941  12.8702  12.8715  12.8727  13.2470  13.2477  13.2489  13.6076
    13.6094  13.6096  13.6101  13.6126

          k =-0.0000-0.0000 0.0363 ( 63469 PWs)   bands (ev):

    -9.1646  -8.9777  -8.8417  -8.8410  -8.8405  -8.8059  -8.8045  -8.8040
    -8.6420  -8.6418  -8.6412  -8.6113  -8.6097  -8.6093  -8.4844  -8.4500
    -8.4492  -8.4451  -8.4356  -8.4305  -8.4114  -8.4103  -8.4045  -8.4014
    -8.3888  -8.3851  -8.3666  -8.3659  -8.3583  -8.3513  -8.3507  -8.3241
    -8.3231  -8.3230  -8.3221  -8.3213  -8.3206  -8.3092  -8.3036  -8.2666
    -8.2636  -8.2519  -8.2512  -8.2476  -8.1902  -8.1866  -8.1855  -8.1850
    -4.2997  -4.2898  -4.2854  -4.2808  -4.2805  -4.2794  -4.2785  -4.2780
    -4.2641  -4.2549  -4.2547  -4.2494  -4.2485  -4.2481  -4.2267  -4.2239
    -4.2230  -4.2223  -4.2155  -4.2154  -4.2103  -4.2070  -4.2007  -4.1981
    -4.1976  -4.1944  -4.1942  -4.1864  -4.1803  -4.1780  -4.1658  -4.1615
    -4.1612  -4.1610  -4.1608  -4.1545  -4.1540  -4.1536  -4.1499  -4.1492
    -4.1463  -4.1436  -4.1434  -4.1414  -4.1368  -4.1218  -4.1216  -4.1182
    -4.1170  -4.1168  -4.1037  -4.1013  -4.1011  -4.0986  -4.0925  -4.0921
    -4.0856  -4.0834  -4.0829  -4.0731  -4.0687  -4.0660  -4.0566  -4.0562
    -4.0465  -4.0430  -4.0369  -4.0315  -4.0275  -4.0270  -4.0267  -4.0223
    -4.0215  -4.0189  -4.0174  -4.0058  -4.0051  -3.9882  -3.9877  -3.9874
[...]
    -4.1920  -4.1917  -4.1912  -4.1826  -4.1823  -4.1734  -4.1727  -4.1724
    -4.1629  -4.1627  -4.1604  -4.1571  -4.1568  -4.1566  -4.1532  -4.1530
    -4.1512  -4.1511  -4.1323  -4.1322  -4.1306  -4.1299  -4.1163  -4.1160
    -4.1113  -4.1109  -4.0958  -4.0956  -4.0941  -4.0932  -4.0927  -4.0911
    -4.0906  -4.0836  -4.0665  -4.0664  -4.0613  -4.0603  -4.0585  -4.0514
    -4.0443  -4.0281  -4.0274  -4.0272  -4.0267  -4.0197  -4.0192  -4.0115
    -4.0090  -4.0055  -4.0053  -4.0036  -4.0033  -4.0025  -3.9998  -3.9994
    -3.9851  -3.9845  -3.9838  -3.9810  -3.9743  -3.9741  -3.9646  -3.9645
    -3.9629  -3.9537  -3.9531  -3.9518  -3.9401  -3.9400  -3.9387  -3.9385
    -3.9251  -3.9250  -3.9213  -3.9207  -3.9188  -3.8877  -3.8875  -3.8827
    -3.8810  -3.8808  -3.8708  -3.8705  -3.8565  -3.8557  -3.8528  -3.8522
    -3.8474  -3.8470  -3.8383  -3.8350  -3.8340  -3.8338  -3.8304  -3.8302
    -3.7854  -3.7818  -3.7816  -3.7774  -3.7770  -3.7759  -3.7586  -3.7583
    -3.7426  -3.7421  -3.7165  -3.7162  -3.6882  -3.6797  -3.6792  -3.6602
    -3.6227  -3.6221  -3.6041  -3.6039  -3.5801  -3.4894  -3.4525  -3.4519
    -3.3613  -3.3598  -3.2765  -3.2502  -3.2502  -3.1818  -3.1813  -3.1484
    -3.1221  -3.0996  -3.0656  -3.0652  -2.9741  -2.9731  -2.9574  -2.9571
     2.9175   3.0071   3.0078   3.0331   3.1874   3.1883   3.2292   3.2296
     3.4650   3.4655   3.4969   3.5513   3.5522   3.5555   3.5563   3.6154
     3.7069   3.7080   3.7304   3.7311   3.7725   3.8897   3.9028   3.9036
     3.9324   4.2395   4.2407   4.6838   4.7788   4.7797   4.8930   4.8933
     4.9955   4.9959   5.0390   5.0509   5.0515   5.1496   5.1502   5.1773
     5.1780   5.1921   5.2697   5.3512   5.3516   5.3655   5.3660   5.3916
     5.5084   5.6339   5.6344   5.6808   5.6817   5.7590   5.7594   5.7698
     5.7702   5.8105   5.9046   5.9050   5.9472   5.9478   6.1479   6.1642
     6.1783   6.1793   6.2348   6.3373   6.3379   6.4218   6.4222   6.4800
     6.5161   6.5173   6.5177   6.5204   6.5209   6.5539   6.7076   6.7086
     6.7143   6.8680   6.8694   6.8828   6.8838   6.8876   6.8881   6.9180
     6.9184   7.0400   7.0432   7.0510   7.0517   7.1052   7.1057   7.1511
     7.1906   7.2052   7.2058   7.2164   7.2173   7.3503   7.3512   7.3558
     7.3560   7.3613   7.3617   7.3736   7.4127   7.4605   7.4616   7.5700
     7.5775   7.5784   7.6044   7.6048   7.6118   7.6542   7.7043   7.7044
     7.7172   7.7186   7.8209   7.8220   7.8271   7.8273   7.8297   7.8716
     7.8717   7.8807   7.8818   7.8990   7.8992   7.9234   7.9428   7.9448
     7.9451   7.9559   7.9582   7.9586   8.0021   8.0365   8.0369   8.0924
    10.8422  11.1954  11.1972  11.9971  11.9975  12.8893  12.8905  12.9163
    13.0068  13.0079  13.2718  13.2757  13.5471  13.5632  13.5645  13.6403
    13.6424  13.6758  13.6784  13.8507

          k = 0.0283-0.0525 0.0363 ( 63467 PWs)   bands (ev):

    -9.0664  -9.0169  -9.0071  -8.8745  -8.8741  -8.7288  -8.7244  -8.7241
    -8.7050  -8.7047  -8.7007  -8.5823  -8.5822  -8.4929  -8.4897  -8.4551
    -8.4488  -8.4487  -8.4466  -8.4458  -8.4366  -8.4287  -8.4193  -8.3849
    -8.3846  -8.3695  -8.3679  -8.3658  -8.3619  -8.3574  -8.3572  -8.3346
    -8.3342  -8.3100  -8.2987  -8.2899  -8.2894  -8.2720  -8.2717  -8.2565
    -8.2429  -8.2425  -8.2408  -8.2377  -8.2365  -8.2338  -8.2283  -8.2280
    -4.3000  -4.2986  -4.2785  -4.2782  -4.2780  -4.2778  -4.2749  -4.2727
    -4.2574  -4.2519  -4.2440  -4.2403  -4.2402  -4.2392  -4.2390  -4.2315
    -4.2298  -4.2242  -4.2241  -4.2199  -4.2198  -4.2194  -4.2160  -4.2098
    -4.1905  -4.1903  -4.1893  -4.1759  -4.1757  -4.1746  -4.1648  -4.1627
    -4.1607  -4.1606  -4.1573  -4.1570  -4.1568  -4.1505  -4.1503  -4.1495
    -4.1450  -4.1401  -4.1320  -4.1318  -4.1287  -4.1191  -4.1189  -4.1165
    -4.1161  -4.1068  -4.1066  -4.1051  -4.1045  -4.0969  -4.0921  -4.0917
    -4.0822  -4.0815  -4.0813  -4.0809  -4.0771  -4.0708  -4.0650  -4.0588
    -4.0564  -4.0557  -4.0440  -4.0275  -4.0272  -4.0204  -4.0161  -4.0115
    -4.0052  -3.9974  -3.9972  -3.9949  -3.9948  -3.9886  -3.9883  -3.9832
    -3.9828  -3.9725  -3.9717  -3.9714  -3.9694  -3.9646  -3.9575  -3.9564
    -3.9534  -3.9502  -3.9494  -3.9490  -3.9453  -3.9395  -3.9391  -3.9356
    -3.9299  -3.9191  -3.9075  -3.9070  -3.8952  -3.8829  -3.8822  -3.8807
    -3.8791  -3.8789  -3.8737  -3.8673  -3.8672  -3.8651  -3.8622  -3.8620
    -3.8595  -3.8505  -3.8466  -3.8465  -3.8406  -3.8390  -3.8387  -3.8150
    -3.8148  -3.8119  -3.8076  -3.7767  -3.7766  -3.7739  -3.7718  -3.7715
    -3.7610  -3.7588  -3.7130  -3.7118  -3.7047  -3.6796  -3.6762  -3.6638
    -3.6635  -3.6269  -3.6267  -3.5198  -3.4948  -3.4945  -3.4398  -3.3727
    -3.3724  -3.3709  -3.3585  -3.3012  -3.2737  -3.1719  -3.1717  -3.1319
    -3.0728  -3.0725  -3.0378  -3.0374  -3.0168  -3.0113  -2.9629  -2.9558
     2.8929   2.8979   2.9272   3.1504   3.1508   3.2121   3.2885   3.2923
     3.3240   3.3246   3.4408   3.4411   3.4778   3.6963   3.7606   3.7609
     3.7831   3.7839   3.8055   3.8065   3.8109   3.8123   3.9040   3.9677
     4.1209   4.1214   4.2780   4.5376   4.5385   4.6901   4.7081   4.7546
     4.8378   4.8953   5.0254   5.0259   5.1395   5.1400   5.1576   5.1794
     5.2345   5.3413   5.3561   5.3563   5.3569   5.3578   5.4521   5.5437
     5.5720   5.5966   5.6044   5.6047   5.6425   5.6429   5.6737   5.6892
     5.8744   6.0062   6.1154   6.1176   6.1262   6.1271   6.1394   6.1399
     6.2703   6.3101   6.3106   6.3108   6.3118   6.3337   6.3513   6.3602
     6.4015   6.4885   6.5114   6.5121   6.5427   6.6180   6.6626   6.6649
     6.6654   6.6926   6.7217   6.7223   6.8106   6.8395   6.8886   6.8891
     6.9149   6.9156   6.9187   6.9879   6.9887   7.0092   7.0710   7.1409
     7.1757   7.1761   7.2619   7.2623   7.2654   7.3314   7.3482   7.3562
     7.4129   7.4157   7.4162   7.5416   7.5454   7.5458   7.5786   7.5823
     7.6135   7.6202   7.6718   7.6721   7.6789   7.6988   7.7017   7.7265
     7.7270   7.7911   7.7918   7.7944   7.8202   7.8265   7.8431   7.8497
     7.8502   7.8518   7.8526   7.9156   7.9345   7.9381   7.9383   7.9408
     7.9437   7.9439   7.9493   7.9535   7.9548   7.9553   7.9967   8.0490
    10.7288  11.0811  11.2604  12.1410  12.1417  12.8164  12.9611  12.9620
    13.2334  13.2705  13.2714  13.3684  13.3699  13.4090  13.4470  13.4486
    13.5103  13.7216  13.7217  13.7923

          k = 0.0284-0.0525-0.0363 ( 63467 PWs)   bands (ev):

    -9.0664  -9.0169  -9.0071  -8.8743  -8.8742  -8.7289  -8.7242  -8.7241
    -8.7050  -8.7048  -8.7007  -8.5825  -8.5821  -8.4927  -8.4896  -8.4553
    -8.4486  -8.4485  -8.4465  -8.4462  -8.4368  -8.4288  -8.4192  -8.3847
    -8.3846  -8.3694  -8.3680  -8.3659  -8.3618  -8.3573  -8.3571  -8.3345
    -8.3344  -8.3099  -8.2986  -8.2897  -8.2894  -8.2721  -8.2720  -8.2565
    -8.2428  -8.2427  -8.2406  -8.2377  -8.2364  -8.2338  -8.2283  -8.2279
    -4.3000  -4.2987  -4.2785  -4.2783  -4.2780  -4.2778  -4.2749  -4.2726
    -4.2574  -4.2518  -4.2441  -4.2404  -4.2402  -4.2392  -4.2389  -4.2314
    -4.2297  -4.2243  -4.2241  -4.2200  -4.2198  -4.2193  -4.2161  -4.2098
    -4.1905  -4.1903  -4.1894  -4.1759  -4.1757  -4.1745  -4.1647  -4.1628
    -4.1607  -4.1606  -4.1573  -4.1569  -4.1569  -4.1505  -4.1502  -4.1495
    -4.1450  -4.1401  -4.1321  -4.1318  -4.1288  -4.1191  -4.1188  -4.1165
    -4.1161  -4.1068  -4.1065  -4.1051  -4.1046  -4.0969  -4.0921  -4.0917
    -4.0823  -4.0815  -4.0813  -4.0810  -4.0770  -4.0708  -4.0651  -4.0588
    -4.0561  -4.0558  -4.0439  -4.0274  -4.0273  -4.0205  -4.0161  -4.0115
    -4.0051  -3.9974  -3.9972  -3.9949  -3.9947  -3.9886  -3.9883  -3.9832
    -3.9828  -3.9726  -3.9717  -3.9714  -3.9694  -3.9644  -3.9575  -3.9564
    -3.9533  -3.9502  -3.9494  -3.9489  -3.9454  -3.9396  -3.9393  -3.9356
    -3.9299  -3.9191  -3.9074  -3.9071  -3.8952  -3.8828  -3.8823  -3.8807
    -3.8792  -3.8789  -3.8737  -3.8673  -3.8671  -3.8652  -3.8623  -3.8619
    -3.8594  -3.8505  -3.8466  -3.8465  -3.8406  -3.8390  -3.8388  -3.8151
    -3.8148  -3.8118  -3.8075  -3.7768  -3.7765  -3.7740  -3.7716  -3.7714
    -3.7610  -3.7588  -3.7130  -3.7118  -3.7047  -3.6796  -3.6761  -3.6640
    -3.6637  -3.6270  -3.6266  -3.5199  -3.4946  -3.4943  -3.4397  -3.3727
    -3.3723  -3.3707  -3.3584  -3.3012  -3.2739  -3.1719  -3.1718  -3.1322
    -3.0729  -3.0726  -3.0378  -3.0374  -3.0169  -3.0110  -2.9628  -2.9559
     2.8932   2.8975   2.9269   3.1505   3.1508   3.2125   3.2883   3.2920
     3.3242   3.3246   3.4402   3.4411   3.4780   3.6967   3.7605   3.7610
     3.7829   3.7840   3.8056   3.8061   3.8118   3.8123   3.9041   3.9673
     4.1206   4.1211   4.2788   4.5375   4.5379   4.6903   4.7082   4.7543
     4.8376   4.8956   5.0253   5.0257   5.1397   5.1401   5.1573   5.1792
     5.2344   5.3412   5.3559   5.3563   5.3572   5.3576   5.4516   5.5438
     5.5723   5.5966   5.6045   5.6046   5.6429   5.6432   5.6735   5.6893
     5.8748   6.0058   6.1157   6.1174   6.1258   6.1264   6.1398   6.1407
     6.2706   6.3097   6.3106   6.3109   6.3117   6.3334   6.3508   6.3606
     6.4011   6.4885   6.5116   6.5121   6.5427   6.6182   6.6628   6.6652
     6.6660   6.6933   6.7218   6.7220   6.8104   6.8394   6.8887   6.8890
     6.9153   6.9158   6.9183   6.9876   6.9884   7.0091   7.0709   7.1411
     7.1754   7.1761   7.2619   7.2623   7.2656   7.3315   7.3480   7.3564
     7.4125   7.4157   7.4159   7.5418   7.5453   7.5457   7.5785   7.5828
     7.6134   7.6200   7.6720   7.6723   7.6787   7.6990   7.7018   7.7270
     7.7270   7.7913   7.7916   7.7943   7.8203   7.8264   7.8428   7.8501
     7.8503   7.8516   7.8522   7.9155   7.9346   7.9380   7.9381   7.9409
     7.9437   7.9439   7.9494   7.9533   7.9549   7.9552   7.9967   8.0491
    10.7287  11.0812  11.2604  12.1410  12.1420  12.8160  12.9610  12.9625
    13.2339  13.2703  13.2717  13.3681  13.3694  13.4087  13.4467  13.4486
    13.5105  13.7194  13.7229  13.7925

     the Fermi energy is     8.5631 ev

!    total energy              =   -6637.03748911 Ry
     estimated scf accuracy    <          3.3E-09 Ry
     smearing contrib. (-TS)   =      -0.00000000 Ry
     internal energy E=F+TS    =   -6637.03748911 Ry

     The total energy is F=E-TS. E is the sum of the following terms:
     one-electron contribution =   -1621.80701842 Ry
     hartree contribution      =    1436.00837915 Ry
     xc contribution           =   -1885.87816107 Ry
     ewald contribution        =   -4108.40001330 Ry
     one-center paw contrib.   =    -456.96067547 Ry

     total magnetization       =     0.00 Bohr mag/cell
     absolute magnetization    =     0.00 Bohr mag/cell

     convergence has been achieved in  12 iterations

     Forces acting on atoms (cartesian axes, Ry/au):

     atom    1 type  1   force =     0.00009237    0.00006276    0.00004500
     atom    2 type  1   force =     0.00015185    0.00008140    0.00004513
     atom    3 type  1   force =     0.00022436    0.00011992    0.00007383
     atom    4 type  1   force =     0.00008889    0.00005693    0.00006071
     atom    5 type  1   force =     0.00063474    0.00068893   -0.00006828
     atom    6 type  1   force =     0.00002668    0.00014400    0.00000803
     atom    7 type  1   force =     0.00003962   -0.00015331   -0.00005563
     atom    8 type  1   force =     0.00017854    0.00006396    0.00006760
     atom    9 type  1   force =    -0.00021537   -0.00006645   -0.00023297
     atom   10 type  1   force =    -0.00011162   -0.00003335   -0.00002502
     atom   11 type  1   force =    -0.00010352   -0.00016246    0.00011609
     atom   12 type  1   force =    -0.00015292   -0.00008539   -0.00006239
     atom   13 type  1   force =     0.00017108    0.00026618   -0.00002447
     atom   14 type  1   force =    -0.00026739   -0.00006861    0.00004562
     atom   15 type  1   force =    -0.00017671   -0.00014164   -0.00002719
     atom   16 type  1   force =    -0.00009264   -0.00010599   -0.00005370
     atom   17 type  1   force =     0.00077615    0.00033956   -0.00042681
     atom   18 type  1   force =     0.00002571    0.00009181   -0.00004117
     atom   19 type  1   force =     0.00006213   -0.00011929    0.00002293
     atom   20 type  1   force =     0.00016892    0.00000179    0.00004440
     atom   21 type  1   force =     0.00008593    0.00007506    0.00001017
     atom   22 type  1   force =     0.00020674    0.00019056   -0.00001236
     atom   23 type  1   force =     0.00019220    0.00001707    0.00019518
     atom   24 type  1   force =     0.00009947    0.00002568    0.00006291
     atom   25 type  1   force =    -0.00030853   -0.00006375   -0.00005069
     atom   26 type  1   force =    -0.00005878    0.00035675   -0.00011729
     atom   27 type  1   force =     0.00002047   -0.00019293   -0.00010936
     atom   28 type  1   force =    -0.00018174   -0.00012643   -0.00005318
     atom   29 type  1   force =    -0.00012149   -0.00000219    0.00001532
     atom   30 type  1   force =    -0.00015911   -0.00011427   -0.00015048
     atom   31 type  1   force =    -0.00012681   -0.00009537   -0.00005906
     atom   32 type  1   force =    -0.00014373   -0.00012524    0.00003593
     atom   33 type  2   force =    -0.00215317   -0.00192687    0.00057515
     atom   34 type  2   force =     0.00012773    0.00029035   -0.00042663
     atom   35 type  2   force =     0.00007024    0.00037474   -0.00044857
     atom   36 type  2   force =    -0.00004822    0.00032494   -0.00042995
     atom   37 type  2   force =     0.00003147    0.00028365   -0.00038631
     atom   38 type  2   force =    -0.00000252    0.00027124   -0.00044126
     atom   39 type  2   force =    -0.00000822    0.00033716   -0.00050492
     atom   40 type  2   force =     0.00001451    0.00031325   -0.00043400
     atom   41 type  2   force =    -0.00014228    0.00091944    0.00024506
     atom   42 type  2   force =    -0.00023904    0.00045270   -0.00000890
     atom   43 type  2   force =     0.00005814    0.00078153   -0.00010087
     atom   44 type  2   force =    -0.00025279    0.00042452    0.00001008
     atom   45 type  2   force =    -0.00026952    0.00043496   -0.00000938
     atom   46 type  2   force =    -0.00023425    0.00046577   -0.00002869
     atom   47 type  2   force =    -0.00026004    0.00046621   -0.00000862
     atom   48 type  2   force =    -0.00026858    0.00048821    0.00001766
     atom   49 type  2   force =     0.00029445   -0.00024954   -0.00029494
     atom   50 type  2   force =     0.00027954   -0.00019595   -0.00046658
     atom   51 type  2   force =     0.00026407   -0.00010859   -0.00045040
     atom   52 type  2   force =     0.00021246   -0.00012300   -0.00040126
     atom   53 type  2   force =     0.00029456    0.00000922   -0.00013430
     atom   54 type  2   force =     0.00026358   -0.00019167   -0.00044503
     atom   55 type  2   force =     0.00027894   -0.00011846   -0.00047497
     atom   56 type  2   force =     0.00021260   -0.00017267   -0.00042755
     atom   57 type  2   force =    -0.00032541    0.00010559    0.00046351
     atom   58 type  2   force =    -0.00020411    0.00019532    0.00045852
     atom   59 type  2   force =    -0.00019204    0.00019701    0.00041453
     atom   60 type  2   force =    -0.00032505    0.00028698    0.00030678
     atom   61 type  2   force =    -0.00022013    0.00016295    0.00046055
     atom   62 type  2   force =    -0.00028291    0.00003287    0.00012692
     atom   63 type  2   force =    -0.00027090    0.00020439    0.00040707
     atom   64 type  2   force =    -0.00022041    0.00022318    0.00043563
     atom   65 type  2   force =    -0.00001481   -0.00031834    0.00046529
     atom   66 type  2   force =    -0.00001614   -0.00032817    0.00044799
     atom   67 type  2   force =     0.00002007   -0.00027310    0.00039115
     atom   68 type  2   force =    -0.00001132   -0.00029139    0.00042022
     atom   69 type  2   force =     0.00032792   -0.00046666    0.00051796
     atom   70 type  2   force =     0.00049909   -0.00040638    0.00037595
     atom   71 type  2   force =    -0.00000088   -0.00023885    0.00040323
     atom   72 type  2   force =    -0.00001195   -0.00024903    0.00043663
     atom   73 type  2   force =     0.00021535   -0.00048396   -0.00018880
     atom   74 type  2   force =     0.00027687   -0.00046670    0.00001552
     atom   75 type  2   force =     0.00028739   -0.00042876    0.00006170
     atom   76 type  2   force =     0.00023068   -0.00045488   -0.00003792
     atom   77 type  2   force =     0.00030500   -0.00043405    0.00004484
     atom   78 type  2   force =     0.00014558   -0.00043751    0.00004744
     atom   79 type  2   force =    -0.00004721   -0.00017914   -0.00028247
     atom   80 type  2   force =     0.00028618   -0.00042817    0.00000418

     Total force =     0.005105     Total SCF correction =     0.000138


     Computing stress (Cartesian axis) and pressure

          total   stress  (Ry/bohr**3)                   (kbar)     P=       -4.55
  -0.00002240   0.00000893   0.00000624           -3.30        1.31        0.92
   0.00000893  -0.00003371   0.00000328            1.31       -4.96        0.48
   0.00000624   0.00000328  -0.00003660            0.92        0.48       -5.38


     Writing output data file ./calc.save/

     init_run     :    306.94s CPU    312.68s WALL (       1 calls)
     electrons    :  11958.08s CPU  12129.91s WALL (       1 calls)
     forces       :    138.07s CPU    139.11s WALL (       1 calls)
     stress       :    914.28s CPU    916.40s WALL (       1 calls)

     Called by init_run:
     wfcinit      :    293.60s CPU    299.01s WALL (       1 calls)
     potinit      :      4.78s CPU      4.85s WALL (       1 calls)
     hinit0       :      6.69s CPU      6.72s WALL (       1 calls)

     Called by electrons:
     c_bands      :  10926.74s CPU  11071.26s WALL (      12 calls)
     sum_band     :    984.29s CPU   1008.96s WALL (      12 calls)
     v_of_rho     :     17.28s CPU     17.79s WALL (      13 calls)
     newd         :     17.10s CPU     19.28s WALL (      13 calls)
     PAW_pot      :     11.45s CPU     11.46s WALL (      13 calls)
     mix_rho      :      2.77s CPU      2.86s WALL (      12 calls)

     Called by c_bands:
     init_us_2    :     28.19s CPU     28.60s WALL (     756 calls)
     cegterg      :  10842.20s CPU  10984.18s WALL (     336 calls)

     Called by *egterg:
     cdiaghg      :   1274.42s CPU   1274.84s WALL (    2086 calls)
     h_psi        :   5434.69s CPU   5554.42s WALL (    2114 calls)
     s_psi        :   1050.78s CPU   1051.21s WALL (    2114 calls)
     g_psi        :     12.43s CPU     12.45s WALL (    1750 calls)

     Called by h_psi:
     h_psi:calbec :   1104.21s CPU   1110.49s WALL (    2114 calls)
     vloc_psi     :   3262.30s CPU   3368.81s WALL (    2114 calls)
     add_vuspsi   :   1057.61s CPU   1058.37s WALL (    2114 calls)

     General routines
     calbec       :   1855.32s CPU   1864.28s WALL (    2590 calls)
     fft          :     22.64s CPU     23.13s WALL (     363 calls)
     ffts         :      0.47s CPU      0.49s WALL (      50 calls)
     fftw         :   3225.92s CPU   3331.57s WALL (  888124 calls)
     interpolate  :      1.34s CPU      1.39s WALL (      26 calls)

     Parallel routines
     fft_scatt_xy :    343.11s CPU    352.89s WALL (  888537 calls)
     fft_scatt_yz :   1424.58s CPU   1484.83s WALL (  888537 calls)

     PWSCF        :      3h42m CPU      3h45m WALL


   This run was terminated on:   3:58:42  16Jul2021            

=------------------------------------------------------------------------------=
   JOB DONE.
=------------------------------------------------------------------------------=
# python dir           : /home/lls34/GitHub/10_QE_Interface/ase-espresso/espresso
# espresso dir         : /opt/womble/qe-6.7/bin
# pseudo dir           : /home/lls34/programs/QuantumExpresso/pseudopotentials/use_pot
# ase-espresso version : 0.3.3


