1
Lattice="3.430628950157361 -1.6865419255680497e-10 -2.3066451979737374e-10 0.23743309816913089 3.4224027404079136 -6.919959935049467e-10 -1.834031024005886 -1.7112013696573336 2.3403707119011243" Properties=species:S:1:pos:R:3:spacegroup_kinds:I:1:forces:R:3 spacegroup="P 1" unit_cell=conventional occupancy="_JSON {\"0\": {\"In\": 1}}" n_minim_iter=1 energy=-1969.5705209857417 stress="0.03524636652567761 -0.031091788028023835 8.813677790986762e-12 -0.031091788028023835 0.0395604231254219 7.796918082934032e-12 8.813677790986762e-12 7.796918082934032e-12 0.06856991618862167" free_energy=-1969.5705209857417 pbc="T T T"
In       0.00000000       0.00000000       0.00000000        0      -0.00000000      -0.00000000       0.00000000
1
Lattice="3.3689800045135585 0.05421071161121814 -2.3722775047513717e-10 0.28724710920433383 3.3571497092502938 -6.824560546893022e-10 -1.828113556707079 -1.7056802099845971 2.258676806698175" Properties=species:S:1:pos:R:3:spacegroup_kinds:I:1:forces:R:3 spacegroup="P 1" unit_cell=conventional occupancy="_JSON {\"0\": {\"In\": 1}}" n_minim_iter=2 energy=-1969.693743182247 stress="-0.007004182469206903 -0.0169736196671162 4.641366343893768e-12 -0.0169736196671162 -0.004649053974556353 4.020276272584046e-12 4.641366343893768e-12 4.020276272584046e-12 0.011187799843346011" free_energy=-1969.693743182247 pbc="T T T"
In       0.00000000       0.00000000       0.00000000        0       0.00000000       0.00000000       0.00000000
1
Lattice="3.37393768602724 0.08332462024013261 -2.433120268153253e-10 0.3166343264820817 3.3600805354673065 -6.850108169158829e-10 -1.845286006103998 -1.7217025774110972 2.2407718072453853" Properties=species:S:1:pos:R:3:spacegroup_kinds:I:1:forces:R:3 spacegroup="P 1" unit_cell=conventional occupancy="_JSON {\"0\": {\"In\": 1}}" n_minim_iter=3 energy=-1969.7005636514257 stress="-0.03360825440559693 -0.013442748843273896 3.6706610241090964e-12 -0.013442748843273896 -0.03174304230134749 3.3316303518879483e-12 3.6706610241090964e-12 3.3316303518879483e-12 -0.019200588037681796" free_energy=-1969.7005636514257 pbc="T T T"
In       0.00000000       0.00000000       0.00000000        0       0.00000000       0.00000000      -0.00000000
1
Lattice="3.5864464487694083 0.46836804617085964 -3.3365840600348485e-10 0.7154621536581554 3.545430955927284 -7.484393129757433e-10 -2.150954301072299 -2.0068995006334247 2.104214044630558" Properties=species:S:1:pos:R:3:spacegroup_kinds:I:1:forces:R:3 spacegroup="P 1" unit_cell=conventional occupancy="_JSON {\"0\": {\"In\": 1}}" n_minim_iter=4 energy=-1969.7765742576244 stress="-0.17242336467311067 0.014039319780125941 -3.5812760540530396e-12 0.014039319780125941 -0.17437135235752824 -3.541672485493152e-12 -3.5812760540530396e-12 -3.541672485493152e-12 -0.18747042370672326" free_energy=-1969.7765742576244 pbc="T T T"
In       0.00000000       0.00000000       0.00000000        0       0.00000000      -0.00000000       0.00000000
1
Lattice="3.645221655352179 0.5573267433724114 -3.5518316110429576e-10 0.808275358791993 3.5979084146065006 -7.650461544228064e-10 -2.2267485069322808 -2.077617578578736 2.079266769700813" Properties=species:S:1:pos:R:3:spacegroup_kinds:I:1:forces:R:3 spacegroup="P 1" unit_cell=conventional occupancy="_JSON {\"0\": {\"In\": 1}}" n_minim_iter=5 energy=-1969.7960180063544 stress="-0.17795677813256472 0.02832316763760719 -7.549355752885665e-12 0.02832316763760719 -0.1818866823299752 -6.883140875268751e-12 -7.549355752885665e-12 -6.883140875268751e-12 -0.20831297644922894" free_energy=-1969.7960180063544 pbc="T T T"
In       0.00000000       0.00000000       0.00000000        0      -0.00000000      -0.00000000       0.00000000
1
Lattice="3.859260753756185 0.7637452424036247 -4.103498756442336e-10 1.0290124930185238 3.7971480942924436 -8.192448563150733e-10 -2.44413662324788 -2.280446667938282 2.0743576167971978" Properties=species:S:1:pos:R:3:spacegroup_kinds:I:1:forces:R:3 spacegroup="P 1" unit_cell=conventional occupancy="_JSON {\"0\": {\"In\": 1}}" n_minim_iter=6 energy=-1969.9837687598126 stress="-0.08031166263076549 0.0566548715179649 -1.5337394217962234e-11 0.0566548715179649 -0.08817265544814869 -1.4332361387324205e-11 -1.5337394217962234e-11 -1.4332361387324205e-11 -0.14103320823565998" free_energy=-1969.9837687598126 pbc="T T T"
In       0.00000000       0.00000000       0.00000000        0      -0.00000000      -0.00000000      -0.00000000
1
Lattice="3.8648897570343403 0.6532150035012095 -3.8889539317352806e-10 0.9191368736193164 3.810413374213007 -8.144777331264798e-10 -2.3920133151816607 -2.2318141884306333 2.1590137570523664" Properties=species:S:1:pos:R:3:spacegroup_kinds:I:1:forces:R:3 spacegroup="P 1" unit_cell=conventional occupancy="_JSON {\"0\": {\"In\": 1}}" n_minim_iter=7 energy=-1970.1420850303798 stress="-0.007642556239620001 0.00019975809799889328 -1.0445495547316175e-13 0.00019975809799889328 -0.007670273131748742 -2.2668463052095e-13 -1.0445495547316175e-13 -2.2668463052095e-13 -0.007856652930649782" free_energy=-1970.1420850303798 pbc="T T T"
In       0.00000000       0.00000000       0.00000000        0      -0.00000000      -0.00000000      -0.00000000
