1
Lattice="4.091387277291635 0.8075626904208392 -4.346200988244161e-10 1.0887902996073695 4.02568541185529 -8.684108562483931e-10 -2.590088788301532 -2.4166240507033634 2.2006761729114994" Properties=species:S:1:pos:R:3:spacegroup_kinds:I:1:forces:R:3 spacegroup="P 1" unit_cell=conventional occupancy="_JSON {\"0\": {\"In\": 1}}" n_minim_iter=2 energy=-1970.0418532193669 stress="0.05672607223517796 0.000568628316610694 -1.5012684887809665e-13 0.000568628316610694 0.05664717375790068 -2.1011694644252596e-14 -1.5012684887809665e-13 -2.1011694644252596e-14 0.05611662790388145" free_energy=-1970.0418532193669 pbc="T T T"
In       0.00000000       0.00000000       0.00000000        0       0.00000000       0.00000000       0.00000000
