1
Lattice="4.2376305141488775 0.8364283474237276 -4.501520246769178e-10 1.1277082037024173 4.169580190153672 -8.994505284699364e-10 -2.6826693587723898 -2.5030042683384575 2.279337513182912" Properties=species:S:1:pos:R:3:spacegroup_kinds:I:1:forces:R:3 spacegroup="P 1" unit_cell=conventional occupancy="_JSON {\"0\": {\"In\": 1}}" n_minim_iter=1 energy=-1969.8059192322582 stress="0.046508748099582234 -0.005245781956253765 1.1673299298741504e-12 -0.005245781956253765 0.04723661232701704 8.864202762908269e-13 1.1673299298741504e-12 8.864202762908269e-13 0.0521310711184546" free_energy=-1969.8059192322582 pbc="T T T"
In       0.00000000       0.00000000       0.00000000        0      -0.00000000      -0.00000000       0.00000000
