1
Lattice="3.9282598685407453 0.6639253497754319 -3.9527415510109747e-10 0.9342073697608675 3.872890271508691 -8.278313824782046e-10 -2.4312336190032586 -2.268407810208596 2.1944137169811766" Properties=species:S:1:pos:R:3:spacegroup_kinds:I:1:forces:R:3 spacegroup="P 1" unit_cell=conventional occupancy="_JSON {\"0\": {\"In\": 1}}" n_minim_iter=1 energy=-1970.120380785521 stress="0.0260775896270041 -0.01773888374654467 4.851934741481151e-12 -0.01773888374654467 0.028538900260773107 4.527024393117958e-12 4.851934741481151e-12 4.527024393117958e-12 0.045089766506324" free_energy=-1970.120380785521 pbc="T T T"
In       0.00000000       0.00000000       0.00000000        0       0.00000000       0.00000000       0.00000000
1
Lattice="3.9698533021253315 0.7388673469835344 -4.128741043135876e-10 1.011848338309809 3.9091972497040324 -8.402236146253491e-10 -2.490850820071797 -2.324032297915536 2.1679936040558236" Properties=species:S:1:pos:R:3:spacegroup_kinds:I:1:forces:R:3 spacegroup="P 1" unit_cell=conventional occupancy="_JSON {\"0\": {\"In\": 1}}" n_minim_iter=2 energy=-1970.1335250160632 stress="0.019103582701857507 0.0019965866904922223 -3.9238892311658456e-13 0.0019965866904922223 0.018826551738536174 -4.316365849258471e-13 -3.9238892311658456e-13 -4.316365849258471e-13 0.016963681462038353" free_energy=-1970.1335250160632 pbc="T T T"
In       0.00000000       0.00000000       0.00000000        0       0.00000000      -0.00000000       0.00000000
