1
Lattice="3.832410156270213 0.6477255422589482 -3.856324078314682e-10 0.9114126691582702 3.778391579822759 -8.07634577644245e-10 -2.3719114125702925 -2.2130585606179634 2.14086992649532" Properties=species:S:1:pos:R:3:spacegroup_kinds:I:1:forces:R:3 spacegroup="P 1" unit_cell=conventional occupancy="_JSON {\"0\": {\"In\": 1}}" n_minim_iter=1 energy=-1970.1263681898836 stress="-0.030097251559583347 0.009847349945236925 -2.73357790272517e-12 0.009847349945236925 -0.03146359385488401 -2.218800892743596e-12 -2.73357790272517e-12 -2.218800892743596e-12 -0.04065144209439222" free_energy=-1970.1263681898836 pbc="T T T"
In       0.00000000       0.00000000       0.00000000        0      -0.00000000      -0.00000000       0.00000000
