1
Lattice="3.6336073381687815 0.5071855872083216 -3.4450158714775474e-10 0.7574506102955013 3.589792205800893 -7.600282963231449e-10 -2.195528974090404 -2.0484888960882084 2.1080050461037136" Properties=species:S:1:pos:R:3:spacegroup_kinds:I:1:forces:R:3 spacegroup="P 1" unit_cell=conventional occupancy="_JSON {\"0\": {\"In\": 1}}" n_minim_iter=1 energy=-1969.8752350510083 stress="-0.15116105410951836 0.009774053100913787 -2.599381510407182e-12 0.009774053100913787 -0.1525172263001667 -2.3744020419571093e-12 -2.599381510407182e-12 -2.3744020419571093e-12 -0.16163668656971467" free_energy=-1969.8752350510083 pbc="T T T"
In       0.00000000       0.00000000       0.00000000        0       0.00000000       0.00000000      -0.00000000
