1
Lattice="3.6947713196329834 0.5627855493873031 -3.5959974682306805e-10 0.8171503969901751 3.6469614623245503 -7.753358396592982e-10 -2.255960858169768 -2.104873505439316 2.1090781899889715" Properties=species:S:1:pos:R:3:spacegroup_kinds:I:1:forces:R:3 spacegroup="P 1" unit_cell=conventional occupancy="_JSON {\"0\": {\"In\": 1}}" n_minim_iter=1 energy=-1969.9712001445243 stress="-0.11875377454023459 0.01421814819342062 -4.023457973232296e-12 0.01421814819342062 -0.12072657507497997 -3.4079881459878372e-12 -4.023457973232296e-12 -3.4079881459878372e-12 -0.13399249825198317" free_energy=-1969.9712001445243 pbc="T T T"
In       0.00000000       0.00000000       0.00000000        0      -0.00000000      -0.00000000       0.00000000
1
Lattice="3.6678886772525394 0.5119706394925461 -3.477546334253792e-10 0.7645967928061904 3.6236601701663855 -7.6719936567268e-10 -2.2162427348862903 -2.067815404409138 2.1278930606991993" Properties=species:S:1:pos:R:3:spacegroup_kinds:I:1:forces:R:3 spacegroup="P 1" unit_cell=conventional occupancy="_JSON {\"0\": {\"In\": 1}}" n_minim_iter=2 energy=-1969.9779820306246 stress="-0.11467971220898952 7.001649390253745e-05 -1.9563161035754955e-13 7.001649390253745e-05 -0.11468942715708236 -8.698501999513213e-15 -1.9563161035754955e-13 -8.698501999513213e-15 -0.1147547544708933" free_energy=-1969.9779820306246 pbc="T T T"
In       0.00000000       0.00000000       0.00000000        0      -0.00000000      -0.00000000       0.00000000
