1
Lattice="4.121472087705262 0.8135008646370202 -4.378098195298137e-10 1.096796398156309 4.055287102966954 -8.747918480631453e-10 -2.609134242781729 -2.434393983364087 2.216858196503172" Properties=species:S:1:pos:R:3:spacegroup_kinds:I:1:forces:R:3 spacegroup="P 1" unit_cell=conventional occupancy="_JSON {\"0\": {\"In\": 1}}" n_minim_iter=1 energy=-1969.9955410752616 stress="0.06287998549617864 -0.0032851428109166294 8.934728630353792e-13 -0.0032851428109166294 0.0633358065645566 7.911061591023425e-13 8.934728630353792e-13 7.911061591023425e-13 0.06640093512831617" free_energy=-1969.9955410752616 pbc="T T T"
In       0.00000000       0.00000000       0.00000000        0      -0.00000000      -0.00000000       0.00000000
