1
Lattice="3.8324101562702135 0.6477255422589493 -3.8563120073429413e-10 0.9114126691582697 3.7783915798227605 -8.076346754719635e-10 -2.3719114125702925 -2.213058560617965 2.140869926495319" Properties=species:S:1:pos:R:3:spacegroup_kinds:I:1:forces:R:3 spacegroup="P 1" unit_cell=conventional occupancy="_JSON {\"0\": {\"In\": 1}}" n_minim_iter=1 energy=-1970.1420850303793 stress="-0.007642556239750842 0.00019975809807673268 -1.3495714950678387e-13 0.00019975809807673268 -0.007670273131938437 -1.0748248634700602e-13 -1.3495714950678387e-13 -1.0748248634700602e-13 -0.007856652929543604" free_energy=-1970.1420850303793 pbc="T T T"
In       0.00000000       0.00000000       0.00000000        0      -0.00000000       0.00000000       0.00000000
