1
Lattice="3.6947713196329826 0.5627855493873025 -3.596006191887995e-10 0.8171503969901753 3.64696146232455 -7.7533546685388e-10 -2.255960858169767 -2.104873505439316 2.109078189988972" Properties=species:S:1:pos:R:3:spacegroup_kinds:I:1:forces:R:3 spacegroup="P 1" unit_cell=conventional occupancy="_JSON {\"0\": {\"In\": 1}}" n_minim_iter=1 energy=-1970.0509371457674 stress="-0.08242943671833737 0.007103063947918525 -1.935358546372234e-12 0.007103063947918525 -0.08341500306383863 -1.7648907402627321e-12 -1.935358546372234e-12 -1.7648907402627321e-12 -0.09004235701855193" free_energy=-1970.0509371457674 pbc="T T T"
In       0.00000000       0.00000000       0.00000000        0      -0.00000000       0.00000000      -0.00000000
