80
Lattice="11.758812762970885 0.0 0.0 6.452317444010323 9.830426094342354 0.0 6.452317444010323 3.4829815090918417 9.192720870539437" Properties=species:S:1:pos:R:3:initial_magmoms:R:1:forces:R:3 uid=supercell.xyz_R3c type=Bulk energy=-90301.46665413615 stress="0.001975502212196004 -0.0008371292439611065 -0.0005780258025819498 -0.0008371292439611065 0.0030744212281411773 -0.0003120204292704675 -0.0005780258025819498 -0.0003120204292704675 0.0033108615983338543" virial="-2.080625233774798e-06 7.871468388574919e-07 5.434855780915065e-07 7.871468388574919e-07 -3.114025474470254e-06 2.929119411335783e-07 5.434855780915065e-07 2.929119411335783e-07 -3.3360855596364177e-06" pbc="T T T"
In      10.57093864       5.70622635       3.94006911      10.00000000       0.00291092       0.00157133       0.00108498
In      16.45034502       5.70622635       3.94006911      10.00000000       0.00291092       0.00157132       0.00108498
In      13.79709736      10.62143940       3.94006911      10.00000000       0.00291090       0.00157130       0.00108498
In      19.67650374      10.62143940       3.94006911      10.00000000       0.00291095       0.00157132       0.00108500
In      13.79709736       7.44771711       8.53642955      10.00000000       0.00291092       0.00157124       0.00108491
In      19.67650374       7.44771711       8.53642955      10.00000000       0.00291097       0.00157127       0.00108491
In      17.02325608      12.36293015       8.53642955      10.00000000       0.00291096       0.00157135       0.00108492
In      22.90266246      12.36293015       8.53642955      10.00000000       0.00291096       0.00157134       0.00108492
In       7.92664710       4.27882935       2.95447155      10.00000000      -0.00291096      -0.00157125      -0.00108509
In      13.80605348       4.27882935       2.95447155      10.00000000      -0.00291094      -0.00157125      -0.00108509
In      11.15280582       9.19404240       2.95447155      10.00000000      -0.00291094      -0.00157128      -0.00108508
In      17.03221221       9.19404240       2.95447155      10.00000000      -0.00291102      -0.00157127      -0.00108508
In      11.15280582       6.02032010       7.55083198      10.00000000      -0.00291089      -0.00157126      -0.00108503
In      17.03221221       6.02032010       7.55083198      10.00000000      -0.00291099      -0.00157126      -0.00108503
In      14.37896455      10.93553315       7.55083198      10.00000000      -0.00291100      -0.00157124      -0.00108502
In      20.25837093      10.93553315       7.55083198      10.00000000      -0.00291100      -0.00157124      -0.00108502
In       4.40507673       2.37787445       1.64188889      10.00000000       0.00291086       0.00157128       0.00108497
In      10.28448311       2.37787445       1.64188889      10.00000000       0.00291087       0.00157127       0.00108498
In       7.63123545       7.29308750       1.64188889      10.00000000       0.00291086       0.00157129       0.00108499
In      13.51064183       7.29308750       1.64188889      10.00000000       0.00291087       0.00157130       0.00108499
In       7.63123545       4.11936520       6.23824933      10.00000000       0.00291090       0.00157131       0.00108497
In      13.51064183       4.11936520       6.23824933      10.00000000       0.00291090       0.00157131       0.00108498
In      10.85739417       9.03457825       6.23824933      10.00000000       0.00291096       0.00157129       0.00108497
In      16.73680055       9.03457825       6.23824933      10.00000000       0.00291098       0.00157128       0.00108495
In       1.76078518       0.95047746       0.65629133      10.00000000      -0.00291084      -0.00157140      -0.00108504
In       7.64019156       0.95047746       0.65629133      10.00000000      -0.00291083      -0.00157141      -0.00108504
In       4.98694390       5.86569050       0.65629133      10.00000000      -0.00291084      -0.00157132      -0.00108505
In      10.86635028       5.86569050       0.65629133      10.00000000      -0.00291083      -0.00157132      -0.00108505
In       4.98694390       2.69196821       5.25265176      10.00000000      -0.00291086      -0.00157139      -0.00108498
In      10.86635028       2.69196821       5.25265176      10.00000000      -0.00291082      -0.00157139      -0.00108500
In       8.21310263       7.60718126       5.25265176      10.00000000      -0.00291090      -0.00157144      -0.00108498
In      14.09250901       7.60718126       5.25265176      10.00000000      -0.00291093      -0.00157143      -0.00108498
O        6.02263415       2.30932705       0.21474656       4.00000000      -0.00000004       0.00914404      -0.01324293
O       11.90204053       2.30932705       0.21474656       4.00000000      -0.00000002       0.00914404      -0.01324293
O        9.24879287       7.22454010       0.21474656       4.00000000      -0.00000002       0.00914400      -0.01324294
O       15.12819925       7.22454010       0.21474656       4.00000000       0.00000000       0.00914399      -0.01324293
O        9.24879287       4.05081780       4.81110699       4.00000000      -0.00000003       0.00914406      -0.01324291
O       15.12819925       4.05081780       4.81110699       4.00000000      -0.00000001       0.00914406      -0.01324291
O       12.47495159       8.96603085       4.81110699       4.00000000       0.00000000       0.00914404      -0.01324289
O       18.35435798       8.96603085       4.81110699       4.00000000      -0.00000010       0.00914404      -0.01324286
O        7.09636398       5.12094207       1.14909010       4.00000000      -0.00764446       0.01416160       0.00000016
O       12.97577036       5.12094207       1.14909010       4.00000000      -0.00764446       0.01416159       0.00000015
O       10.32252270      10.03615511       1.14909010       4.00000000      -0.00764447       0.01416164       0.00000014
O       16.20192908      10.03615511       1.14909010       4.00000000      -0.00764445       0.01416164       0.00000016
O       10.32252270       6.86243282       5.74545054       4.00000000      -0.00764447       0.01416159       0.00000004
O       16.20192908       6.86243282       5.74545054       4.00000000      -0.00764445       0.01416160       0.00000006
O       13.54868142      11.77764587       5.74545054       4.00000000      -0.00764446       0.01416157       0.00000006
O       19.42808780      11.77764587       5.74545054       4.00000000      -0.00764445       0.01416157       0.00000007
O        8.17506304       2.18091283       2.51292678       4.00000000       0.00764449      -0.00501755      -0.01324297
O       14.05446942       2.18091283       2.51292678       4.00000000       0.00764450      -0.00501755      -0.01324298
O       11.40122176       7.09612588       2.51292678       4.00000000       0.00764448      -0.00501758      -0.01324297
O       17.28062814       7.09612588       2.51292678       4.00000000       0.00764450      -0.00501758      -0.01324297
O       11.40122176       3.92240358       7.10928721       4.00000000       0.00764446      -0.00501756      -0.01324292
O       17.28062814       3.92240358       7.10928721       4.00000000       0.00764447      -0.00501757      -0.01324293
O       14.62738048       8.83761663       7.10928721       4.00000000       0.00764449      -0.00501755      -0.01324293
O       20.50678687       8.83761663       7.10928721       4.00000000       0.00764442      -0.00501758      -0.01324291
O        4.15666079       4.47579097       2.08343366       4.00000000      -0.00764450       0.00501755       0.01324295
O       10.03606717       4.47579097       2.08343366       4.00000000      -0.00764448       0.00501755       0.01324295
O        7.38281951       9.39100402       2.08343366       4.00000000      -0.00764447       0.00501755       0.01324292
O       13.26222589       9.39100402       2.08343366       4.00000000      -0.00764447       0.00501756       0.01324294
O        7.38281951       6.21728172       6.67979410       4.00000000      -0.00764444       0.00501763       0.01324288
O       13.26222589       6.21728172       6.67979410       4.00000000      -0.00764444       0.00501763       0.01324288
O       10.60897823      11.13249477       6.67979410       4.00000000      -0.00764445       0.00501759       0.01324289
O       16.48838462      11.13249477       6.67979410       4.00000000      -0.00764452       0.00501756       0.01324291
O        6.30908968       4.34737676       4.38161388       4.00000000      -0.00000004      -0.00914406       0.01324292
O       12.18849606       4.34737676       4.38161388       4.00000000      -0.00000003      -0.00914406       0.01324292
O        9.53524840       9.26258981       4.38161388       4.00000000      -0.00000002      -0.00914406       0.01324293
O       15.41465478       9.26258981       4.38161388       4.00000000       0.00000004      -0.00914407       0.01324292
O        9.53524840       6.08886751       8.97797431       4.00000000      -0.00000003      -0.00914402       0.01324296
O       15.41465478       6.08886751       8.97797431       4.00000000       0.00000002      -0.00914403       0.01324294
O       12.76140712      11.00408056       8.97797431       4.00000000       0.00000002      -0.00914406       0.01324294
O       18.64081350      11.00408056       8.97797431       4.00000000       0.00000004      -0.00914408       0.01324294
O        5.23535984       1.53576173       3.44727032       4.00000000       0.00764452      -0.01416153       0.00000008
O       11.11476623       1.53576173       3.44727032       4.00000000       0.00764445      -0.01416153       0.00000006
O        8.46151857       6.45097478       3.44727032       4.00000000       0.00764447      -0.01416156       0.00000006
O       14.34092495       6.45097478       3.44727032       4.00000000       0.00764448      -0.01416156       0.00000006
O        8.46151857       3.27725249       8.04363076       4.00000000       0.00764446      -0.01416158       0.00000004
O       14.34092495       3.27725249       8.04363076       4.00000000       0.00764446      -0.01416158       0.00000005
O       11.68767729       8.19246553       8.04363076       4.00000000       0.00764446      -0.01416153       0.00000004
O       17.56708367       8.19246553       8.04363076       4.00000000       0.00764447      -0.01416153       0.00000004
