80
Lattice="11.758812762970885 0.0 0.0 6.452317444010323 9.830426094342354 0.0 6.452317444010323 3.4829815090918417 9.192720870539437" Properties=species:S:1:pos:R:3:initial_magmoms:R:1:forces:R:3 uid=supercell-003.xyz_R3c type=Bulk energy=-90301.46635199468 stress="0.002004835132337737 -0.0008349568427816507 -0.0005929197537055964 -0.0008349568427816507 0.003061013513060441 -0.00030852480144808283 -0.0005929197537055964 -0.00030852480144808283 0.003338541558476736" virial="-2.085809515918755e-06 7.931951680254419e-07 5.538541423794208e-07 7.931951680254419e-07 -3.0906962048224462e-06 2.9118384708559254e-07 5.538541423794208e-07 2.9118384708559254e-07 -3.3473181709483243e-06" pbc="T T T"
In      10.57093864       5.70622635       3.94006911      10.00000000       0.00260156       0.00141051       0.00065560
In      16.45034502       5.70622635       3.94006911      10.00000000       0.00319127       0.00122695       0.00049684
In      13.79709736      10.62143940       3.94006911      10.00000000       0.00345973       0.00195159       0.00084114
In      19.67650374      10.62143940       3.94006911      10.00000000       0.00230691       0.00135789       0.00187159
In      13.79709736       7.44771711       8.53642955      10.00000000       0.01121465       0.01622706      -0.00364938
In      19.67650374       7.44771711       8.53642955      10.00000000       0.00096266       0.00314039       0.00072826
In      17.02325608      12.36293015       8.53642955      10.00000000       0.00155918      -0.00162303       0.00061080
In      22.90266246      12.36293015       8.53642955      10.00000000       0.00366691       0.00091842       0.00108304
In       7.92664710       4.27882935       2.95447155      10.00000000      -0.00405800      -0.00124558      -0.00359983
In      13.80605348       4.27882935       2.95447155      10.00000000      -0.00320352       0.00005063      -0.00075292
In      11.15280582       9.19404240       2.95447155      10.00000000      -0.00322268      -0.00267625      -0.00004005
In      17.03221221       9.19404240       2.95447155      10.00000000      -0.00253819      -0.00109520      -0.00101906
In      11.15280582       6.02032010       7.55083198      10.00000000       0.00222623       0.00341965       0.00195590
In      17.03221221       6.02032010       7.55083198      10.00000000      -0.00563522      -0.00132647       0.00103948
In      14.37896455      10.93553315       7.55083198      10.00000000      -0.00337951      -0.00338974      -0.00094519
In      20.25837093      10.93553315       7.55083198      10.00000000      -0.00221827      -0.00234726      -0.00141611
In       4.40507673       2.37787445       1.64188889      10.00000000       0.02093710       0.00464459      -0.01212678
In      10.28448311       2.37787445       1.64188889      10.00000000       0.00151912       0.00132611      -0.00064340
In       7.63123545       7.29308750       1.64188889      10.00000000       0.00233864      -0.00147084       0.00087477
In      13.51064183       7.29308750       1.64188889      10.00000000       0.00333242       0.00018673       0.00131988
In       7.63123545       4.11936520       6.23824933      10.00000000       0.00266400       0.00148171       0.00043393
In      13.51064183       4.11936520       6.23824933      10.00000000       0.00477580       0.00178459      -0.00109129
In      10.85739417       9.03457825       6.23824933      10.00000000       0.00402749       0.00032000       0.00385170
In      16.73680055       9.03457825       6.23824933      10.00000000       0.00202198       0.00104837       0.00154001
In       1.76078518       0.95047746       0.65629133      10.00000000      -0.00460717      -0.00277952      -0.00140825
In       7.64019156       0.95047746       0.65629133      10.00000000      -0.00424097       0.00570040      -0.00176529
In       4.98694390       5.86569050       0.65629133      10.00000000       0.00032801      -0.00394310      -0.00158985
In      10.86635028       5.86569050       0.65629133      10.00000000      -0.00356526      -0.00230528      -0.00096106
In       4.98694390       2.69196821       5.25265176      10.00000000      -0.00255457      -0.00052553      -0.00049031
In      10.86635028       2.69196821       5.25265176      10.00000000      -0.00325503      -0.00259430      -0.00300753
In       8.21310263       7.60718126       5.25265176      10.00000000      -0.00321349      -0.00180057      -0.00173970
In      14.09250901       7.60718126       5.25265176      10.00000000      -0.00306506      -0.00147402       0.00056582
O        6.02844157       2.31817494       0.21474656       4.00000000      -0.05660280      -0.04082044       0.00944401
O       11.90204053       2.30932705       0.21474656       4.00000000       0.00061150       0.00854867      -0.01372011
O        9.24879287       7.22454010       0.21474656       4.00000000       0.00152052       0.01206420      -0.01345506
O       15.12819925       7.22454010       0.21474656       4.00000000      -0.00016996       0.00998533      -0.01286310
O        9.24879287       4.05081780       4.81110699       4.00000000       0.00055086       0.00929486      -0.01172793
O       15.12819925       4.05081780       4.81110699       4.00000000       0.00010803       0.00927482      -0.01278307
O       12.47495159       8.96603085       4.81110699       4.00000000      -0.00022047       0.00933202      -0.01378224
O       18.35435798       8.96603085       4.81110699       4.00000000      -0.00014503       0.00931452      -0.01316215
O        7.09636398       5.12094207       1.14909010       4.00000000      -0.00539007       0.02150595       0.00457683
O       12.97577036       5.12094207       1.14909010       4.00000000      -0.00762687       0.01390382       0.00001928
O       10.32252270      10.03615511       1.14909010       4.00000000      -0.00143836       0.01871567      -0.00091083
O       16.20192908      10.03615511       1.14909010       4.00000000      -0.00766077       0.01369757      -0.00001163
O       10.32252270       6.86243282       5.74545054       4.00000000      -0.00832940       0.01412676      -0.00070112
O       16.20192908       6.86243282       5.74545054       4.00000000      -0.00747023       0.01417948      -0.00016033
O       13.54868142      11.77764587       5.74545054       4.00000000      -0.00746980       0.01379819       0.00008085
O       19.42808780      11.77764587       5.74545054       4.00000000      -0.00850313       0.01486190       0.00097425
O        8.17506304       2.18091283       2.51292678       4.00000000       0.00867384      -0.00593112      -0.01087416
O       14.05446942       2.18091283       2.51292678       4.00000000       0.00775263      -0.00570152      -0.01393087
O       11.40122176       7.09612588       2.51292678       4.00000000       0.00760759      -0.00406090      -0.01355597
O       17.28062814       7.09612588       2.51292678       4.00000000       0.00684371      -0.00388598      -0.01288502
O       11.40122176       3.92240358       7.10928721       4.00000000       0.00874354      -0.00146174      -0.00735543
O       17.28062814       3.92240358       7.10928721       4.00000000       0.00760220      -0.00472716      -0.01309241
O       14.62738048       8.83761663       7.10928721       4.00000000       0.00774581      -0.00616985      -0.01284047
O       20.50678687       8.83761663       7.10928721       4.00000000       0.00684931      -0.00463319      -0.01391787
O        4.15666079       4.47579097       2.08343366       4.00000000      -0.00894012       0.00413275       0.01358412
O       10.03606717       4.47579097       2.08343366       4.00000000      -0.00539791       0.00591867       0.01396990
O        7.38281951       9.39100402       2.08343366       4.00000000      -0.00593321       0.00533533       0.01244701
O       13.26222589       9.39100402       2.08343366       4.00000000      -0.00897779       0.00814136       0.01099820
O        7.38281951       6.21728172       6.67979410       4.00000000      -0.00733584       0.00473419       0.01388837
O       13.26222589       6.21728172       6.67979410       4.00000000      -0.00672340       0.00463632       0.00539029
O       10.60897823      11.13249477       6.67979410       4.00000000      -0.00793144       0.00464621       0.01283788
O       16.48838462      11.13249477       6.67979410       4.00000000      -0.00733037       0.00630483       0.01328280
O        6.30908968       4.34737676       4.38161388       4.00000000       0.00002750      -0.00941175       0.01328190
O       12.18849606       4.34737676       4.38161388       4.00000000       0.00001512      -0.00929950       0.01331278
O        9.53524840       9.26258981       4.38161388       4.00000000       0.00057519      -0.00870272       0.01227537
O       15.41465478       9.26258981       4.38161388       4.00000000      -0.00048287      -0.00914186       0.01319697
O        9.53524840       6.08886751       8.97797431       4.00000000       0.01003881      -0.01012838       0.01540377
O       15.41465478       6.08886751       8.97797431       4.00000000       0.01476311      -0.00898476       0.01177029
O       12.76140712      11.00408056       8.97797431       4.00000000      -0.00021229      -0.00750864       0.01278224
O       18.64081350      11.00408056       8.97797431       4.00000000      -0.00026530      -0.00898836       0.01334294
O        5.23535984       1.53576173       3.44727032       4.00000000       0.00696726      -0.01397292      -0.00291951
O       11.11476623       1.53576173       3.44727032       4.00000000       0.00804058      -0.01448755       0.00016483
O        8.46151857       6.45097478       3.44727032       4.00000000       0.00820506      -0.01365821       0.00108973
O       14.34092495       6.45097478       3.44727032       4.00000000       0.00705633      -0.01453712       0.00014391
O        8.46151857       3.27725249       8.04363076       4.00000000       0.00976152      -0.01315627       0.00150192
O       14.34092495       3.27725249       8.04363076       4.00000000       0.00605103      -0.01337914       0.00082021
O       11.68767729       8.19246553       8.04363076       4.00000000       0.00188762      -0.00566783      -0.00710731
O       17.56708367       8.19246553       8.04363076       4.00000000       0.00818204      -0.01363543      -0.00044681
