20
Lattice="5.7467219905351605 -7.4263080642317065e-59 -3.5365542006130425e-44 7.075224967847043e-59 5.809954543125644 -7.032725146110985e-16 5.576023444669627e-44 1.0967695148588735e-15 9.060756525000503" Properties=species:S:1:pos:R:3:spacegroup_kinds:I:1:forces:R:3 spacegroup="P 1" unit_cell=conventional occupancy="_JSON {\"0\": {\"In\": 1}, \"1\": {\"In\": 1}, \"2\": {\"In\": 1}, \"3\": {\"In\": 1}, \"4\": {\"In\": 1}, \"5\": {\"In\": 1}, \"6\": {\"In\": 1}, \"7\": {\"In\": 1}, \"8\": {\"O\": 1}, \"9\": {\"O\": 1}, \"10\": {\"O\": 1}, \"11\": {\"O\": 1}, \"12\": {\"O\": 1}, \"13\": {\"O\": 1}, \"14\": {\"O\": 1}, \"15\": {\"O\": 1}, \"16\": {\"O\": 1}, \"17\": {\"O\": 1}, \"18\": {\"O\": 1}, \"19\": {\"O\": 1}}" n_minim_iter=1 energy=-22574.73833893122 stress="0.04472184892891321 6.365103848220032e-13 -1.0972416115900684e-12 6.365103848220032e-13 0.04698169595327591 3.650265417386887e-13 -1.0972416115900684e-12 3.650265417386887e-13 0.05607544651546803" free_energy=-22574.73833893122 pbc="T T T"
In       1.24331276       3.08183526       1.20615163        0      -0.04492938       0.16442440       0.05039209
In       1.63004823       0.17685799       3.32422663        1       0.04492938       0.16442440      -0.05039209
In       1.63004823       2.72811929       5.73652989        2       0.04492938      -0.16442440       0.05039209
In       1.24331276       5.63309656       7.85460490        3      -0.04492938      -0.16442440      -0.05039209
In       4.50340923       2.72811929       7.85460490        4       0.04492938      -0.16442440      -0.05039209
In       4.11667376       5.63309656       5.73652989        5      -0.04492938      -0.16442440       0.05039209
In       4.11667376       3.08183526       3.32422663        6      -0.04492938       0.16442440      -0.05039209
In       4.50340923       0.17685799       1.20615163        7       0.04492938       0.16442440       0.05039209
O        2.38456938       3.74989798       7.56005161        8      -0.07528636      -0.01395044      -0.13552071
O        0.48879161       0.84492070       6.03108318        9       0.07528636      -0.01395044       0.13552071
O        0.48879161       2.06005657       3.02967334       10       0.07528636       0.01395044      -0.13552071
O        2.38456938       4.96503384       1.50070492       11      -0.07528636       0.01395044       0.13552071
O        3.36215261       2.06005657       1.50070492       12       0.07528636       0.01395044       0.13552071
O        5.25793038       4.96503384       3.02967334       13      -0.07528636       0.01395044      -0.13552071
O        5.25793038       3.74989798       6.03108318       14      -0.07528636      -0.01395044       0.13552071
O        3.36215261       0.84492070       7.56005161       15       0.07528636      -0.01395044      -0.13552071
O        5.49295548       4.35746591      -0.00000000       16      -0.01483198      -0.00000000      -0.00000000
O        3.12712750       1.45248864       4.53037826       17       0.01483198       0.00000000      -0.00000000
O        0.25376651       1.45248864      -0.00000000       18       0.01483198       0.00000000       0.00000000
O        2.61959449       4.35746591       4.53037826       19      -0.01483198      -0.00000000      -0.00000000
20
Lattice="5.767881190061865 -8.665894158210308e-59 -8.978329904418534e-44 6.700045165268213e-59 5.820683437689239 -7.011577433265758e-16 -3.967983807881292e-45 1.095734861705414e-15 9.010877720547013" Properties=species:S:1:pos:R:3:spacegroup_kinds:I:1:forces:R:3 spacegroup="P 1" unit_cell=conventional occupancy="_JSON {\"0\": {\"In\": 1}, \"1\": {\"In\": 1}, \"2\": {\"In\": 1}, \"3\": {\"In\": 1}, \"4\": {\"In\": 1}, \"5\": {\"In\": 1}, \"6\": {\"In\": 1}, \"7\": {\"In\": 1}, \"8\": {\"O\": 1}, \"9\": {\"O\": 1}, \"10\": {\"O\": 1}, \"11\": {\"O\": 1}, \"12\": {\"O\": 1}, \"13\": {\"O\": 1}, \"14\": {\"O\": 1}, \"15\": {\"O\": 1}, \"16\": {\"O\": 1}, \"17\": {\"O\": 1}, \"18\": {\"O\": 1}, \"19\": {\"O\": 1}}" n_minim_iter=2 energy=-22574.748824543432 stress="0.045513512907697784 -4.66309482497553e-13 -2.783815199611302e-13 -4.66309482497553e-13 0.04775981392361611 -1.2219206904199582e-12 -2.783815199611302e-13 -1.2219206904199582e-12 0.046725855479555815" free_energy=-22574.748824543432 pbc="T T T"
In       1.24776987       3.08796730       1.19964602        0      -0.02476223       0.17936610       0.09669368
In       1.63617073       0.17762559       3.30579284        1       0.02476223       0.17936610      -0.09669368
In       1.63617073       2.73271613       5.70508488        2       0.02476223      -0.17936610       0.09669368
In       1.24776987       5.64305785       7.81123170        3      -0.02476223      -0.17936610      -0.09669368
In       4.52011133       2.73271613       7.81123170        4       0.02476223      -0.17936610      -0.09669368
In       4.13171046       5.64305785       5.70508488        5      -0.02476223      -0.17936610       0.09669368
In       4.13171046       3.08796730       3.30579284        6      -0.02476223       0.17936610      -0.09669368
In       4.52011133       0.17762559       1.19964602        7       0.02476223       0.17936610       0.09669368
O        2.39314698       3.75678527       7.51807326        8      -0.07625638       0.03847747      -0.10459219
O        0.49079362       0.84644355       5.99824332        9       0.07625638       0.03847747       0.10459219
O        0.49079362       2.06389817       3.01263440       10       0.07625638      -0.03847747      -0.10459219
O        2.39314698       4.97423989       1.49280446       11      -0.07625638      -0.03847747       0.10459219
O        3.37473421       2.06389817       1.49280446       12       0.07625638      -0.03847747       0.10459219
O        5.27708757       4.97423989       3.01263440       13      -0.07625638      -0.03847747      -0.10459219
O        5.27708757       3.75678527       5.99824332       14      -0.07625638       0.03847747       0.10459219
O        3.37473421       0.84644355       7.51807326       15       0.07625638       0.03847747      -0.10459219
O        5.51314047       4.36551258      -0.00000000       16      -0.03177312       0.00000000       0.00000000
O        3.13868131       1.45517086       4.50543886       17       0.03177312       0.00000000       0.00000000
O        0.25474072       1.45517086      -0.00000000       18       0.03177312      -0.00000000      -0.00000000
O        2.62919988       4.36551258       4.50543886       19      -0.03177312      -0.00000000      -0.00000000
20
Lattice="5.784777333868397 -8.733625054349518e-59 -9.219353344469478e-44 6.7587687351190585e-59 5.806161296112295 -7.023213742262873e-16 7.74129975081802e-45 1.090675154499169e-15 9.007030625625564" Properties=species:S:1:pos:R:3:spacegroup_kinds:I:1:forces:R:3 spacegroup="P 1" unit_cell=conventional occupancy="_JSON {\"0\": {\"In\": 1}, \"1\": {\"In\": 1}, \"2\": {\"In\": 1}, \"3\": {\"In\": 1}, \"4\": {\"In\": 1}, \"5\": {\"In\": 1}, \"6\": {\"In\": 1}, \"7\": {\"In\": 1}, \"8\": {\"O\": 1}, \"9\": {\"O\": 1}, \"10\": {\"O\": 1}, \"11\": {\"O\": 1}, \"12\": {\"O\": 1}, \"13\": {\"O\": 1}, \"14\": {\"O\": 1}, \"15\": {\"O\": 1}, \"16\": {\"O\": 1}, \"17\": {\"O\": 1}, \"18\": {\"O\": 1}, \"19\": {\"O\": 1}}" n_minim_iter=3 energy=-22574.751697887696 stress="0.04847081084105191 6.654916338046751e-13 -1.4752865900313372e-12 6.654916338046751e-13 0.0439759167018717 4.354979390037789e-13 -1.4752865900313372e-12 4.354979390037789e-13 0.046011279255147274" free_energy=-22574.751697887696 pbc="T T T"
In       1.25122259       3.08169392       1.19989030        0      -0.03743359       0.17517448       0.08894602
In       1.64116608       0.17861327       3.30362501        1       0.03743359       0.17517448      -0.08894602
In       1.64116608       2.72446738       5.70340562        2       0.03743359      -0.17517448       0.08894602
In       1.25122259       5.62754803       7.80714032        3      -0.03743359      -0.17517448      -0.08894602
In       4.53355475       2.72446738       7.80714032        4       0.03743359      -0.17517448      -0.08894602
In       4.14361125       5.62754803       5.70340562        5      -0.03743359      -0.17517448       0.08894602
In       4.14361125       3.08169392       3.30362501        6      -0.03743359       0.17517448      -0.08894602
In       4.53355475       0.17861327       1.19989030        7       0.03743359       0.17517448       0.08894602
O        2.39954274       3.74771251       7.51403408        8      -0.07104343       0.05925060      -0.08769914
O        0.49284593       0.84463186       5.99651186        9       0.07104343       0.05925060       0.08769914
O        0.49284593       2.05844878       3.01051876       10       0.07104343      -0.05925060      -0.08769914
O        2.39954274       4.96152943       1.49299655       11      -0.07104343      -0.05925060       0.08769914
O        3.38523459       2.05844878       1.49299655       12       0.07104343      -0.05925060       0.08769914
O        5.29193141       4.96152943       3.01051876       13      -0.07104343      -0.05925060      -0.08769914
O        5.29193141       3.74771251       5.99651186       14      -0.07104343       0.05925060       0.08769914
O        3.38523459       0.84463186       7.51403408       15       0.07104343       0.05925060      -0.08769914
O        5.52903662       4.35462097      -0.00000000       16      -0.04210205      -0.00000000       0.00000000
O        3.14812938       1.45154032       4.50351531       17       0.04210205      -0.00000000       0.00000000
O        0.25574071       1.45154032      -0.00000000       18       0.04210205      -0.00000000      -0.00000000
O        2.63664795       4.35462097       4.50351531       19      -0.04210205       0.00000000      -0.00000000
20
Lattice="5.7907494128433425 -1.3996843960569609e-58 -3.2860598936462106e-43 3.537831962899995e-59 5.825325790424722 -7.098245210462e-16 -4.908165638376267e-43 1.077920220592294e-15 8.968140260400844" Properties=species:S:1:pos:R:3:spacegroup_kinds:I:1:forces:R:3 spacegroup="P 1" unit_cell=conventional occupancy="_JSON {\"0\": {\"In\": 1}, \"1\": {\"In\": 1}, \"2\": {\"In\": 1}, \"3\": {\"In\": 1}, \"4\": {\"In\": 1}, \"5\": {\"In\": 1}, \"6\": {\"In\": 1}, \"7\": {\"In\": 1}, \"8\": {\"O\": 1}, \"9\": {\"O\": 1}, \"10\": {\"O\": 1}, \"11\": {\"O\": 1}, \"12\": {\"O\": 1}, \"13\": {\"O\": 1}, \"14\": {\"O\": 1}, \"15\": {\"O\": 1}, \"16\": {\"O\": 1}, \"17\": {\"O\": 1}, \"18\": {\"O\": 1}, \"19\": {\"O\": 1}}" n_minim_iter=4 energy=-22574.77886734985 stress="0.03824433211072767 8.575674254481845e-13 2.8089203307845724e-13 8.575674254481845e-13 0.03818310396559177 -6.235433830063065e-14 2.8089203307845724e-13 -6.235433830063065e-14 0.033037558967505716" free_energy=-22574.77886734985 pbc="T T T"
In       1.24907602       3.11238221       1.20525729        0      -0.12555824       0.08342553      -0.07456424
In       1.64629868       0.19971932       3.27881284        1       0.12555824       0.08342553       0.07456424
In       1.64629868       2.71294358       5.68932742        2       0.12555824      -0.08342553      -0.07456424
In       1.24907602       5.62560647       7.76288297        3      -0.12555824      -0.08342553       0.07456424
In       4.54167339       2.71294358       7.76288297        4       0.12555824      -0.08342553       0.07456424
In       4.14445073       5.62560647       5.68932742        5      -0.12555824      -0.08342553      -0.07456424
In       4.14445073       3.11238221       3.27881284        6      -0.12555824       0.08342553       0.07456424
In       4.54167339       0.19971932       1.20525729        7       0.12555824       0.08342553      -0.07456424
O        2.39334698       3.76522838       7.47032860        8      -0.01302494       0.05477592       0.09515144
O        0.50202773       0.85256549       5.98188179        9       0.01302494       0.05477592      -0.09515144
O        0.50202773       2.06009741       2.98625847       10       0.01302494      -0.05477592       0.09515144
O        2.39334698       4.97276030       1.49781166       11      -0.01302494      -0.05477592      -0.09515144
O        3.39740243       2.06009741       1.49781166       12       0.01302494      -0.05477592      -0.09515144
O        5.28872168       4.97276030       2.98625847       13      -0.01302494      -0.05477592       0.09515144
O        5.28872168       3.76522838       5.98188179       14      -0.01302494       0.05477592      -0.09515144
O        3.39740243       0.85256549       7.47032860       15       0.01302494       0.05477592       0.09515144
O        5.53066853       4.36899434      -0.00000000       16      -0.06929474      -0.00000000      -0.00000000
O        3.15545559       1.45633145       4.48407013       17       0.06929474      -0.00000000      -0.00000000
O        0.26008088       1.45633145      -0.00000000       18       0.06929474      -0.00000000       0.00000000
O        2.63529382       4.36899434       4.48407013       19      -0.06929474      -0.00000000      -0.00000000
20
Lattice="5.784745170463283 -1.3365238811625258e-58 -3.007111394107591e-43 3.6253736392728367e-59 5.819060000066046 -7.078718709536855e-16 -4.763915381113672e-43 1.0820739861530694e-15 8.987115338232305" Properties=species:S:1:pos:R:3:spacegroup_kinds:I:1:forces:R:3 spacegroup="P 1" unit_cell=conventional occupancy="_JSON {\"0\": {\"In\": 1}, \"1\": {\"In\": 1}, \"2\": {\"In\": 1}, \"3\": {\"In\": 1}, \"4\": {\"In\": 1}, \"5\": {\"In\": 1}, \"6\": {\"In\": 1}, \"7\": {\"In\": 1}, \"8\": {\"O\": 1}, \"9\": {\"O\": 1}, \"10\": {\"O\": 1}, \"11\": {\"O\": 1}, \"12\": {\"O\": 1}, \"13\": {\"O\": 1}, \"14\": {\"O\": 1}, \"15\": {\"O\": 1}, \"16\": {\"O\": 1}, \"17\": {\"O\": 1}, \"18\": {\"O\": 1}, \"19\": {\"O\": 1}}" n_minim_iter=5 energy=-22574.785475203338 stress="0.03578168257378083 -3.3464969299994548e-12 1.8022445009380392e-13 -3.3464969299994548e-12 0.035930141734077374 2.454604979759265e-12 1.8022445009380392e-13 2.454604979759265e-12 0.03617506864110466" free_energy=-22574.785475203338 pbc="T T T"
In       1.24534022       3.11319219       1.20807417        0      -0.13834868       0.04071883      -0.08271567
In       1.64703237       0.20366219       3.28548350        1       0.13834868       0.04071883       0.08271567
In       1.64703237       2.70586781       5.70163184        2       0.13834868      -0.04071883      -0.08271567
In       1.24534022       5.61539781       7.77904117        3      -0.13834868      -0.04071883       0.08271567
In       4.53940495       2.70586781       7.77904117        4       0.13834868      -0.04071883       0.08271567
In       4.13771280       5.61539781       5.70163184        5      -0.13834868      -0.04071883      -0.08271567
In       4.13771280       3.11319219       3.28548350        6      -0.13834868       0.04071883       0.08271567
In       4.53940495       0.20366219       1.20807417        7       0.13834868       0.04071883      -0.08271567
O        2.38939215       3.76241041       7.48559303        8      -0.01807559       0.02352925       0.08297469
O        0.50298043       0.85288041       5.99507998        9       0.01807559       0.02352925      -0.08297469
O        0.50298043       2.05664959       2.99203536       10       0.01807559      -0.02352925       0.08297469
O        2.38939215       4.96617959       1.50152231       11      -0.01807559      -0.02352925      -0.08297469
O        3.39535302       2.05664959       1.50152231       12       0.01807559      -0.02352925      -0.08297469
O        5.28176474       4.96617959       2.99203536       13      -0.01807559      -0.02352925       0.08297469
O        5.28176474       3.76241041       5.99507998       14      -0.01807559       0.02352925      -0.08297469
O        3.39535302       0.85288041       7.48559303       15       0.01807559       0.02352925       0.08297469
O        5.52343118       4.36429500      -0.00000000       16      -0.06125524      -0.00000000      -0.00000000
O        3.15368657       1.45476500       4.49355767       17       0.06125524      -0.00000000      -0.00000000
O        0.26131399       1.45476500      -0.00000000       18       0.06125524      -0.00000000       0.00000000
O        2.63105860       4.36429500       4.49355767       19      -0.06125524       0.00000000       0.00000000
20
Lattice="5.7818987120954635 -1.3178576264940675e-58 -2.9290722875697205e-43 3.91098282419323e-59 5.806529069444375 -7.040734024856875e-16 -4.3136534961693716e-43 1.088506257223078e-15 9.010944166660845" Properties=species:S:1:pos:R:3:spacegroup_kinds:I:1:forces:R:3 spacegroup="P 1" unit_cell=conventional occupancy="_JSON {\"0\": {\"In\": 1}, \"1\": {\"In\": 1}, \"2\": {\"In\": 1}, \"3\": {\"In\": 1}, \"4\": {\"In\": 1}, \"5\": {\"In\": 1}, \"6\": {\"In\": 1}, \"7\": {\"In\": 1}, \"8\": {\"O\": 1}, \"9\": {\"O\": 1}, \"10\": {\"O\": 1}, \"11\": {\"O\": 1}, \"12\": {\"O\": 1}, \"13\": {\"O\": 1}, \"14\": {\"O\": 1}, \"15\": {\"O\": 1}, \"16\": {\"O\": 1}, \"17\": {\"O\": 1}, \"18\": {\"O\": 1}, \"19\": {\"O\": 1}}" n_minim_iter=6 energy=-22574.799179731344 stress="0.029115462186640774 1.837813575618882e-12 -9.734106915274733e-13 1.837813575618882e-12 0.028690176101425737 -8.792293641786585e-13 -9.734106915274733e-13 -8.792293641786585e-13 0.037757667160451404" free_energy=-22574.799179731344 pbc="T T T"
In       1.22861595       3.12546645       1.20998947        0      -0.16599808      -0.11798620       0.01598203
In       1.66233341       0.22220192       3.29548261        1       0.16599808      -0.11798620      -0.01598203
In       1.66233341       2.68106262       5.71546155        2       0.16599808       0.11798620       0.01598203
In       1.22861595       5.58432715       7.80095470        3      -0.16599808       0.11798620      -0.01598203
In       4.55328276       2.68106262       7.80095470        4       0.16599808       0.11798620      -0.01598203
In       4.11956530       5.58432715       5.71546155        5      -0.16599808       0.11798620       0.01598203
In       4.11956530       3.12546645       3.29548261        6      -0.16599808      -0.11798620      -0.01598203
In       4.55328276       0.22220192       1.20998947        7       0.16599808      -0.11798620       0.01598203
O        2.38075211       3.76049433       7.50603450        8      -0.03537629      -0.03253371       0.01149470
O        0.51019724       0.85722980       6.01038175        9       0.03537629      -0.03253371      -0.01149470
O        0.51019724       2.04603473       3.00056242       10       0.03537629       0.03253371       0.01149470
O        2.38075211       4.94929927       1.50490966       11      -0.03537629       0.03253371      -0.01149470
O        3.40114660       2.04603473       1.50490966       12       0.03537629       0.03253371      -0.01149470
O        5.27170147       4.94929927       3.00056242       13      -0.03537629       0.03253371       0.01149470
O        5.27170147       3.76049433       6.01038175       14      -0.03537629      -0.03253371      -0.01149470
O        3.40114660       0.85722980       7.50603450       15       0.03537629      -0.03253371       0.01149470
O        5.51172546       4.35489680      -0.00000000       16      -0.02571236      -0.00000000      -0.00000000
O        3.16112261       1.45163227       4.50547208       17       0.02571236       0.00000000       0.00000000
O        0.27017325       1.45163227      -0.00000000       18       0.02571236       0.00000000       0.00000000
O        2.62077610       4.35489680       4.50547208       19      -0.02571236      -0.00000000       0.00000000
20
Lattice="5.8042566865534235 -1.2981319332765352e-58 -2.82936584320997e-43 2.994698847147002e-59 5.826107658622575 -7.120975957970946e-16 -5.768842391946843e-43 1.0718697308802024e-15 8.946069480111612" Properties=species:S:1:pos:R:3:spacegroup_kinds:I:1:forces:R:3 spacegroup="P 1" unit_cell=conventional occupancy="_JSON {\"0\": {\"In\": 1}, \"1\": {\"In\": 1}, \"2\": {\"In\": 1}, \"3\": {\"In\": 1}, \"4\": {\"In\": 1}, \"5\": {\"In\": 1}, \"6\": {\"In\": 1}, \"7\": {\"In\": 1}, \"8\": {\"O\": 1}, \"9\": {\"O\": 1}, \"10\": {\"O\": 1}, \"11\": {\"O\": 1}, \"12\": {\"O\": 1}, \"13\": {\"O\": 1}, \"14\": {\"O\": 1}, \"15\": {\"O\": 1}, \"16\": {\"O\": 1}, \"17\": {\"O\": 1}, \"18\": {\"O\": 1}, \"19\": {\"O\": 1}}" n_minim_iter=7 energy=-22574.81965837118 stress="0.02722506283124766 2.112926809302017e-14 -9.205239598342318e-13 2.112926809302017e-14 0.030976284211260186 3.0071963936262687e-12 -9.205239598342318e-13 3.0071963936262687e-12 0.023563989119500542" free_energy=-22574.81965837118 pbc="T T T"
In       1.21328506       3.14171684       1.20021655        0      -0.05082899      -0.07880039       0.19702942
In       1.68884328       0.22866302       3.27281819        1       0.05082899      -0.07880039      -0.19702942
In       1.68884328       2.68439081       5.67325129        2       0.05082899       0.07880039       0.19702943
In       1.21328506       5.59744464       7.74585294        3      -0.05082899       0.07880039      -0.19702942
In       4.59097162       2.68439081       7.74585294        4       0.05082899       0.07880039      -0.19702942
In       4.11541341       5.59744464       5.67325129        5      -0.05082899       0.07880039       0.19702942
In       4.11541341       3.14171684       3.27281819        6      -0.05082899      -0.07880039      -0.19702942
In       4.59097162       0.22866302       1.20021655        7       0.05082899      -0.07880039       0.19702942
O        2.38422571       3.77735827       7.45662271        8      -0.09323443       0.07889796      -0.01517472
O        0.51790263       0.86430444       5.96248152        9       0.09323443       0.07889796       0.01517472
O        0.51790263       2.04874939       2.98358796       10       0.09323443      -0.07889796      -0.01517472
O        2.38422571       4.96180322       1.48944678       11      -0.09323443      -0.07889796       0.01517472
O        3.42003097       2.04874939       1.48944678       12       0.09323443      -0.07889796       0.01517472
O        5.28635406       4.96180322       2.98358796       13      -0.09323443      -0.07889796      -0.01517472
O        5.28635406       3.77735827       5.96248152       14      -0.09323443       0.07889796       0.01517472
O        3.42003097       0.86430444       7.45662271       15       0.09323443       0.07889796      -0.01517472
O        5.52484573       4.36958074      -0.00000000       16      -0.01136231      -0.00000000       0.00000000
O        3.18153930       1.45652691       4.47303474       17       0.01136231      -0.00000000       0.00000000
O        0.27941096       1.45652691      -0.00000000       18       0.01136231      -0.00000000       0.00000000
O        2.62271738       4.36958074       4.47303474       19      -0.01136231      -0.00000000       0.00000000
20
Lattice="5.848117264703251 -1.3147665371080407e-58 -2.9128976677310653e-43 3.2031429349974286e-59 5.799747814942004 -7.102245596117194e-16 -5.492438449068578e-43 1.0665740162949997e-15 8.919329343191881" Properties=species:S:1:pos:R:3:spacegroup_kinds:I:1:forces:R:3 spacegroup="P 1" unit_cell=conventional occupancy="_JSON {\"0\": {\"In\": 1}, \"1\": {\"In\": 1}, \"2\": {\"In\": 1}, \"3\": {\"In\": 1}, \"4\": {\"In\": 1}, \"5\": {\"In\": 1}, \"6\": {\"In\": 1}, \"7\": {\"In\": 1}, \"8\": {\"O\": 1}, \"9\": {\"O\": 1}, \"10\": {\"O\": 1}, \"11\": {\"O\": 1}, \"12\": {\"O\": 1}, \"13\": {\"O\": 1}, \"14\": {\"O\": 1}, \"15\": {\"O\": 1}, \"16\": {\"O\": 1}, \"17\": {\"O\": 1}, \"18\": {\"O\": 1}, \"19\": {\"O\": 1}}" n_minim_iter=8 energy=-22574.837785825443 stress="0.012744224392576789 -1.4156585917491143e-13 1.309856625917429e-13 -1.4156585917491143e-13 0.009128006972525552 -1.1922959757720636e-12 1.309856625917429e-13 -1.1922959757720636e-12 0.009861263796705782" free_energy=-22574.837785825443 pbc="T T T"
In       1.18317655       3.15483376       1.20865427        0       0.04140079      -0.23338890       0.07049976
In       1.74088208       0.25495986       3.25101040        1      -0.04140079      -0.23338890      -0.07049976
In       1.74088208       2.64491405       5.66831895        2      -0.04140079       0.23338890       0.07049976
In       1.18317655       5.54478796       7.71067507        3       0.04140079       0.23338890      -0.07049976
In       4.66494071       2.64491405       7.71067507        4      -0.04140079       0.23338890      -0.07049976
In       4.10723519       5.54478796       5.66831895        5       0.04140079       0.23338890       0.07049976
In       4.10723519       3.15483376       3.25101040        6       0.04140079      -0.23338890      -0.07049976
In       4.66494071       0.25495986       1.20865427        7      -0.04140079      -0.23338890       0.07049976
O        2.38096245       3.77507728       7.43217674        8      -0.19162025       0.10702948       0.09984317
O        0.54309619       0.87520337       5.94681728        9       0.19162025       0.10702948      -0.09984317
O        0.54309619       2.02467053       2.97251206       10       0.19162025      -0.10702948       0.09984317
O        2.38096245       4.92454444       1.48715261       11      -0.19162025      -0.10702948      -0.09984317
O        3.46715482       2.02467053       1.48715261       12       0.19162025      -0.10702948      -0.09984317
O        5.30502108       4.92454444       2.97251206       13      -0.19162025      -0.10702948       0.09984317
O        5.30502108       3.77507728       5.94681728       14      -0.19162025       0.10702948      -0.09984317
O        3.46715482       0.87520337       7.43217674       15       0.19162025       0.10702948       0.09984317
O        5.54818235       4.34981086      -0.00000000       16      -0.03069527       0.00000000       0.00000000
O        3.22399355       1.44993695       4.45966467       17       0.03069527       0.00000000       0.00000000
O        0.29993491       1.44993695      -0.00000000       18       0.03069527      -0.00000000       0.00000000
O        2.62412372       4.34981086       4.45966467       19      -0.03069527       0.00000000       0.00000000
20
Lattice="5.838692005105674 -1.3984288241040236e-58 -3.2935164084558095e-43 3.241372329682468e-59 5.795280065429815 -7.060381227137236e-16 -5.447357464194371e-43 1.0748400131740824e-15 8.940614871056543" Properties=species:S:1:pos:R:3:spacegroup_kinds:I:1:forces:R:3 spacegroup="P 1" unit_cell=conventional occupancy="_JSON {\"0\": {\"In\": 1}, \"1\": {\"In\": 1}, \"2\": {\"In\": 1}, \"3\": {\"In\": 1}, \"4\": {\"In\": 1}, \"5\": {\"In\": 1}, \"6\": {\"In\": 1}, \"7\": {\"In\": 1}, \"8\": {\"O\": 1}, \"9\": {\"O\": 1}, \"10\": {\"O\": 1}, \"11\": {\"O\": 1}, \"12\": {\"O\": 1}, \"13\": {\"O\": 1}, \"14\": {\"O\": 1}, \"15\": {\"O\": 1}, \"16\": {\"O\": 1}, \"17\": {\"O\": 1}, \"18\": {\"O\": 1}, \"19\": {\"O\": 1}}" n_minim_iter=9 energy=-22574.863626996223 stress="0.020767641591892816 1.0889231615665374e-12 3.0082451890163e-13 1.0889231615665374e-12 0.017834886497464543 -5.534564982889177e-13 3.0082451890163e-13 -5.534564982889177e-13 0.020266132688393702" free_energy=-22574.863626996223 pbc="T T T"
In       1.19091299       3.12663468       1.21268307        0       0.04730155       0.00315528      -0.03435118
In       1.72843301       0.22899465       3.25762436        1      -0.04730155       0.00315528       0.03435118
In       1.72843301       2.66864538       5.68299051        2      -0.04730155      -0.00315528      -0.03435118
In       1.19091299       5.56628542       7.72793180        3       0.04730155      -0.00315528       0.03435118
In       4.64777901       2.66864538       7.72793180        4      -0.04730155      -0.00315528       0.03435118
In       4.11025900       5.56628542       5.68299051        5       0.04730155      -0.00315528      -0.03435118
In       4.11025900       3.12663468       3.25762436        6       0.04730155       0.00315528       0.03435118
In       4.64777901       0.22899465       1.21268307        7      -0.04730155       0.00315528      -0.03435118
O        2.37880194       3.76983649       7.45577579        8      -0.15269683       0.19412933       0.07624806
O        0.54054406       0.87219645       5.95514652        9       0.15269683       0.19412933      -0.07624806
O        0.54054406       2.02544358       2.98546835       10       0.15269683      -0.19412933       0.07624806
O        2.37880194       4.92308361       1.48483908       11      -0.15269683      -0.19412933      -0.07624806
O        3.45989006       2.02544358       1.48483908       12       0.15269683      -0.19412933      -0.07624806
O        5.29814794       4.92308361       2.98546835       13      -0.15269683      -0.19412933       0.07624806
O        5.29814794       3.76983649       5.95514652       14      -0.15269683       0.19412933      -0.07624806
O        3.45989006       0.87219645       7.45577579       15       0.15269683       0.19412933       0.07624806
O        5.54511731       4.34646005      -0.00000000       16      -0.01170764      -0.00000000      -0.00000000
O        3.21292070       1.44882002       4.47030744       17       0.01170764       0.00000000       0.00000000
O        0.29357470       1.44882002      -0.00000000       18       0.01170764       0.00000000       0.00000000
O        2.62577131       4.34646005       4.47030744       19      -0.01170764      -0.00000000      -0.00000000
20