20
Lattice="6.143829977494113 4.694612735218095e-58 2.296961643117466e-42 -1.5553380154149213e-58 5.92241880495287 -6.776511819553432e-16 -3.2916983485869846e-42 9.721173586847186e-16 8.881048876003568" Properties=species:S:1:pos:R:3:spacegroup_kinds:I:1:forces:R:3 spacegroup="P 1" unit_cell=conventional occupancy="_JSON {\"0\": {\"In\": 1}, \"1\": {\"In\": 1}, \"2\": {\"In\": 1}, \"3\": {\"In\": 1}, \"4\": {\"In\": 1}, \"5\": {\"In\": 1}, \"6\": {\"In\": 1}, \"7\": {\"In\": 1}, \"8\": {\"O\": 1}, \"9\": {\"O\": 1}, \"10\": {\"O\": 1}, \"11\": {\"O\": 1}, \"12\": {\"O\": 1}, \"13\": {\"O\": 1}, \"14\": {\"O\": 1}, \"15\": {\"O\": 1}, \"16\": {\"O\": 1}, \"17\": {\"O\": 1}, \"18\": {\"O\": 1}, \"19\": {\"O\": 1}}" n_minim_iter=7 energy=-22574.774748159936 stress="0.07548519983453805 6.188239071274293e-13 1.0588121545657103e-12 6.188239071274293e-13 0.07565097663268303 2.0462861515938205e-13 1.0588121545657103e-12 2.0462861515938205e-13 0.07571387290919304" free_energy=-22574.774748159936 pbc="T T T"
In       1.13627672       3.19671655       1.25845728        0      -0.00069021      -0.00563263       0.00180162
In       1.93563827       0.23550715       3.18206715        1       0.00069021      -0.00563263      -0.00180162
In       1.93563827       2.72570225       5.69898172        2       0.00069021       0.00563263       0.00180162
In       1.13627672       5.68691166       7.62259159        3      -0.00069021       0.00563263      -0.00180162
In       5.00755326       2.72570225       7.62259159        4       0.00069021       0.00563263      -0.00180162
In       4.20819171       5.68691166       5.69898172        5      -0.00069021       0.00563263       0.00180162
In       4.20819171       3.19671655       3.18206715        6      -0.00069021      -0.00563263      -0.00180162
In       5.00755326       0.23550715       1.25845728        7       0.00069021      -0.00563263       0.00180162
O        2.36099710       3.99500537       7.42096746        8      -0.00251808      -0.00234980      -0.00148037
O        0.71091789       1.03379597       5.90060586        9       0.00251808      -0.00234980       0.00148037
O        0.71091789       1.92741344       2.98044302       10       0.00251808       0.00234980      -0.00148037
O        2.36099710       4.88862284       1.46008142       11      -0.00251808       0.00234980       0.00148037
O        3.78283288       1.92741344       1.46008142       12       0.00251808       0.00234980       0.00148037
O        5.43291209       4.88862284       2.98044302       13      -0.00251808       0.00234980      -0.00148037
O        5.43291209       3.99500537       5.90060586       14      -0.00251808      -0.00234980       0.00148037
O        3.78283288       1.03379597       7.42096746       15       0.00251808      -0.00234980      -0.00148037
O        5.69153286       4.44181410      -0.00000000       16      -0.00346420      -0.00000000      -0.00000000
O        3.52421211       1.48060470       4.44052444       17       0.00346420       0.00000000       0.00000000
O        0.45229712       1.48060470      -0.00000000       18       0.00346420      -0.00000000      -0.00000000
O        2.61961787       4.44181410       4.44052444       19      -0.00346420       0.00000000      -0.00000000
