20
Lattice="5.453701518539089 4.299818323514384e-58 -3.168387448667596e-42 -7.585130932074183e-59 5.6986835979622725 -1.1812246185521527e-15 8.905734682693433e-43 -1.1652560337294626e-15 7.300502198138265" Properties=species:S:1:pos:R:3:spacegroup_kinds:I:1:forces:R:3 spacegroup="P 1" unit_cell=conventional occupancy="_JSON {\"0\": {\"In\": 1}, \"1\": {\"In\": 1}, \"2\": {\"In\": 1}, \"3\": {\"In\": 1}, \"4\": {\"In\": 1}, \"5\": {\"In\": 1}, \"6\": {\"In\": 1}, \"7\": {\"In\": 1}, \"8\": {\"O\": 1}, \"9\": {\"O\": 1}, \"10\": {\"O\": 1}, \"11\": {\"O\": 1}, \"12\": {\"O\": 1}, \"13\": {\"O\": 1}, \"14\": {\"O\": 1}, \"15\": {\"O\": 1}, \"16\": {\"O\": 1}, \"17\": {\"O\": 1}, \"18\": {\"O\": 1}, \"19\": {\"O\": 1}}" n_minim_iter=18 energy=-22577.373054618954 stress="0.20790412031056288 1.0512615344575988e-12 -4.745460553974869e-13 1.0512615344575988e-12 0.20792806503710953 -1.6802833180571394e-12 -4.745460553974869e-13 -1.6802833180571394e-12 0.20789133187440148" free_energy=-22577.373054618954 pbc="T T T"
In       1.35337848       2.85127926       0.60913111        0       0.00303650       0.00094161       0.00415418
In       1.37347228       0.00193746       3.04111999        1      -0.00303650       0.00094161      -0.00415418
In       1.37347228       2.84740434       4.25938221        2      -0.00303650      -0.00094161       0.00415418
In       1.35337848       5.69674614       6.69137109        3       0.00303650      -0.00094161      -0.00415418
In       4.10032304       2.84740434       6.69137109        4      -0.00303650      -0.00094161      -0.00415418
In       4.08022924       5.69674614       4.25938221        5       0.00303650      -0.00094161       0.00415418
In       4.08022924       2.85127926       3.04111999        6       0.00303650       0.00094161      -0.00415418
In       4.10032304       0.00193746       0.60913111        7      -0.00303650       0.00094161       0.00415418
O        2.23784258       3.26024774       6.06015455        8       0.00306407      -0.00516666       0.00045542
O        0.48900818       0.41090594       4.89059875        9      -0.00306407      -0.00516666      -0.00045542
O        0.48900818       2.43843585       2.40990345       10      -0.00306407       0.00516666       0.00045542
O        2.23784258       5.28777765       1.24034765       11       0.00306407       0.00516666      -0.00045542
O        3.21585894       2.43843585       1.24034765       12      -0.00306407       0.00516666      -0.00045542
O        4.96469334       5.28777765       2.40990345       13       0.00306407       0.00516666       0.00045542
O        4.96469334       3.26024774       4.89059875       14       0.00306407      -0.00516666      -0.00045542
O        3.21585894       0.41090594       6.06015455       15      -0.00306407      -0.00516666       0.00045542
O        5.38914924       4.27401270      -0.00000000       16      -0.00953079      -0.00000000      -0.00000000
O        2.79140304       1.42467090       3.65025110       17       0.00953079       0.00000000       0.00000000
O        0.06455228       1.42467090      -0.00000000       18       0.00953079       0.00000000      -0.00000000
O        2.66229848       4.27401270       3.65025110       19      -0.00953079       0.00000000       0.00000000
