20
Lattice="5.398047619749646 4.255939564661083e-58 -3.136054708455381e-42 -7.507726235875956e-59 5.640529707596999 -1.1691704650299942e-15 8.814853497686994e-43 -1.1533648363207825e-15 7.226002079445277" Properties=species:S:1:pos:R:3:spacegroup_kinds:I:1:forces:R:3 spacegroup="P 1" unit_cell=conventional occupancy="_JSON {\"0\": {\"In\": 1}, \"1\": {\"In\": 1}, \"2\": {\"In\": 1}, \"3\": {\"In\": 1}, \"4\": {\"In\": 1}, \"5\": {\"In\": 1}, \"6\": {\"In\": 1}, \"7\": {\"In\": 1}, \"8\": {\"O\": 1}, \"9\": {\"O\": 1}, \"10\": {\"O\": 1}, \"11\": {\"O\": 1}, \"12\": {\"O\": 1}, \"13\": {\"O\": 1}, \"14\": {\"O\": 1}, \"15\": {\"O\": 1}, \"16\": {\"O\": 1}, \"17\": {\"O\": 1}, \"18\": {\"O\": 1}, \"19\": {\"O\": 1}}" n_minim_iter=18 energy=-22577.373054618954 stress="0.20790412031056288 1.0512615344575988e-12 -4.745460553974869e-13 1.0512615344575988e-12 0.20792806503710953 -1.6802833180571394e-12 -4.745460553974869e-13 -1.6802833180571394e-12 0.20789133187440148" free_energy=-22577.373054618954 pbc="T T T"
In       1.33956753       2.82218254       0.60291506        0       0.00303650       0.00094161       0.00415418
In       1.35945628       0.00191769       3.01008598        1      -0.00303650       0.00094161      -0.00415418
In       1.35945628       2.81834717       4.21591610        2      -0.00303650      -0.00094161       0.00415418
In       1.33956753       5.63861202       6.62308702        3       0.00303650      -0.00094161      -0.00415418
In       4.05848009       2.81834717       6.62308702        4      -0.00303650      -0.00094161      -0.00415418
In       4.03859134       5.63861202       4.21591610        5       0.00303650      -0.00094161       0.00415418
In       4.03859134       2.82218254       3.01008598        6       0.00303650       0.00094161      -0.00415418
In       4.05848009       0.00191769       0.60291506        7      -0.00303650       0.00094161       0.00415418
O        2.21500586       3.22697759       5.99831192        8       0.00306407      -0.00516666       0.00045542
O        0.48401795       0.40671273       4.84069120        9      -0.00306407      -0.00516666      -0.00045542
O        0.48401795       2.41355212       2.38531088       10      -0.00306407       0.00516666       0.00045542
O        2.21500586       5.23381697       1.22769016       11       0.00306407       0.00516666      -0.00045542
O        3.18304176       2.41355212       1.22769016       12      -0.00306407       0.00516666      -0.00045542
O        4.91402967       5.23381697       2.38531088       13       0.00306407       0.00516666       0.00045542
O        4.91402967       3.22697759       4.84069120       14       0.00306407      -0.00516666      -0.00045542
O        3.18304176       0.40671273       5.99831192       15      -0.00306407      -0.00516666       0.00045542
O        5.33415408       4.23039728      -0.00000000       16      -0.00953079      -0.00000000      -0.00000000
O        2.76291734       1.41013243       3.61300104       17       0.00953079       0.00000000       0.00000000
O        0.06389353       1.41013243      -0.00000000       18       0.00953079       0.00000000      -0.00000000
O        2.63513028       4.23039728       3.61300104       19      -0.00953079       0.00000000       0.00000000
