20
Lattice="5.702794030623395 5.810333984431886e-60 -4.123469589272274e-43 -1.1739340788241586e-60 5.818233853136564 6.57484602280585e-17 6.143060794836215e-43 -9.600726927099117e-17 8.495906098517214" Properties=species:S:1:pos:R:3:spacegroup_kinds:I:1:forces:R:3 spacegroup="P 1" unit_cell=conventional occupancy="_JSON {\"0\": {\"In\": 1}, \"1\": {\"In\": 1}, \"2\": {\"In\": 1}, \"3\": {\"In\": 1}, \"4\": {\"In\": 1}, \"5\": {\"In\": 1}, \"6\": {\"In\": 1}, \"7\": {\"In\": 1}, \"8\": {\"O\": 1}, \"9\": {\"O\": 1}, \"10\": {\"O\": 1}, \"11\": {\"O\": 1}, \"12\": {\"O\": 1}, \"13\": {\"O\": 1}, \"14\": {\"O\": 1}, \"15\": {\"O\": 1}, \"16\": {\"O\": 1}, \"17\": {\"O\": 1}, \"18\": {\"O\": 1}, \"19\": {\"O\": 1}}" n_minim_iter=1 energy=-22574.93989646791 stress="0.01586132816913075 2.727435546702596e-13 -1.041718672930389e-12 2.727435546702596e-13 0.018257180783323588 3.1861633753384323e-13 -1.041718672930389e-12 3.1861633753384323e-13 0.015016176471020697" free_energy=-22574.93989646791 pbc="T T T"
In       1.38311823       3.03306420       1.03212533        0      -0.07474522      -0.10531357       0.08427116
In       1.46827878       0.12394728       3.21582772        1       0.07474522      -0.10531357      -0.08427116
In       1.46827878       2.78516965       5.28007838        2       0.07474522       0.10531357       0.08427116
In       1.38311823       5.69428658       7.46378077        3      -0.07474522       0.10531357      -0.08427116
In       4.31967580       2.78516965       7.46378077        4       0.07474522       0.10531357      -0.08427116
In       4.23451525       5.69428658       5.28007838        5      -0.07474522       0.10531357       0.08427116
In       4.23451525       3.03306420       3.21582772        6      -0.07474522      -0.10531357      -0.08427116
In       4.31967580       0.12394728       1.03212533        7       0.07474522      -0.10531357       0.08427116
O        2.23715356       3.55085535       7.22174020        8       0.00890987      -0.02118563      -0.01428555
O        0.61424345       0.64173842       5.52211895        9      -0.00890987      -0.02118563       0.01428555
O        0.61424345       2.26737850       2.97378715       10      -0.00890987       0.02118563      -0.01428555
O        2.23715356       5.17649543       1.27416590       11       0.00890987       0.02118563       0.01428555
O        3.46564047       2.26737850       1.27416590       12      -0.00890987       0.02118563       0.01428555
O        5.08855058       5.17649543       2.97378715       13       0.00890987       0.02118563      -0.01428555
O        5.08855058       3.55085535       5.52211895       14       0.00890987      -0.02118563       0.01428555
O        3.46564047       0.64173842       7.22174020       15      -0.00890987      -0.02118563      -0.01428555
O        5.46930404       4.36367539      -0.00000000       16      -0.08309247       0.00000000       0.00000000
O        3.08488700       1.45455846       4.24795305       17       0.08309247       0.00000000       0.00000000
O        0.23348999       1.45455846      -0.00000000       18       0.08309247       0.00000000       0.00000000
O        2.61790703       4.36367539       4.24795305       19      -0.08309247       0.00000000      -0.00000000
20
Lattice="5.709826213030647 5.792873602833451e-60 -3.480688574555798e-43 -1.140385246319349e-60 5.792228510927865 6.596231189048382e-17 6.184645707067191e-43 -9.557815247112774e-17 8.52353965277347" Properties=species:S:1:pos:R:3:spacegroup_kinds:I:1:forces:R:3 spacegroup="P 1" unit_cell=conventional occupancy="_JSON {\"0\": {\"In\": 1}, \"1\": {\"In\": 1}, \"2\": {\"In\": 1}, \"3\": {\"In\": 1}, \"4\": {\"In\": 1}, \"5\": {\"In\": 1}, \"6\": {\"In\": 1}, \"7\": {\"In\": 1}, \"8\": {\"O\": 1}, \"9\": {\"O\": 1}, \"10\": {\"O\": 1}, \"11\": {\"O\": 1}, \"12\": {\"O\": 1}, \"13\": {\"O\": 1}, \"14\": {\"O\": 1}, \"15\": {\"O\": 1}, \"16\": {\"O\": 1}, \"17\": {\"O\": 1}, \"18\": {\"O\": 1}, \"19\": {\"O\": 1}}" n_minim_iter=2 energy=-22574.942758063564 stress="0.016761511565341652 -1.3465731953839328e-14 -1.6151839067999694e-13 -1.3465731953839328e-14 0.014132974778264643 -6.655424083151563e-13 -1.6151839067999694e-13 -6.655424083151563e-13 0.01542227492653522" free_energy=-22574.942758063564 pbc="T T T"
In       1.38419084       3.01862083       1.03619743        0      -0.06471184      -0.12612069       0.11033653
In       1.47072227       0.12250658       3.22557239        1       0.06471184      -0.12612069      -0.11033653
In       1.47072227       2.77360768       5.29796726        2       0.06471184       0.12612069       0.11033653
In       1.38419084       5.66972194       7.48734222        3      -0.06471184       0.12612069      -0.11033653
In       4.32563537       2.77360768       7.48734222        4       0.06471184       0.12612069      -0.11033653
In       4.23910395       5.66972194       5.29796726        5      -0.06471184       0.12612069       0.11033653
In       4.23910395       3.01862083       3.22557239        6      -0.06471184      -0.12612069      -0.11033653
In       4.32563537       0.12250658       1.03619743        7       0.06471184      -0.12612069       0.11033653
O        2.23998767       3.53480597       7.24510822        8      -0.00095180      -0.02360092      -0.03153055
O        0.61492543       0.63869172       5.54020126        9       0.00095180      -0.02360092       0.03153055
O        0.61492543       2.25742254       2.98333840       10       0.00095180       0.02360092      -0.03153055
O        2.23998767       5.15353680       1.27843143       11      -0.00095180       0.02360092       0.03153055
O        3.46983854       2.25742254       1.27843143       12       0.00095180       0.02360092       0.03153055
O        5.09490078       5.15353680       2.98333840       13      -0.00095180       0.02360092      -0.03153055
O        5.09490078       3.53480597       5.54020126       14      -0.00095180      -0.02360092       0.03153055
O        3.46983854       0.63869172       7.24510822       15       0.00095180      -0.02360092      -0.03153055
O        5.47534469       4.34417138      -0.00000000       16      -0.07027962       0.00000000       0.00000000
O        3.08939463       1.44805713       4.26176983       17       0.07027962       0.00000000      -0.00000000
O        0.23448152       1.44805713      -0.00000000       18       0.07027962      -0.00000000      -0.00000000
O        2.62043158       4.34417138       4.26176983       19      -0.07027962       0.00000000       0.00000000
20
Lattice="5.689363961732152 5.359240851562497e-60 -3.44317690917259e-43 -1.0635008698099067e-60 5.785830558707712 7.35251049891628e-17 6.245535422542401e-43 -8.488254521899986e-17 8.563654443707616" Properties=species:S:1:pos:R:3:spacegroup_kinds:I:1:forces:R:3 spacegroup="P 1" unit_cell=conventional occupancy="_JSON {\"0\": {\"In\": 1}, \"1\": {\"In\": 1}, \"2\": {\"In\": 1}, \"3\": {\"In\": 1}, \"4\": {\"In\": 1}, \"5\": {\"In\": 1}, \"6\": {\"In\": 1}, \"7\": {\"In\": 1}, \"8\": {\"O\": 1}, \"9\": {\"O\": 1}, \"10\": {\"O\": 1}, \"11\": {\"O\": 1}, \"12\": {\"O\": 1}, \"13\": {\"O\": 1}, \"14\": {\"O\": 1}, \"15\": {\"O\": 1}, \"16\": {\"O\": 1}, \"17\": {\"O\": 1}, \"18\": {\"O\": 1}, \"19\": {\"O\": 1}}" n_minim_iter=3 energy=-22574.947983358317 stress="0.012879858349963481 1.0261974156745796e-12 -2.3251883314780076e-12 1.0261974156745796e-12 0.013644641785554471 -8.917193792572694e-13 -2.3251883314780076e-12 -8.917193792572694e-13 0.016150270662962204" free_energy=-22574.947983358317 pbc="T T T"
In       1.37740458       3.01223373       1.04369805        0      -0.06519912      -0.09851017       0.10465720
In       1.46727740       0.11931845       3.23812917        1       0.06519912      -0.09851017      -0.10465720
In       1.46727740       2.77359682       5.32552527        2       0.06519912       0.09851017       0.10465720
In       1.37740458       5.66651210       7.51995639        3      -0.06519912       0.09851017      -0.10465720
In       4.31195939       2.77359682       7.51995639        4       0.06519912       0.09851017      -0.10465720
In       4.22208656       5.66651210       5.32552527        5      -0.06519912       0.09851017       0.10465720
In       4.22208656       3.01223373       3.23812917        6      -0.06519912      -0.09851017      -0.10465720
In       4.31195939       0.11931845       1.04369805        7       0.06519912      -0.09851017       0.10465720
O        2.23205376       3.53031252       7.27857546        8      -0.01141101       0.00047335      -0.06783366
O        0.61262822       0.63739724       5.56690621        9       0.01141101       0.00047335       0.06783366
O        0.61262822       2.25551804       2.99674824       10       0.01141101      -0.00047335      -0.06783366
O        2.23205376       5.14843332       1.28507899       11      -0.01141101      -0.00047335       0.06783366
O        3.45731020       2.25551804       1.28507899       12       0.01141101      -0.00047335       0.06783366
O        5.07673574       5.14843332       2.99674824       13      -0.01141101      -0.00047335      -0.06783366
O        5.07673574       3.53031252       5.56690621       14      -0.01141101       0.00047335       0.06783366
O        3.45731020       0.63739724       7.27857546       15       0.01141101       0.00047335      -0.06783366
O        5.45371686       4.33937292      -0.00000000       16      -0.05355377      -0.00000000       0.00000000
O        3.08032908       1.44645764       4.28182722       17       0.05355377       0.00000000      -0.00000000
O        0.23564710       1.44645764      -0.00000000       18       0.05355377      -0.00000000       0.00000000
O        2.60903488       4.33937292       4.28182722       19      -0.05355377       0.00000000       0.00000000
20
Lattice="5.6922238662130855 4.633562703181436e-60 -3.446892495606896e-43 2.4923695239727474e-60 5.774175195506999 8.351244198324739e-17 1.0025319769921383e-42 -7.029049998770928e-17 8.576629200547256" Properties=species:S:1:pos:R:3:spacegroup_kinds:I:1:forces:R:3 spacegroup="P 1" unit_cell=conventional occupancy="_JSON {\"0\": {\"In\": 1}, \"1\": {\"In\": 1}, \"2\": {\"In\": 1}, \"3\": {\"In\": 1}, \"4\": {\"In\": 1}, \"5\": {\"In\": 1}, \"6\": {\"In\": 1}, \"7\": {\"In\": 1}, \"8\": {\"O\": 1}, \"9\": {\"O\": 1}, \"10\": {\"O\": 1}, \"11\": {\"O\": 1}, \"12\": {\"O\": 1}, \"13\": {\"O\": 1}, \"14\": {\"O\": 1}, \"15\": {\"O\": 1}, \"16\": {\"O\": 1}, \"17\": {\"O\": 1}, \"18\": {\"O\": 1}, \"19\": {\"O\": 1}}" n_minim_iter=4 energy=-22574.95688713867 stress="0.012150949700191186 1.3377463681943437e-13 9.041270460747878e-13 1.3377463681943437e-13 0.011671046672500468 1.1624351172378204e-12 9.041270460747878e-13 1.1624351172378204e-12 0.011973464365347974" free_energy=-22574.95688713867 pbc="T T T"
In       1.37247868       2.99712009       1.05349966        0       0.01330260       0.01843429       0.01967349
In       1.47363325       0.11003249       3.23481494        1      -0.01330260       0.01843429      -0.01967349
In       1.47363325       2.77705510       5.34181426        2      -0.01330260      -0.01843429       0.01967349
In       1.37247868       5.66414270       7.52312954        3       0.01330260      -0.01843429      -0.01967349
In       4.31974518       2.77705510       7.52312954        4      -0.01330260      -0.01843429      -0.01967349
In       4.21859062       5.66414270       5.34181426        5       0.01330260      -0.01843429       0.01967349
In       4.21859062       2.99712009       3.23481494        6       0.01330260       0.01843429      -0.01967349
In       4.31974518       0.11003249       1.05349966        7      -0.01330260       0.01843429       0.01967349
O        2.23320182       3.52182923       7.28680511        8       0.00751973       0.04451019      -0.01629640
O        0.61291011       0.63474163       5.57813869        9      -0.00751973       0.04451019       0.01629640
O        0.61291011       2.25234597       2.99849051       10      -0.00751973      -0.04451019      -0.01629640
O        2.23320182       5.13943357       1.28982409       11       0.00751973      -0.04451019       0.01629640
O        3.45902205       2.25234597       1.28982409       12      -0.00751973      -0.04451019       0.01629640
O        5.07931375       5.13943357       2.99849051       13       0.00751973      -0.04451019      -0.01629640
O        5.07931375       3.52182923       5.57813869       14       0.00751973       0.04451019       0.01629640
O        3.45902205       0.63474163       7.28680511       15      -0.00751973       0.04451019      -0.01629640
O        5.45063469       4.33063140      -0.00000000       16       0.00688492      -0.00000000       0.00000000
O        3.08770110       1.44354380       4.28831460       17      -0.00688492      -0.00000000      -0.00000000
O        0.24158917       1.44354380      -0.00000000       18      -0.00688492      -0.00000000       0.00000000
O        2.60452276       4.33063140       4.28831460       19       0.00688492       0.00000000       0.00000000
20
Lattice="5.6892683454256625 8.311645127301712e-60 -3.896982612098132e-43 8.253858781359503e-60 5.782188812122708 1.0087332844150766e-16 1.0602996147539488e-42 -4.4893867796409765e-17 8.569192032160794" Properties=species:S:1:pos:R:3:spacegroup_kinds:I:1:forces:R:3 spacegroup="P 1" unit_cell=conventional occupancy="_JSON {\"0\": {\"In\": 1}, \"1\": {\"In\": 1}, \"2\": {\"In\": 1}, \"3\": {\"In\": 1}, \"4\": {\"In\": 1}, \"5\": {\"In\": 1}, \"6\": {\"In\": 1}, \"7\": {\"In\": 1}, \"8\": {\"O\": 1}, \"9\": {\"O\": 1}, \"10\": {\"O\": 1}, \"11\": {\"O\": 1}, \"12\": {\"O\": 1}, \"13\": {\"O\": 1}, \"14\": {\"O\": 1}, \"15\": {\"O\": 1}, \"16\": {\"O\": 1}, \"17\": {\"O\": 1}, \"18\": {\"O\": 1}, \"19\": {\"O\": 1}}" n_minim_iter=5 energy=-22574.957524555724 stress="0.0121382458325446 -2.504016636492055e-12 -1.7048133887651362e-12 -2.504016636492055e-12 0.013201621205566038 -3.4554266252314983e-12 -1.7048133887651362e-12 -3.4554266252314983e-12 0.01231630537919289" free_energy=-22574.957524555724 pbc="T T T"
In       1.37297136       3.00319878       1.05228512        0      -0.01177297      -0.00135212       0.01217328
In       1.47166281       0.11210437       3.23231090        1       0.01177297      -0.00135212      -0.01217328
In       1.47166281       2.77899003       5.33688113        2       0.01177297       0.00135212       0.01217328
In       1.37297136       5.67008444       7.51690691        3      -0.01177297       0.00135212      -0.01217328
In       4.31629699       2.77899003       7.51690691        4       0.01177297       0.00135212      -0.01217328
In       4.21760553       5.67008444       5.33688113        5      -0.01177297       0.00135212       0.01217328
In       4.21760553       3.00319878       3.23231090        6      -0.01177297      -0.00135212      -0.01217328
In       4.31629699       0.11210437       1.05228512        7       0.01177297      -0.00135212       0.01217328
O        2.23233082       3.52863955       7.28016303        8       0.00868406       0.03402742      -0.01396659
O        0.61230336       0.63754515       5.57362502        9      -0.00868406       0.03402742       0.01396659
O        0.61230336       2.25354926       2.99556701       10      -0.00868406      -0.03402742      -0.01396659
O        2.23233082       5.14464367       1.28902900       11       0.00868406      -0.03402742       0.01396659
O        3.45693753       2.25354926       1.28902900       12      -0.00868406      -0.03402742       0.01396659
O        5.07696499       5.14464367       2.99556701       13       0.00868406      -0.03402742      -0.01396659
O        5.07696499       3.52863955       5.57362502       14       0.00868406       0.03402742       0.01396659
O        3.45693753       0.63754515       7.28016303       15      -0.00868406       0.03402742      -0.01396659
O        5.44880800       4.33664161      -0.00000000       16      -0.01098410      -0.00000000       0.00000000
O        3.08509452       1.44554720       4.28459602       17       0.01098410       0.00000000      -0.00000000
O        0.24046035       1.44554720      -0.00000000       18       0.01098410       0.00000000       0.00000000
O        2.60417382       4.33664161       4.28459602       19      -0.01098410      -0.00000000      -0.00000000
20
Lattice="5.682100311575824 -2.7215219998735917e-59 -1.105486345206772e-42 3.885115460800471e-59 5.768344427574599 6.928991284589394e-17 1.064408316456059e-42 -9.125716870894632e-17 8.600594702469772" Properties=species:S:1:pos:R:3:spacegroup_kinds:I:1:forces:R:3 spacegroup="P 1" unit_cell=conventional occupancy="_JSON {\"0\": {\"In\": 1}, \"1\": {\"In\": 1}, \"2\": {\"In\": 1}, \"3\": {\"In\": 1}, \"4\": {\"In\": 1}, \"5\": {\"In\": 1}, \"6\": {\"In\": 1}, \"7\": {\"In\": 1}, \"8\": {\"O\": 1}, \"9\": {\"O\": 1}, \"10\": {\"O\": 1}, \"11\": {\"O\": 1}, \"12\": {\"O\": 1}, \"13\": {\"O\": 1}, \"14\": {\"O\": 1}, \"15\": {\"O\": 1}, \"16\": {\"O\": 1}, \"17\": {\"O\": 1}, \"18\": {\"O\": 1}, \"19\": {\"O\": 1}}" n_minim_iter=6 energy=-22574.960114557613 stress="0.011266244675060615 -9.686581419330713e-13 -5.715602661397472e-13 -9.686581419330713e-13 0.011117693929703942 -6.136840937967988e-15 -5.715602661397472e-13 -6.136840937967988e-15 0.010966109539583529" free_energy=-22574.960114557613 pbc="T T T"
In       1.37048197       2.99552962       1.06187008        0      -0.02237240      -0.02205415      -0.03540247
In       1.47056819       0.11135740       3.23842727        1       0.02237240      -0.02205415       0.03540247
In       1.47056819       2.77281481       5.36216744        2       0.02237240       0.02205415      -0.03540247
In       1.37048197       5.65698703       7.53872462        3      -0.02237240       0.02205415       0.03540247
In       4.31161835       2.77281481       7.53872462        4       0.02237240       0.02205415       0.03540247
In       4.21153212       5.65698703       5.36216744        5      -0.02237240       0.02205415      -0.03540247
In       4.21153212       2.99552962       3.23842727        6      -0.02237240      -0.02205415       0.03540247
In       4.31161835       0.11135740       1.06187008        7       0.02237240      -0.02205415      -0.03540247
O        2.23105318       3.52754120       7.30300619        8       0.00563991       0.02878412      -0.02492882
O        0.60999697       0.64336899       5.59788587        9      -0.00563991       0.02878412       0.02492882
O        0.60999697       2.24080322       3.00270883       10      -0.00563991      -0.02878412      -0.02492882
O        2.23105318       5.12497544       1.29758852       11       0.00563991      -0.02878412       0.02492882
O        3.45104713       2.24080322       1.29758852       12      -0.00563991      -0.02878412       0.02492882
O        5.07210334       5.12497544       3.00270883       13       0.00563991      -0.02878412      -0.02492882
O        5.07210334       3.52754120       5.59788587       14       0.00563991       0.02878412       0.02492882
O        3.45104713       0.64336899       7.30300619       15      -0.00563991       0.02878412      -0.02492882
O        5.44038086       4.32625832      -0.00000000       16      -0.01694099      -0.00000000      -0.00000000
O        3.08276960       1.44208611       4.30029735       17       0.01694099      -0.00000000      -0.00000000
O        0.24171945       1.44208611      -0.00000000       18       0.01694099      -0.00000000       0.00000000
O        2.59933071       4.32625832       4.30029735       19      -0.01694099      -0.00000000       0.00000000
20
Lattice="5.655152883262521 -2.340819922225772e-59 -5.315111078049342e-43 4.090188648962096e-59 5.741323780267074 3.945707364560604e-17 1.4351228417360844e-42 -1.3518057359403508e-16 8.68224772672722" Properties=species:S:1:pos:R:3:spacegroup_kinds:I:1:forces:R:3 spacegroup="P 1" unit_cell=conventional occupancy="_JSON {\"0\": {\"In\": 1}, \"1\": {\"In\": 1}, \"2\": {\"In\": 1}, \"3\": {\"In\": 1}, \"4\": {\"In\": 1}, \"5\": {\"In\": 1}, \"6\": {\"In\": 1}, \"7\": {\"In\": 1}, \"8\": {\"O\": 1}, \"9\": {\"O\": 1}, \"10\": {\"O\": 1}, \"11\": {\"O\": 1}, \"12\": {\"O\": 1}, \"13\": {\"O\": 1}, \"14\": {\"O\": 1}, \"15\": {\"O\": 1}, \"16\": {\"O\": 1}, \"17\": {\"O\": 1}, \"18\": {\"O\": 1}, \"19\": {\"O\": 1}}" n_minim_iter=7 energy=-22574.963256544383 stress="0.008387192916595178 2.047243086855952e-12 1.5920074668280416e-12 2.047243086855952e-12 0.00748523736794416 -7.087771655765697e-14 1.5920074668280416e-12 -7.087771655765697e-14 0.008326690046471338" free_energy=-22574.963256544383 pbc="T T T"
In       1.36072363       2.97865980       1.08369101        0      -0.03415845      -0.05726297      -0.11821412
In       1.46685281       0.10799791       3.25743286        1       0.03415845      -0.05726297       0.11821412
In       1.46685281       2.76266398       5.42481487        2       0.03415845       0.05726297      -0.11821412
In       1.36072363       5.63332587       7.59855672        3      -0.03415845       0.05726297       0.11821412
In       4.29442925       2.76266398       7.59855672        4       0.03415845       0.05726297       0.11821412
In       4.18830007       5.63332587       5.42481487        5      -0.03415845       0.05726297      -0.11821412
In       4.18830007       2.97865980       3.25743286        6      -0.03415845      -0.05726297       0.11821412
In       4.29442925       0.10799791       1.08369101        7       0.03415845      -0.05726297      -0.11821412
O        2.22428087       3.52952141       7.36157296        8      -0.00177371       0.02131553      -0.07759700
O        0.60329557       0.65885952       5.66179863        9       0.00177371       0.02131553       0.07759700
O        0.60329557       2.21180237       3.02044910       10       0.00177371      -0.02131553      -0.07759700
O        2.22428087       5.08246426       1.32067476       11      -0.00177371      -0.02131553       0.07759700
O        3.43087201       2.21180237       1.32067476       12       0.00177371      -0.02131553       0.07759700
O        5.05185731       5.08246426       3.02044910       13      -0.00177371      -0.02131553      -0.07759700
O        5.05185731       3.52952141       5.66179863       14      -0.00177371       0.02131553       0.07759700
O        3.43087201       0.65885952       7.36157296       15       0.00177371       0.02131553      -0.07759700
O        5.40974303       4.30599284      -0.00000000       16      -0.01021724       0.00000000       0.00000000
O        3.07298630       1.43533095       4.34112386       17       0.01021724       0.00000000      -0.00000000
O        0.24540986       1.43533095      -0.00000000       18       0.01021724      -0.00000000       0.00000000
O        2.58216659       4.30599284       4.34112386       19      -0.01021724       0.00000000      -0.00000000
20
Lattice="5.522214599695289 -1.3707604847909268e-59 -6.523104262442111e-43 3.948179083470752e-59 5.654432749597233 -3.5496965296306635e-17 1.0110663434907942e-42 -2.455682789575895e-16 9.027889608067616" Properties=species:S:1:pos:R:3:spacegroup_kinds:I:1:forces:R:3 spacegroup="P 1" unit_cell=conventional occupancy="_JSON {\"0\": {\"In\": 1}, \"1\": {\"In\": 1}, \"2\": {\"In\": 1}, \"3\": {\"In\": 1}, \"4\": {\"In\": 1}, \"5\": {\"In\": 1}, \"6\": {\"In\": 1}, \"7\": {\"In\": 1}, \"8\": {\"O\": 1}, \"9\": {\"O\": 1}, \"10\": {\"O\": 1}, \"11\": {\"O\": 1}, \"12\": {\"O\": 1}, \"13\": {\"O\": 1}, \"14\": {\"O\": 1}, \"15\": {\"O\": 1}, \"16\": {\"O\": 1}, \"17\": {\"O\": 1}, \"18\": {\"O\": 1}, \"19\": {\"O\": 1}}" n_minim_iter=8 energy=-22575.039906377482 stress="0.0010856808559387117 1.144211772036433e-12 -1.1424165454361004e-12 1.144211772036433e-12 0.0009191057795232255 2.0955539515635383e-12 -1.1424165454361004e-12 2.0955539515635383e-12 0.01384967817051765" free_energy=-22575.039906377482 pbc="T T T"
In       1.30921635       2.91360047       1.15908215        0      -0.19694645      -0.09895289      -0.15527570
In       1.45189095       0.08638409       3.35486265        1       0.19694645      -0.09895289       0.15527570
In       1.45189095       2.74083228       5.67302695        2       0.19694645       0.09895289      -0.15527570
In       1.30921635       5.56804866       7.86880746        3      -0.19694645       0.09895289       0.15527570
In       4.21299825       2.74083228       7.86880746        4       0.19694645       0.09895289       0.15527570
In       4.07032365       5.56804866       5.67302695        5      -0.19694645       0.09895289      -0.15527570
In       4.07032365       2.91360047       3.35486265        6      -0.19694645      -0.09895289       0.15527570
In       4.21299825       0.08638409       1.15908215        7       0.19694645      -0.09895289      -0.15527570
O        2.18861342       3.56105930       7.59219617        8       0.03405299      -0.08088198      -0.40483087
O        0.57249388       0.73384292       5.94963824        9      -0.03405299      -0.08088198       0.40483087
O        0.57249388       2.09337345       3.07825137       10      -0.03405299       0.08088198      -0.40483087
O        2.18861342       4.92058983       1.43569344       11       0.03405299       0.08088198       0.40483087
O        3.33360118       2.09337345       1.43569344       12      -0.03405299       0.08088198       0.40483087
O        4.94972072       4.92058983       3.07825137       13       0.03405299       0.08088198      -0.40483087
O        4.94972072       3.56105930       5.94963824       14       0.03405299      -0.08088198       0.40483087
O        3.33360118       0.73384292       7.59219617       15      -0.03405299      -0.08088198      -0.40483087
O        5.26003913       4.24082456      -0.00000000       16       0.13936647      -0.00000000       0.00000000
O        3.02328277       1.41360819       4.51394480       17      -0.13936647       0.00000000       0.00000000
O        0.26217547       1.41360819      -0.00000000       18      -0.13936647       0.00000000      -0.00000000
O        2.49893183       4.24082456       4.51394480       19       0.13936647      -0.00000000       0.00000000
20
Lattice="5.514973706336211 -1.3599575314317936e-59 -8.092805280149162e-43 4.001241583542826e-59 5.650397814221209 -3.556895267036613e-17 8.871652688976912e-43 -2.4539304437971495e-16 9.046198048261274" Properties=species:S:1:pos:R:3:spacegroup_kinds:I:1:forces:R:3 spacegroup="P 1" unit_cell=conventional occupancy="_JSON {\"0\": {\"In\": 1}, \"1\": {\"In\": 1}, \"2\": {\"In\": 1}, \"3\": {\"In\": 1}, \"4\": {\"In\": 1}, \"5\": {\"In\": 1}, \"6\": {\"In\": 1}, \"7\": {\"In\": 1}, \"8\": {\"O\": 1}, \"9\": {\"O\": 1}, \"10\": {\"O\": 1}, \"11\": {\"O\": 1}, \"12\": {\"O\": 1}, \"13\": {\"O\": 1}, \"14\": {\"O\": 1}, \"15\": {\"O\": 1}, \"16\": {\"O\": 1}, \"17\": {\"O\": 1}, \"18\": {\"O\": 1}, \"19\": {\"O\": 1}}" n_minim_iter=9 energy=-22575.041300233876 stress="0.0008187456624358131 1.2799633100659684e-12 1.247320497619246e-12 1.2799633100659684e-12 0.0009853754675944717 4.703685750491242e-12 1.247320497619246e-12 4.703685750491242e-12 0.01563911895696216" free_energy=-22575.041300233876 pbc="T T T"
In       1.30625208       2.91025527       1.16305630        0      -0.20774035      -0.09192559      -0.17129054
In       1.45123477       0.08505636       3.36004272        1       0.20774035      -0.09192559       0.17129054
In       1.45123477       2.74014255       5.68615532        2       0.20774035       0.09192559      -0.17129054
In       1.30625208       5.56534145       7.88314175        3      -0.20774035       0.09192559       0.17129054
In       4.20872162       2.74014255       7.88314175        4       0.20774035       0.09192559       0.17129054
In       4.06373894       5.56534145       5.68615532        5      -0.20774035       0.09192559      -0.17129054
In       4.06373894       2.91025527       3.36004272        6      -0.20774035      -0.09192559       0.17129054
In       4.20872162       0.08505636       1.16305630        7       0.20774035      -0.09192559      -0.17129054
O        2.18673571       3.56350944       7.60371990        8       0.04008618      -0.09684155      -0.39806953
O        0.57075115       0.73831053       5.96557717        9      -0.04008618      -0.09684155       0.39806953
O        0.57075115       2.08688838       3.08062088       10      -0.04008618       0.09684155      -0.39806953
O        2.18673571       4.91208729       1.44247815       11       0.04008618       0.09684155       0.39806953
O        3.32823800       2.08688838       1.44247815       12      -0.04008618       0.09684155       0.39806953
O        4.94422256       4.91208729       3.08062088       13       0.04008618       0.09684155      -0.39806953
O        4.94422256       3.56350944       5.96557717       14       0.04008618      -0.09684155       0.39806953
O        3.32823800       0.73831053       7.60371990       15      -0.04008618      -0.09684155      -0.39806953
O        5.25182790       4.23779836      -0.00000000       16       0.15213235       0.00000000       0.00000000
O        3.02063266       1.41259945       4.52309902       17      -0.15213235      -0.00000000      -0.00000000
O        0.26314580       1.41259945      -0.00000000       18      -0.15213235      -0.00000000      -0.00000000
O        2.49434105       4.23779836       4.52309902       19       0.15213235      -0.00000000      -0.00000000
20