20
Lattice="5.397915541701906 1.3363391049360683e-58 -1.493447370104996e-42 -1.797459772486364e-58 5.434576919210476 -1.6338696859418792e-16 2.139886103177092e-42 2.325297347368776e-16 7.7344034246077715" Properties=species:S:1:pos:R:3:spacegroup_kinds:I:1:forces:R:3 spacegroup="P 1" unit_cell=conventional occupancy="_JSON {\"0\": {\"In\": 1}, \"1\": {\"In\": 1}, \"2\": {\"In\": 1}, \"3\": {\"In\": 1}, \"4\": {\"In\": 1}, \"5\": {\"In\": 1}, \"6\": {\"In\": 1}, \"7\": {\"In\": 1}, \"8\": {\"O\": 1}, \"9\": {\"O\": 1}, \"10\": {\"O\": 1}, \"11\": {\"O\": 1}, \"12\": {\"O\": 1}, \"13\": {\"O\": 1}, \"14\": {\"O\": 1}, \"15\": {\"O\": 1}, \"16\": {\"O\": 1}, \"17\": {\"O\": 1}, \"18\": {\"O\": 1}, \"19\": {\"O\": 1}}" n_minim_iter=1 energy=-22576.456277632977 stress="0.09273074068584407 8.87453204697703e-13 3.4886789349689854e-13 8.87453204697703e-13 0.09120021252462947 -1.4335092630747675e-12 3.4886789349689854e-13 -1.4335092630747675e-12 0.10968955292707779" free_energy=-22576.456277632977 pbc="T T T"
In       1.36516122       2.76885983       0.75968480        0       0.06421363      -0.03785886      -0.03641348
In       1.33379655       0.05157137       3.10751691        1      -0.06421363      -0.03785886       0.03641348
In       1.33379655       2.66571709       4.62688651        2      -0.06421363       0.03785886      -0.03641348
In       1.36516122       5.38300555       6.97471863        3       0.06421363       0.03785886       0.03641348
In       4.03275433       2.66571709       6.97471863        4      -0.06421363       0.03785886       0.03641348
In       4.06411899       5.38300555       4.62688651        5       0.06421363       0.03785886      -0.03641348
In       4.06411899       2.76885983       3.10751691        6       0.06421363      -0.03785886       0.03641348
In       4.03275433       0.05157137       0.75968480        7      -0.06421363      -0.03785886      -0.03641348
O        2.11147795       3.24101843       6.51003993        8      -0.06456020      -0.06770348       0.07752147
O        0.58747982       0.52372997       5.09156521        9       0.06456020      -0.06770348      -0.07752147
O        0.58747982       2.19355849       2.64283821       10       0.06456020       0.06770348       0.07752147
O        2.11147795       4.91084694       1.22436350       11      -0.06456020       0.06770348      -0.07752147
O        3.28643759       2.19355849       1.22436350       12       0.06456020       0.06770348      -0.07752147
O        4.81043572       4.91084694       2.64283821       13      -0.06456020       0.06770348       0.07752147
O        4.81043572       3.24101843       5.09156521       14      -0.06456020      -0.06770348      -0.07752147
O        3.28643759       0.52372997       6.51003993       15       0.06456020      -0.06770348       0.07752147
O        5.24811701       4.07593269      -0.00000000       16       0.01671781      -0.00000000      -0.00000000
O        2.84875630       1.35864423       3.86720171       17      -0.01671781       0.00000000      -0.00000000
O        0.14979853       1.35864423      -0.00000000       18      -0.01671781       0.00000000       0.00000000
O        2.54915924       4.07593269       3.86720171       19       0.01671781      -0.00000000      -0.00000000
20
Lattice="5.418829959300116 1.265002770525889e-58 -1.548045660000897e-42 -1.923997385068668e-58 5.461915698416479 -1.828253991807815e-16 2.0530208044480455e-42 2.0823276327752446e-16 7.665987912064697" Properties=species:S:1:pos:R:3:spacegroup_kinds:I:1:forces:R:3 spacegroup="P 1" unit_cell=conventional occupancy="_JSON {\"0\": {\"In\": 1}, \"1\": {\"In\": 1}, \"2\": {\"In\": 1}, \"3\": {\"In\": 1}, \"4\": {\"In\": 1}, \"5\": {\"In\": 1}, \"6\": {\"In\": 1}, \"7\": {\"In\": 1}, \"8\": {\"O\": 1}, \"9\": {\"O\": 1}, \"10\": {\"O\": 1}, \"11\": {\"O\": 1}, \"12\": {\"O\": 1}, \"13\": {\"O\": 1}, \"14\": {\"O\": 1}, \"15\": {\"O\": 1}, \"16\": {\"O\": 1}, \"17\": {\"O\": 1}, \"18\": {\"O\": 1}, \"19\": {\"O\": 1}}" n_minim_iter=2 energy=-22576.47627960409 stress="0.10480329003227438 1.9810606715807003e-12 -9.664891073655838e-14 1.9810606715807003e-12 0.10100621579770645 -1.228193202354916e-12 -9.664891073655838e-14 -1.228193202354916e-12 0.10312971621861813" free_energy=-22576.47627960409 pbc="T T T"
In       1.37066422       2.78266255       0.75284531        0       0.08205639      -0.11925662      -0.17485212
In       1.33875076       0.05170471       3.08014864        1      -0.08205639      -0.11925662       0.17485212
In       1.33875076       2.67925314       4.58583927        2      -0.08205639       0.11925662      -0.17485212
In       1.37066422       5.41021099       6.91314260        3       0.08205639       0.11925662       0.17485212
In       4.04816574       2.67925314       6.91314260        4      -0.08205639       0.11925662       0.17485212
In       4.08007920       5.41021099       4.58583927        5       0.08205639       0.11925662      -0.17485212
In       4.08007920       2.78266255       3.08014864        6       0.08205639      -0.11925662       0.17485212
In       4.04816574       0.05170471       0.75284531        7      -0.08205639      -0.11925662      -0.17485212
O        2.11944416       3.25709696       6.45270930        8       0.00440536      -0.14053032       0.12624476
O        0.58997082       0.52613911       5.04627257        9      -0.00440536      -0.14053032      -0.12624476
O        0.58997082       2.20481874       2.61971534       10      -0.00440536       0.14053032       0.12624476
O        2.11944416       4.93577659       1.21327862       11       0.00440536       0.14053032      -0.12624476
O        3.29938580       2.20481874       1.21327862       12      -0.00440536       0.14053032      -0.12624476
O        4.82885914       4.93577659       2.61971534       13       0.00440536       0.14053032       0.12624476
O        4.82885914       3.25709696       5.04627257       14       0.00440536      -0.14053032      -0.12624476
O        3.29938580       0.52613911       6.45270930       15      -0.00440536      -0.14053032       0.12624476
O        5.26850665       4.09643677      -0.00000000       16       0.00081352      -0.00000000       0.00000000
O        2.85973829       1.36547892       3.83299396       17      -0.00081352       0.00000000       0.00000000
O        0.15032331       1.36547892      -0.00000000       18      -0.00081352       0.00000000      -0.00000000
O        2.55909167       4.09643677       3.83299396       19       0.00081352      -0.00000000       0.00000000
20
Lattice="5.4088875817382265 1.3092114528888913e-58 -1.5534430029405632e-42 -1.922880137164053e-58 5.477636048517561 -2.016698877933377e-16 2.0433471955120194e-42 1.8210665285797492e-16 7.658038016663224" Properties=species:S:1:pos:R:3:spacegroup_kinds:I:1:forces:R:3 spacegroup="P 1" unit_cell=conventional occupancy="_JSON {\"0\": {\"In\": 1}, \"1\": {\"In\": 1}, \"2\": {\"In\": 1}, \"3\": {\"In\": 1}, \"4\": {\"In\": 1}, \"5\": {\"In\": 1}, \"6\": {\"In\": 1}, \"7\": {\"In\": 1}, \"8\": {\"O\": 1}, \"9\": {\"O\": 1}, \"10\": {\"O\": 1}, \"11\": {\"O\": 1}, \"12\": {\"O\": 1}, \"13\": {\"O\": 1}, \"14\": {\"O\": 1}, \"15\": {\"O\": 1}, \"16\": {\"O\": 1}, \"17\": {\"O\": 1}, \"18\": {\"O\": 1}, \"19\": {\"O\": 1}}" n_minim_iter=3 energy=-22576.479239876768 stress="0.10013156357007404 2.864002663134383e-12 -1.6080651069818713e-12 2.864002663134383e-12 0.1066967498088395 -2.2704708415529255e-12 -1.6080651069818713e-12 -2.2704708415529255e-12 0.10346983768145193" free_energy=-22576.479239876768 pbc="T T T"
In       1.36861057       2.79001438       0.75113694        0       0.02842554      -0.11001946      -0.18014629
In       1.33583322       0.05119636       3.07788207        1      -0.02842554      -0.11001946       0.18014629
In       1.33583322       2.68762166       4.58015595        2      -0.02842554       0.11001946      -0.18014629
In       1.36861057       5.42643969       6.90690108        3       0.02842554       0.11001946       0.18014629
In       4.04027701       2.68762166       6.90690108        4      -0.02842554       0.11001946       0.18014629
In       4.07305437       5.42643969       4.58015595        5       0.02842554       0.11001946      -0.18014629
In       4.07305437       2.79001438       3.07788207        6       0.02842554      -0.11001946       0.18014629
In       4.04027701       0.05119636       0.75113694        7      -0.02842554      -0.11001946      -0.18014629
O        2.11555845       3.26568963       6.44670357        8       0.01329542      -0.15675190       0.09349469
O        0.58888534       0.52687161       5.04035345        9      -0.01329542      -0.15675190      -0.09349469
O        0.58888534       2.21194642       2.61768457       10      -0.01329542       0.15675190       0.09349469
O        2.11555845       4.95076444       1.21133444       11       0.01329542       0.15675190      -0.09349469
O        3.29332913       2.21194642       1.21133444       12      -0.01329542       0.15675190      -0.09349469
O        4.82000224       4.95076444       2.61768457       13       0.01329542       0.15675190       0.09349469
O        4.82000224       3.26568963       5.04035345       14       0.01329542      -0.15675190      -0.09349469
O        3.29332913       0.52687161       6.44670357       15      -0.01329542      -0.15675190       0.09349469
O        5.25884980       4.10822704      -0.00000000       16       0.00801589      -0.00000000       0.00000000
O        2.85448157       1.36940901       3.82901901       17      -0.00801589      -0.00000000       0.00000000
O        0.15003778       1.36940901      -0.00000000       18      -0.00801589       0.00000000       0.00000000
O        2.55440601       4.10822704       3.82901901       19       0.00801589       0.00000000      -0.00000000
20
Lattice="5.4247055940076105 1.1637432730750981e-58 -1.4766050937275464e-42 -1.8854375890762562e-58 5.486328705053451 -2.007632359992666e-16 1.8839174426817856e-42 1.8239564441786878e-16 7.623609605050331" Properties=species:S:1:pos:R:3:spacegroup_kinds:I:1:forces:R:3 spacegroup="P 1" unit_cell=conventional occupancy="_JSON {\"0\": {\"In\": 1}, \"1\": {\"In\": 1}, \"2\": {\"In\": 1}, \"3\": {\"In\": 1}, \"4\": {\"In\": 1}, \"5\": {\"In\": 1}, \"6\": {\"In\": 1}, \"7\": {\"In\": 1}, \"8\": {\"O\": 1}, \"9\": {\"O\": 1}, \"10\": {\"O\": 1}, \"11\": {\"O\": 1}, \"12\": {\"O\": 1}, \"13\": {\"O\": 1}, \"14\": {\"O\": 1}, \"15\": {\"O\": 1}, \"16\": {\"O\": 1}, \"17\": {\"O\": 1}, \"18\": {\"O\": 1}, \"19\": {\"O\": 1}}" n_minim_iter=4 energy=-22576.49385289211 stress="0.1081309312492921 -3.672080424277216e-13 1.8301862379044236e-12 -3.672080424277216e-13 0.10808890753511666 7.49518415733803e-14 1.8301862379044236e-12 7.49518415733803e-14 0.10375010190210021" free_energy=-22576.49385289211 pbc="T T T"
In       1.37498843       2.79004078       0.74131622        0      -0.08188973      -0.09843596      -0.03801561
In       1.33736436       0.04687642       3.07048858        1       0.08188973      -0.09843596       0.03801561
In       1.33736436       2.69628793       4.55312102        2       0.08188973       0.09843596      -0.03801561
In       1.37498843       5.43945228       6.88229338        3      -0.08188973       0.09843596       0.03801561
In       4.04971716       2.69628793       6.88229338        4       0.08188973       0.09843596       0.03801561
In       4.08734123       5.43945228       4.55312102        5      -0.08188973       0.09843596      -0.03801561
In       4.08734123       2.79004078       3.07048858        6      -0.08188973      -0.09843596       0.03801561
In       4.04971716       0.04687642       0.74131622        7       0.08188973      -0.09843596      -0.03801561
O        2.12195057       3.26525906       6.42192998        8       0.03759283      -0.16337149      -0.06403563
O        0.59040222       0.52209471       5.01348443        9      -0.03759283      -0.16337149       0.06403563
O        0.59040222       2.22106964       2.61012518       10      -0.03759283       0.16337149      -0.06403563
O        2.12195057       4.96423400       1.20167963       11       0.03759283       0.16337149       0.06403563
O        3.30275502       2.22106964       1.20167963       12      -0.03759283       0.16337149       0.06403563
O        4.83430337       4.96423400       2.61012518       13       0.03759283       0.16337149      -0.06403563
O        4.83430337       3.26525906       5.01348443       14       0.03759283      -0.16337149       0.06403563
O        3.30275502       0.52209471       6.42192998       15      -0.03759283      -0.16337149      -0.06403563
O        5.27438599       4.11474653      -0.00000000       16       0.04999562      -0.00000000      -0.00000000
O        2.86267240       1.37158218       3.81180480       17      -0.04999562       0.00000000       0.00000000
O        0.15031961       1.37158218      -0.00000000       18      -0.04999562      -0.00000000      -0.00000000
O        2.56203319       4.11474653       3.81180480       19       0.04999562       0.00000000      -0.00000000
20
Lattice="5.422846129631958 9.748691062102268e-59 -1.8587577932358817e-42 -1.4743073651804843e-58 5.492946106111333 -1.2667333037820973e-16 1.2009696908411095e-42 2.8794444893274613e-16 7.617036319665235" Properties=species:S:1:pos:R:3:spacegroup_kinds:I:1:forces:R:3 spacegroup="P 1" unit_cell=conventional occupancy="_JSON {\"0\": {\"In\": 1}, \"1\": {\"In\": 1}, \"2\": {\"In\": 1}, \"3\": {\"In\": 1}, \"4\": {\"In\": 1}, \"5\": {\"In\": 1}, \"6\": {\"In\": 1}, \"7\": {\"In\": 1}, \"8\": {\"O\": 1}, \"9\": {\"O\": 1}, \"10\": {\"O\": 1}, \"11\": {\"O\": 1}, \"12\": {\"O\": 1}, \"13\": {\"O\": 1}, \"14\": {\"O\": 1}, \"15\": {\"O\": 1}, \"16\": {\"O\": 1}, \"17\": {\"O\": 1}, \"18\": {\"O\": 1}, \"19\": {\"O\": 1}}" n_minim_iter=5 energy=-22576.507390485895 stress="0.10821062460778096 -3.46044451865907e-13 -3.643180233316842e-12 -3.46044451865907e-13 0.10567151320153484 -6.75838802107954e-13 -3.643180233316842e-12 -6.75838802107954e-13 0.11516088703153962" free_energy=-22576.507390485895 pbc="T T T"
In       1.37396794       2.78388695       0.73183400        0      -0.14094588       0.04722887       0.14188388
In       1.33745512       0.03741390       3.07668416        1       0.14094588       0.04722887      -0.14188388
In       1.33745512       2.70905915       4.54035216        2       0.14094588      -0.04722887       0.14188388
In       1.37396794       5.45553220       6.88520232        3      -0.14094588      -0.04722887      -0.14188388
In       4.04887819       2.70905915       6.88520232        4       0.14094588      -0.04722887      -0.14188388
In       4.08539101       5.45553220       4.54035216        5      -0.14094588      -0.04722887       0.14188388
In       4.08539101       2.78388695       3.07668416        6      -0.14094588       0.04722887      -0.14188388
In       4.04887819       0.03741390       0.73183400        7       0.14094588       0.04722887       0.14188388
O        2.12251744       3.25514744       6.41882553        8       0.08244494      -0.10036862      -0.22678687
O        0.58890563       0.50867439       5.00672895        9      -0.08244494      -0.10036862       0.22678687
O        0.58890563       2.23779867       2.61030737       10      -0.08244494       0.10036861      -0.22678687
O        2.12251744       4.98427172       1.19821079       11       0.08244494       0.10036862       0.22678687
O        3.30032869       2.23779867       1.19821079       12      -0.08244494       0.10036861       0.22678687
O        4.83394050       4.98427172       2.61030737       13       0.08244494       0.10036862      -0.22678687
O        4.83394050       3.25514744       5.00672895       14       0.08244494      -0.10036862       0.22678687
O        3.30032869       0.50867439       6.41882553       15      -0.08244494      -0.10036862      -0.22678687
O        5.27514937       4.11970958      -0.00000000       16       0.17912556      -0.00000000       0.00000000
O        2.85911983       1.37323653       3.80851816       17      -0.17912556      -0.00000000       0.00000000
O        0.14769676       1.37323653      -0.00000000       18      -0.17912556       0.00000000       0.00000000
O        2.56372630       4.11970958       3.80851816       19       0.17912556       0.00000000      -0.00000000
20
Lattice="5.443068297888828 7.305186150434325e-59 -2.0201646904864347e-42 -6.5757382110806955e-59 5.635034420545066 -1.1317092824143263e-17 2.0915301197295754e-42 4.507851552112629e-16 7.397386138712167" Properties=species:S:1:pos:R:3:spacegroup_kinds:I:1:forces:R:3 spacegroup="P 1" unit_cell=conventional occupancy="_JSON {\"0\": {\"In\": 1}, \"1\": {\"In\": 1}, \"2\": {\"In\": 1}, \"3\": {\"In\": 1}, \"4\": {\"In\": 1}, \"5\": {\"In\": 1}, \"6\": {\"In\": 1}, \"7\": {\"In\": 1}, \"8\": {\"O\": 1}, \"9\": {\"O\": 1}, \"10\": {\"O\": 1}, \"11\": {\"O\": 1}, \"12\": {\"O\": 1}, \"13\": {\"O\": 1}, \"14\": {\"O\": 1}, \"15\": {\"O\": 1}, \"16\": {\"O\": 1}, \"17\": {\"O\": 1}, \"18\": {\"O\": 1}, \"19\": {\"O\": 1}}" n_minim_iter=6 energy=-22576.654322126575 stress="0.15865858940263922 2.8242068034278178e-12 1.8286968530499776e-12 2.8242068034278178e-12 0.16641309321947417 3.4543484299479093e-12 1.8286968530499776e-12 3.4543484299479093e-12 0.1678032575585861" free_energy=-22576.654322126575 pbc="T T T"
In       1.36337053       2.81804765       0.68312245        0      -0.07303012       0.44845872      -0.27936313
In       1.35816361       0.00053044       3.01557062        1       0.07303012       0.44845872       0.27936313
In       1.35816361       2.81698677       4.38181552        2       0.07303012      -0.44845872      -0.27936313
In       1.36337053       5.63450398       6.71426369        3      -0.07303012      -0.44845872       0.27936313
In       4.07969776       2.81698677       6.71426369        4       0.07303012      -0.44845872       0.27936313
In       4.08490468       5.63450398       4.38181552        5      -0.07303012      -0.44845872      -0.27936313
In       4.08490468       2.81804765       3.01557062        6      -0.07303012       0.44845872       0.27936313
In       4.07969776       0.00053044       0.68312245        7       0.07303012       0.44845872      -0.27936313
O        2.14612536       3.26787220       6.22478789        8       0.76639594       0.14991773      -0.49532386
O        0.57540878       0.45035499       4.87129132        9      -0.76639594       0.14991773       0.49532386
O        0.57540878       2.36716222       2.52609482       10      -0.76639594      -0.14991773      -0.49532386
O        2.14612536       5.18467943       1.17259825       11       0.76639594      -0.14991773       0.49532386
O        3.29694293       2.36716222       1.17259825       12      -0.76639594      -0.14991773       0.49532386
O        4.86765951       5.18467943       2.52609482       13       0.76639594      -0.14991773      -0.49532386
O        4.86765951       3.26787220       4.87129132       14       0.76639594       0.14991773       0.49532386
O        3.29694293       0.45035499       6.22478789       15      -0.76639594       0.14991773      -0.49532386
O        5.32180034       4.22627582      -0.00000000       16       0.45185287      -0.00000000       0.00000000
O        2.84280211       1.40875861       3.69869307       17      -0.45185287       0.00000000       0.00000000
O        0.12126796       1.40875861      -0.00000000       18      -0.45185287       0.00000000       0.00000000
O        2.60026619       4.22627582       3.69869307       19       0.45185287      -0.00000000       0.00000000
20
Lattice="5.448979678842571 5.898205002991988e-59 -2.1602088534476475e-42 -8.591505721139345e-60 5.670101135402214 1.5469047118825775e-16 1.842212903154436e-42 6.92370065280259e-16 7.343661539439078" Properties=species:S:1:pos:R:3:spacegroup_kinds:I:1:forces:R:3 spacegroup="P 1" unit_cell=conventional occupancy="_JSON {\"0\": {\"In\": 1}, \"1\": {\"In\": 1}, \"2\": {\"In\": 1}, \"3\": {\"In\": 1}, \"4\": {\"In\": 1}, \"5\": {\"In\": 1}, \"6\": {\"In\": 1}, \"7\": {\"In\": 1}, \"8\": {\"O\": 1}, \"9\": {\"O\": 1}, \"10\": {\"O\": 1}, \"11\": {\"O\": 1}, \"12\": {\"O\": 1}, \"13\": {\"O\": 1}, \"14\": {\"O\": 1}, \"15\": {\"O\": 1}, \"16\": {\"O\": 1}, \"17\": {\"O\": 1}, \"18\": {\"O\": 1}, \"19\": {\"O\": 1}}" n_minim_iter=7 energy=-22576.673516013198 stress="0.17264648715693043 -1.0858406009255112e-12 -8.455066685415617e-13 -1.0858406009255112e-12 0.18982575612478933 2.996058649593749e-12 -8.455066685415617e-13 2.996058649593749e-12 0.18051394279942698" free_energy=-22576.673516013198 pbc="T T T"
In       1.36061465       2.82733888       0.67127061        0      -0.04229673       0.60041763      -0.41260336
In       1.36387519      -0.00771169       3.00056016        1       0.04229673       0.60041763       0.41260336
In       1.36387519       2.84276226       4.34310138        2       0.04229673      -0.60041763      -0.41260336
In       1.36061465       5.67781282       6.67239093        3      -0.04229673      -0.60041763       0.41260336
In       4.08836503       2.84276226       6.67239093        4       0.04229673      -0.60041763       0.41260336
In       4.08510449       5.67781282       4.34310138        5      -0.04229673      -0.60041763      -0.41260336
In       4.08510449       2.82733888       3.00056016        6      -0.04229673       0.60041763       0.41260336
In       4.08836503      -0.00771169       0.67127061        7       0.04229673       0.60041763      -0.41260336
O        2.15395445       3.27097378       6.17615694        8       0.92074462       0.28993928      -0.52953995
O        0.57053539       0.43592321       4.83933537        9      -0.92074462       0.28993928       0.52953995
O        0.57053539       2.39912735       2.50432617       10      -0.92074462      -0.28993928      -0.52953995
O        2.15395445       5.23417792       1.16750460       11       0.92074462      -0.28993928       0.52953995
O        3.29502523       2.39912735       1.16750460       12      -0.92074462      -0.28993928       0.52953995
O        4.87844428       5.23417792       2.50432617       13       0.92074462      -0.28993928      -0.52953995
O        4.87844428       3.27097378       4.83933537       14       0.92074462       0.28993928       0.52953995
O        3.29502523       0.43592321       6.17615694       15      -0.92074462       0.28993928      -0.52953995
O        5.33524413       4.25257585      -0.00000000       16       0.45293637      -0.00000000      -0.00000000
O        2.83822538       1.41752528       3.67183077       17      -0.45293637      -0.00000000       0.00000000
O        0.11373555       1.41752528      -0.00000000       18      -0.45293637      -0.00000000       0.00000000
O        2.61075429       4.25257585       3.67183077       19       0.45293637       0.00000000       0.00000000
20
Lattice="5.478509334673171 2.5036745257277292e-58 -2.312633695689259e-42 -9.801561991979553e-60 5.723640310422913 -3.22041772560791e-16 1.624357720999871e-42 3.412212071684365e-17 7.2357558846983885" Properties=species:S:1:pos:R:3:spacegroup_kinds:I:1:forces:R:3 spacegroup="P 1" unit_cell=conventional occupancy="_JSON {\"0\": {\"In\": 1}, \"1\": {\"In\": 1}, \"2\": {\"In\": 1}, \"3\": {\"In\": 1}, \"4\": {\"In\": 1}, \"5\": {\"In\": 1}, \"6\": {\"In\": 1}, \"7\": {\"In\": 1}, \"8\": {\"O\": 1}, \"9\": {\"O\": 1}, \"10\": {\"O\": 1}, \"11\": {\"O\": 1}, \"12\": {\"O\": 1}, \"13\": {\"O\": 1}, \"14\": {\"O\": 1}, \"15\": {\"O\": 1}, \"16\": {\"O\": 1}, \"17\": {\"O\": 1}, \"18\": {\"O\": 1}, \"19\": {\"O\": 1}}" n_minim_iter=8 energy=-22576.84558161731 stress="0.21428904641352076 -1.991458687835526e-12 1.3862642292666616e-12 -1.991458687835526e-12 0.24378782085546352 1.2971332775578065e-12 1.3862642292666616e-12 1.2971332775578065e-12 0.19404805551820833" free_energy=-22576.84558161731 pbc="T T T"
In       1.34857777       2.85603347       0.65554807        0       0.67284980       0.41201465      -1.41632877
In       1.39067690      -0.00578668       2.96232988        1      -0.67284980       0.41201465       1.41632877
In       1.39067690       2.86760684       4.27342601        2      -0.67284980      -0.41201465      -1.41632877
In       1.34857777       5.72942699       6.58020782        3       0.67284980      -0.41201465       1.41632877
In       4.12993157       2.86760684       6.58020782        4      -0.67284980      -0.41201465       1.41632877
In       4.08783244       5.72942699       4.27342601        5       0.67284980      -0.41201465      -1.41632877
In       4.08783244       2.85603347       2.96232988        6       0.67284980       0.41201465       1.41632877
In       4.12993157      -0.00578668       0.65554807        7      -0.67284980       0.41201465      -1.41632877
O        2.19638019       3.27448746       6.05573633        8       0.96926138       0.40320186       0.28476183
O        0.54287448       0.41266730       4.79789750        9      -0.96926138       0.40320186      -0.28476183
O        0.54287448       2.44915285       2.43785839       10      -0.96926138      -0.40320186       0.28476183
O        2.19638019       5.31097301       1.18001955       11       0.96926138      -0.40320186      -0.28476183
O        3.28212914       2.44915285       1.18001955       12      -0.96926138      -0.40320186      -0.28476183
O        4.93563486       5.31097301       2.43785839       13       0.96926138      -0.40320186       0.28476183
O        4.93563486       3.27448746       4.79789750       14       0.96926138       0.40320186      -0.28476183
O        3.28212914       0.41266730       6.05573633       15      -0.96926138       0.40320186       0.28476183
O        5.39496816       4.29273023      -0.00000000       16       0.11955373       0.00000000      -0.00000000
O        2.82279584       1.43091008       3.61787794       17      -0.11955373       0.00000000      -0.00000000
O        0.08354117       1.43091008      -0.00000000       18      -0.11955373      -0.00000000      -0.00000000
O        2.65571349       4.29273023       3.61787794       19       0.11955373       0.00000000      -0.00000000
20
Lattice="5.515457186299558 3.902909230594359e-58 -2.326828407032137e-42 2.1056199570517397e-59 5.6635148725824696 -5.677792118681648e-16 1.4954058868972706e-42 -3.0610894547334484e-16 7.263586002941081" Properties=species:S:1:pos:R:3:spacegroup_kinds:I:1:forces:R:3 spacegroup="P 1" unit_cell=conventional occupancy="_JSON {\"0\": {\"In\": 1}, \"1\": {\"In\": 1}, \"2\": {\"In\": 1}, \"3\": {\"In\": 1}, \"4\": {\"In\": 1}, \"5\": {\"In\": 1}, \"6\": {\"In\": 1}, \"7\": {\"In\": 1}, \"8\": {\"O\": 1}, \"9\": {\"O\": 1}, \"10\": {\"O\": 1}, \"11\": {\"O\": 1}, \"12\": {\"O\": 1}, \"13\": {\"O\": 1}, \"14\": {\"O\": 1}, \"15\": {\"O\": 1}, \"16\": {\"O\": 1}, \"17\": {\"O\": 1}, \"18\": {\"O\": 1}, \"19\": {\"O\": 1}}" n_minim_iter=9 energy=-22577.25003486663 stress="0.23961934187634296 -3.56870651844692e-13 2.750511226453491e-12 -3.56870651844692e-13 0.19032914923910646 -2.8106363194257584e-12 2.750511226453491e-12 -2.8106363194257584e-12 0.212618287969852" free_energy=-22577.25003486663 pbc="T T T"
In       1.36253254       2.83990787       0.62733264        0       0.00307501      -0.12404430      -0.34841162
In       1.39519605       0.00815043       3.00446036        1      -0.00307501      -0.12404431       0.34841162
In       1.39519605       2.82360700       4.25912564        2      -0.00307501       0.12404430      -0.34841162
In       1.36253254       5.65536444       6.63625336        3       0.00307501       0.12404430       0.34841162
In       4.15292464       2.82360700       6.63625336        4      -0.00307501       0.12404430       0.34841162
In       4.12026114       5.65536444       4.25912564        5       0.00307501       0.12404430      -0.34841162
In       4.12026114       2.83990787       3.00446036        6       0.00307501      -0.12404430       0.34841162
In       4.15292464       0.00815043       0.62733264        7      -0.00307501      -0.12404430      -0.34841162
O        2.25823576       3.23009873       6.06115624        8       0.11283679       0.23361320      -0.14938176
O        0.49949283       0.39834129       4.83422276        9      -0.11283679       0.23361320       0.14938176
O        0.49949283       2.43341615       2.42936324       10      -0.11283679      -0.23361320      -0.14938176
O        2.25823576       5.26517358       1.20242976       11       0.11283679      -0.23361320       0.14938176
O        3.25722142       2.43341615       1.20242976       12      -0.11283679      -0.23361320       0.14938176
O        5.01596436       5.26517358       2.42936324       13       0.11283679      -0.23361320      -0.14938176
O        5.01596436       3.23009873       4.83422276       14       0.11283679       0.23361320       0.14938176
O        3.25722142       0.39834129       6.06115624       15      -0.11283679       0.23361320      -0.14938176
O        5.46205138       4.24763615      -0.00000000       16      -0.22407133       0.00000000      -0.00000000
O        2.81113440       1.41587872       3.63179300       17       0.22407133       0.00000000      -0.00000000
O        0.05340581       1.41587872      -0.00000000       18       0.22407133       0.00000000       0.00000000
O        2.70432278       4.24763615       3.63179300       19      -0.22407133      -0.00000000       0.00000000
20