20
Lattice="5.7028521729041115 -1.5861213359234707e-59 4.426970850309913e-43 1.0212754664763409e-58 5.765602015428742 -7.225330843404731e-16 5.533456720191396e-44 1.088396901971144e-15 8.991587747216267" Properties=species:S:1:pos:R:3:spacegroup_kinds:I:1:forces:R:3 spacegroup="P 1" unit_cell=conventional occupancy="_JSON {\"0\": {\"In\": 1}, \"1\": {\"In\": 1}, \"2\": {\"In\": 1}, \"3\": {\"In\": 1}, \"4\": {\"In\": 1}, \"5\": {\"In\": 1}, \"6\": {\"In\": 1}, \"7\": {\"In\": 1}, \"8\": {\"O\": 1}, \"9\": {\"O\": 1}, \"10\": {\"O\": 1}, \"11\": {\"O\": 1}, \"12\": {\"O\": 1}, \"13\": {\"O\": 1}, \"14\": {\"O\": 1}, \"15\": {\"O\": 1}, \"16\": {\"O\": 1}, \"17\": {\"O\": 1}, \"18\": {\"O\": 1}, \"19\": {\"O\": 1}}" n_minim_iter=15 energy=-22574.984190233918 stress="0.022419132447725337 -2.4943008483618452e-12 -8.048186929163303e-13 -2.4943008483618452e-12 0.022454484016925673 -5.629982825733442e-13 -8.048186929163303e-13 -5.629982825733442e-13 0.022453276351627367" free_energy=-22574.984190233918 pbc="T T T"
In       1.23382146       3.05830888       1.19694400        0      -0.00033214       0.00010757      -0.00122882
In       1.61760463       0.17550787       3.29884987        1       0.00033214       0.00010757       0.00122882
In       1.61760463       2.70729313       5.69273788        2       0.00033214      -0.00010757      -0.00122882
In       1.23382146       5.59009414       7.79464374        3      -0.00033214      -0.00010757       0.00122882
In       4.46903072       2.70729313       7.79464374        4       0.00033214      -0.00010757       0.00122882
In       4.08524754       5.59009414       5.69273788        5      -0.00033214      -0.00010757      -0.00122882
In       4.08524754       3.05830888       3.29884987        6      -0.00033214       0.00010757       0.00122882
In       4.46903072       0.17550787       1.19694400        7       0.00033214       0.00010757      -0.00122882
O        2.36636585       3.72127168       7.50233904        8      -0.00597388      -0.00108512      -0.00056990
O        0.48506023       0.83847068       5.98504258        9       0.00597388      -0.00108512       0.00056990
O        0.48506023       2.04433033       3.00654517       10       0.00597388       0.00108512      -0.00056990
O        2.36636585       4.92713134       1.48924871       11      -0.00597388       0.00108512       0.00056990
O        3.33648632       2.04433033       1.48924871       12       0.00597388       0.00108512       0.00056990
O        5.21779194       4.92713134       3.00654517       13      -0.00597388       0.00108512      -0.00056990
O        5.21779194       3.72127168       5.98504258       14      -0.00597388      -0.00108512       0.00056990
O        3.33648632       0.83847068       7.50233904       15       0.00597388      -0.00108512      -0.00056990
O        5.45102289       4.32420151      -0.00000000       16       0.00078218      -0.00000000       0.00000000
O        3.10325537       1.44140050       4.49579387       17      -0.00078218      -0.00000000      -0.00000000
O        0.25182928       1.44140050      -0.00000000       18      -0.00078218       0.00000000       0.00000000
O        2.59959680       4.32420151       4.49579387       19       0.00078218      -0.00000000      -0.00000000
