20
Lattice="5.521410377270416 1.4577113108655367e-58 -2.0869504057288105e-42 -1.998979199980308e-58 5.619120928051832 -1.3637738381150683e-16 3.015441466923938e-42 1.9362560048945832e-16 7.977903912724259" Properties=species:S:1:pos:R:3:spacegroup_kinds:I:1:forces:R:3 spacegroup="P 1" unit_cell=conventional occupancy="_JSON {\"0\": {\"In\": 1}, \"1\": {\"In\": 1}, \"2\": {\"In\": 1}, \"3\": {\"In\": 1}, \"4\": {\"In\": 1}, \"5\": {\"In\": 1}, \"6\": {\"In\": 1}, \"7\": {\"In\": 1}, \"8\": {\"O\": 1}, \"9\": {\"O\": 1}, \"10\": {\"O\": 1}, \"11\": {\"O\": 1}, \"12\": {\"O\": 1}, \"13\": {\"O\": 1}, \"14\": {\"O\": 1}, \"15\": {\"O\": 1}, \"16\": {\"O\": 1}, \"17\": {\"O\": 1}, \"18\": {\"O\": 1}, \"19\": {\"O\": 1}}" n_minim_iter=1 energy=-22575.004464419817 stress="0.010723018230638245 -2.7399481968509885e-12 -1.6642165496878843e-12 -2.7399481968509885e-12 0.011549998161533143 -2.83695936808465e-12 -1.6642165496878843e-12 -2.83695936808465e-12 0.013057370393800213" free_energy=-22575.004464419817 pbc="T T T"
In       1.37271559       2.97431981       0.90989134        0       0.06433535      -0.00600908      -0.14688858
In       1.38798960       0.16475935       3.07906062        1      -0.06433535      -0.00600908       0.14688858
In       1.38798960       2.64480111       4.89884329        2      -0.06433535       0.00600908      -0.14688858
In       1.37271559       5.45436158       7.06801258        3       0.06433535       0.00600908       0.14688858
In       4.14869478       2.64480111       7.06801258        4      -0.06433535       0.00600908       0.14688858
In       4.13342078       5.45436158       4.89884329        5       0.06433535       0.00600908      -0.14688858
In       4.13342078       2.97431981       3.07906062        6       0.06433535      -0.00600908       0.14688858
In       4.14869478       0.16475935       0.90989134        7      -0.06433535      -0.00600908      -0.14688858
O        2.15139859       3.38756772       6.77254107        8      -0.01861777      -0.09310565      -0.04973731
O        0.60930660       0.57800725       5.19431480        9       0.01861777      -0.09310565       0.04973731
O        0.60930660       2.23155321       2.78358912       10       0.01861777       0.09310565      -0.04973731
O        2.15139859       5.04111368       1.20536284       11      -0.01861777       0.09310565       0.04973731
O        3.37001179       2.23155321       1.20536284       12       0.01861777       0.09310565       0.04973731
O        4.91210378       5.04111368       2.78358912       13      -0.01861777       0.09310565      -0.04973731
O        4.91210378       3.38756772       5.19431480       14      -0.01861777      -0.09310565       0.04973731
O        3.37001179       0.57800725       6.77254107       15       0.01861777      -0.09310565      -0.04973731
O        5.28180878       4.21434070      -0.00000000       16      -0.13303327      -0.00000000      -0.00000000
O        3.00030679       1.40478023       3.98895196       17       0.13303327       0.00000000      -0.00000000
O        0.23960160       1.40478023      -0.00000000       18       0.13303327       0.00000000       0.00000000
O        2.52110359       4.21434070       3.98895196       19      -0.13303327       0.00000000      -0.00000000
20
Lattice="5.542022248942362 1.5159163103307934e-58 -2.1058247643937267e-42 -1.9075330983827867e-58 5.623628989577636 -1.2679780349942742e-16 2.985803437260235e-42 2.0650704733223159e-16 7.941860987579495" Properties=species:S:1:pos:R:3:spacegroup_kinds:I:1:forces:R:3 spacegroup="P 1" unit_cell=conventional occupancy="_JSON {\"0\": {\"In\": 1}, \"1\": {\"In\": 1}, \"2\": {\"In\": 1}, \"3\": {\"In\": 1}, \"4\": {\"In\": 1}, \"5\": {\"In\": 1}, \"6\": {\"In\": 1}, \"7\": {\"In\": 1}, \"8\": {\"O\": 1}, \"9\": {\"O\": 1}, \"10\": {\"O\": 1}, \"11\": {\"O\": 1}, \"12\": {\"O\": 1}, \"13\": {\"O\": 1}, \"14\": {\"O\": 1}, \"15\": {\"O\": 1}, \"16\": {\"O\": 1}, \"17\": {\"O\": 1}, \"18\": {\"O\": 1}, \"19\": {\"O\": 1}}" n_minim_iter=2 energy=-22575.00790085768 stress="0.0145619499733355 1.1271649956730914e-12 3.8433275388704697e-13 1.1271649956730914e-12 0.013220029637593897 -1.8859034086351595e-13 3.8433275388704697e-13 -1.8859034086351595e-13 0.009184704779100087" free_energy=-22575.00790085768 pbc="T T T"
In       1.37876256       2.97662011       0.90369166        0       0.09950505       0.01005535      -0.14382892
In       1.39224857       0.16480562       3.06723883        1      -0.09950505       0.01005535       0.14382892
In       1.39224857       2.64700888       4.87462216        2      -0.09950505      -0.01005535      -0.14382892
In       1.37876256       5.45882337       7.03816933        3       0.09950505      -0.01005535       0.14382892
In       4.16325969       2.64700888       7.03816933        4      -0.09950505      -0.01005535       0.14382892
In       4.14977368       5.45882337       4.87462216        5       0.09950505      -0.01005535      -0.14382892
In       4.14977368       2.97662011       3.06723883        6       0.09950505       0.01005535       0.14382892
In       4.16325969       0.16480562       0.90369166        7      -0.09950505       0.01005535      -0.14382892
O        2.15916297       3.38895432       6.74123647        8       0.01381907      -0.07766521      -0.01057805
O        0.61184815       0.57713982       5.17155501        9      -0.01381907      -0.07766521       0.01057805
O        0.61184815       2.23467467       2.77030597       10      -0.01381907       0.07766521      -0.01057805
O        2.15916297       5.04648917       1.20062452       11       0.01381907       0.07766521       0.01057805
O        3.38285927       2.23467467       1.20062452       12      -0.01381907       0.07766521       0.01057805
O        4.93017410       5.04648917       2.77030597       13       0.01381907       0.07766521      -0.01057805
O        4.93017410       3.38895432       5.17155501       14       0.01381907      -0.07766521       0.01057805
O        3.38285927       0.57713982       6.74123647       15      -0.01381907      -0.07766521      -0.01057805
O        5.29961863       4.21772174      -0.00000000       16      -0.09612555       0.00000000      -0.00000000
O        3.01341475       1.40590725       3.97093049       17       0.09612555      -0.00000000      -0.00000000
O        0.24240362       1.40590725      -0.00000000       18       0.09612555       0.00000000       0.00000000
O        2.52860750       4.21772174       3.97093049       19      -0.09612555       0.00000000      -0.00000000
20
Lattice="5.540315864871044 1.5012693545979571e-58 -2.096965594665874e-42 -1.903895369732747e-58 5.602724834893132 -1.2302243741339972e-16 3.0098098783511235e-42 2.1182234963439828e-16 7.973947793312525" Properties=species:S:1:pos:R:3:spacegroup_kinds:I:1:forces:R:3 spacegroup="P 1" unit_cell=conventional occupancy="_JSON {\"0\": {\"In\": 1}, \"1\": {\"In\": 1}, \"2\": {\"In\": 1}, \"3\": {\"In\": 1}, \"4\": {\"In\": 1}, \"5\": {\"In\": 1}, \"6\": {\"In\": 1}, \"7\": {\"In\": 1}, \"8\": {\"O\": 1}, \"9\": {\"O\": 1}, \"10\": {\"O\": 1}, \"11\": {\"O\": 1}, \"12\": {\"O\": 1}, \"13\": {\"O\": 1}, \"14\": {\"O\": 1}, \"15\": {\"O\": 1}, \"16\": {\"O\": 1}, \"17\": {\"O\": 1}, \"18\": {\"O\": 1}, \"19\": {\"O\": 1}}" n_minim_iter=3 energy=-22575.027885161846 stress="0.019467019499622224 -2.2315730660793774e-12 6.398919484726036e-13 -2.2315730660793774e-12 0.014703239590688547 2.09426368248484e-12 6.398919484726036e-13 2.09426368248484e-12 0.019058138328900243" free_energy=-22575.027885161846 pbc="T T T"
In       1.38670107       2.96546651       0.89133782        0      -0.00891748      -0.00715413      -0.00870075
In       1.38345686       0.16410409       3.09563608        1       0.00891748      -0.00715413       0.00870075
In       1.38345686       2.63725833       4.87831172        2       0.00891748       0.00715413      -0.00870075
In       1.38670107       5.43862075       7.08260997        3      -0.00891748       0.00715413       0.00870075
In       4.15361480       2.63725833       7.08260997        4       0.00891748       0.00715413       0.00870075
In       4.15685900       5.43862075       4.87831172        5      -0.00891748       0.00715413      -0.00870075
In       4.15685900       2.96546651       3.09563608        6      -0.00891748      -0.00715413       0.00870075
In       4.15361480       0.16410409       0.89133782        7       0.00891748      -0.00715413      -0.00870075
O        2.15760360       3.36669839       6.76440142        8      -0.06841529      -0.05218960      -0.09477131
O        0.61255433       0.56533597       5.19652027        9       0.06841529      -0.05218960       0.09477131
O        0.61255433       2.23602644       2.77742752       10       0.06841529       0.05218960      -0.09477131
O        2.15760360       5.03738886       1.20954638       11      -0.06841529       0.05218960       0.09477131
O        3.38271226       2.23602644       1.20954638       12       0.06841529       0.05218960       0.09477131
O        4.92776153       5.03738886       2.77742752       13      -0.06841529       0.05218960      -0.09477131
O        4.92776153       3.36669839       5.19652027       14      -0.06841529      -0.05218960       0.09477131
O        3.38271226       0.56533597       6.76440142       15       0.06841529      -0.05218960      -0.09477131
O        5.28461849       4.20204363      -0.00000000       16       0.07600203       0.00000000      -0.00000000
O        3.02585530       1.40068121       3.98697390       17      -0.07600203       0.00000000      -0.00000000
O        0.25569737       1.40068121      -0.00000000       18      -0.07600203      -0.00000000      -0.00000000
O        2.51446056       4.20204363       3.98697390       19       0.07600203       0.00000000       0.00000000
20
Lattice="5.520739052299523 1.5110581626613194e-58 -2.074717718356638e-42 -1.8752295347661094e-58 5.627502592864966 -1.1807506659210567e-16 2.996126036910853e-42 2.1963088908737482e-16 7.96699020679642" Properties=species:S:1:pos:R:3:spacegroup_kinds:I:1:forces:R:3 spacegroup="P 1" unit_cell=conventional occupancy="_JSON {\"0\": {\"In\": 1}, \"1\": {\"In\": 1}, \"2\": {\"In\": 1}, \"3\": {\"In\": 1}, \"4\": {\"In\": 1}, \"5\": {\"In\": 1}, \"6\": {\"In\": 1}, \"7\": {\"In\": 1}, \"8\": {\"O\": 1}, \"9\": {\"O\": 1}, \"10\": {\"O\": 1}, \"11\": {\"O\": 1}, \"12\": {\"O\": 1}, \"13\": {\"O\": 1}, \"14\": {\"O\": 1}, \"15\": {\"O\": 1}, \"16\": {\"O\": 1}, \"17\": {\"O\": 1}, \"18\": {\"O\": 1}, \"19\": {\"O\": 1}}" n_minim_iter=4 energy=-22575.031335726264 stress="0.018192002152551037 -1.3049607130955264e-12 1.349364209767202e-12 -1.3049607130955264e-12 0.019434638526514985 -1.2942228114685814e-12 1.349364209767202e-12 -1.2942228114685814e-12 0.019151970960142085" free_energy=-22575.031335726264 pbc="T T T"
In       1.38327436       2.97852483       0.88759649        0      -0.04742372       0.03924402      -0.01984980
In       1.37709516       0.16477353       3.09589862        1       0.04742372       0.03924402       0.01984980
In       1.37709516       2.64897776       4.87109159        2       0.04742372      -0.03924402      -0.01984980
In       1.38327436       5.46272906       7.07939372        3      -0.04742372      -0.03924402       0.01984980
In       4.13746469       2.64897776       7.07939372        4       0.04742372      -0.03924402       0.01984980
In       4.14364389       5.46272906       4.87109159        5      -0.04742372      -0.03924402      -0.01984980
In       4.14364389       2.97852483       3.09589862        6      -0.04742372       0.03924402       0.01984980
In       4.13746469       0.16477353       0.88759649        7       0.04742372       0.03924402      -0.01984980
O        2.14935774       3.37947006       6.75712290        8      -0.08102219      -0.01555558      -0.10121209
O        0.61101178       0.56571876       5.19336241        9       0.08102219      -0.01555558       0.10121209
O        0.61101178       2.24803253       2.77362779       10       0.08102219       0.01555558      -0.10121209
O        2.14935774       5.06178383       1.20986731       11      -0.08102219       0.01555558       0.10121209
O        3.37138131       2.24803253       1.20986731       12       0.08102219       0.01555558       0.10121209
O        4.90972727       5.06178383       2.77362779       13      -0.08102219       0.01555558      -0.10121209
O        4.90972727       3.37947006       5.19336241       14      -0.08102219      -0.01555558       0.10121209
O        3.37138131       0.56571876       6.75712290       15       0.08102219      -0.01555558      -0.10121209
O        5.26408062       4.22062694      -0.00000000       16       0.07131447       0.00000000      -0.00000000
O        3.01702796       1.40687565       3.98349510       17      -0.07131447       0.00000000      -0.00000000
O        0.25665844       1.40687565      -0.00000000       18      -0.07131447      -0.00000000       0.00000000
O        2.50371109       4.22062694       3.98349510       19       0.07131447       0.00000000       0.00000000
20
Lattice="5.5191777943234 1.5360391417121284e-58 -2.071506067470126e-42 -1.8569405728995514e-58 5.629279326313091 -1.2016248978565605e-16 2.9906820013400845e-42 2.1673224754468142e-16 7.966728617318488" Properties=species:S:1:pos:R:3:spacegroup_kinds:I:1:forces:R:3 spacegroup="P 1" unit_cell=conventional occupancy="_JSON {\"0\": {\"In\": 1}, \"1\": {\"In\": 1}, \"2\": {\"In\": 1}, \"3\": {\"In\": 1}, \"4\": {\"In\": 1}, \"5\": {\"In\": 1}, \"6\": {\"In\": 1}, \"7\": {\"In\": 1}, \"8\": {\"O\": 1}, \"9\": {\"O\": 1}, \"10\": {\"O\": 1}, \"11\": {\"O\": 1}, \"12\": {\"O\": 1}, \"13\": {\"O\": 1}, \"14\": {\"O\": 1}, \"15\": {\"O\": 1}, \"16\": {\"O\": 1}, \"17\": {\"O\": 1}, \"18\": {\"O\": 1}, \"19\": {\"O\": 1}}" n_minim_iter=5 energy=-22575.038335878642 stress="0.023959182273948228 9.831647044565366e-13 -1.633803069336167e-12 9.831647044565366e-13 0.022785388386711923 -3.2283713873601123e-13 -1.633803069336167e-12 -3.2283713873601123e-13 0.021448642091837333" free_energy=-22575.038335878642 pbc="T T T"
In       1.38469049       2.98219986       0.87621181        0      -0.00456227       0.00497170       0.01918859
In       1.37489841       0.16756020       3.10715250        1       0.00456227       0.00497170      -0.01918859
In       1.37489841       2.64707947       4.85957611        2       0.00456227      -0.00497170       0.01918859
In       1.38469049       5.46171913       7.09051681        3      -0.00456227      -0.00497170      -0.01918858
In       4.13448731       2.64707947       7.09051681        4       0.00456227      -0.00497170      -0.01918858
In       4.14427938       5.46171913       4.85957611        5      -0.00456227      -0.00497170       0.01918858
In       4.14427938       2.98219986       3.10715250        6      -0.00456227       0.00497170      -0.01918859
In       4.13448731       0.16756020       0.87621181        7       0.00456227       0.00497170       0.01918858
O        2.14141532       3.37263989       6.74577421        8      -0.01152851       0.02862788      -0.00128455
O        0.61817358       0.55800022       5.20431872        9       0.01152851       0.02862788       0.00128455
O        0.61817358       2.25663944       2.76240990       10       0.01152851      -0.02862788      -0.00128455
O        2.14141532       5.07127910       1.22095441       11      -0.01152851      -0.02862788       0.00128455
O        3.37776248       2.25663944       1.22095441       12       0.01152851      -0.02862788       0.00128455
O        4.90100421       5.07127910       2.76240990       13      -0.01152851      -0.02862788      -0.00128455
O        4.90100421       3.37263989       5.20431872       14      -0.01152851       0.02862788       0.00128455
O        3.37776248       0.55800022       6.74577421       15       0.01152851       0.02862788      -0.00128455
O        5.26111140       4.22195949      -0.00000000       16       0.07821940       0.00000000      -0.00000000
O        3.01765530       1.40731983       3.98336431       17      -0.07821940       0.00000000       0.00000000
O        0.25806640       1.40731983      -0.00000000       18      -0.07821940       0.00000000      -0.00000000
O        2.50152250       4.22195949       3.98336431       19       0.07821940      -0.00000000      -0.00000000
20
Lattice="5.513117003242099 1.5263630469328876e-58 -2.0672050815324715e-42 -1.8579886250772563e-58 5.628642748191712 -1.1819432684905778e-16 2.9962091207978275e-42 2.1970896080601026e-16 7.976388759519993" Properties=species:S:1:pos:R:3:spacegroup_kinds:I:1:forces:R:3 spacegroup="P 1" unit_cell=conventional occupancy="_JSON {\"0\": {\"In\": 1}, \"1\": {\"In\": 1}, \"2\": {\"In\": 1}, \"3\": {\"In\": 1}, \"4\": {\"In\": 1}, \"5\": {\"In\": 1}, \"6\": {\"In\": 1}, \"7\": {\"In\": 1}, \"8\": {\"O\": 1}, \"9\": {\"O\": 1}, \"10\": {\"O\": 1}, \"11\": {\"O\": 1}, \"12\": {\"O\": 1}, \"13\": {\"O\": 1}, \"14\": {\"O\": 1}, \"15\": {\"O\": 1}, \"16\": {\"O\": 1}, \"17\": {\"O\": 1}, \"18\": {\"O\": 1}, \"19\": {\"O\": 1}}" n_minim_iter=6 energy=-22575.04013440943 stress="0.021737735917580787 -5.623443603700012e-13 1.4949653934287118e-12 -5.623443603700012e-13 0.021731939937796933 -2.8622822498494797e-12 1.4949653934287118e-12 -2.8622822498494797e-12 0.021279866677098982" free_energy=-22575.04013440943 pbc="T T T"
In       1.38126303       2.98194333       0.88089728        0       0.00639327      -0.00042373      -0.00807582
In       1.37529547       0.16762196       3.10729710        1      -0.00639327      -0.00042373       0.00807582
In       1.37529547       2.64669942       4.86909166        2      -0.00639327       0.00042373      -0.00807582
In       1.38126303       5.46102079       7.09549148        3       0.00639327       0.00042373       0.00807582
In       4.13185397       2.64669942       7.09549148        4      -0.00639327       0.00042373       0.00807582
In       4.13782153       5.46102079       4.86909166        5       0.00639327       0.00042373      -0.00807582
In       4.13782153       2.98194333       3.10729710        6       0.00639327      -0.00042373       0.00807582
In       4.13185397       0.16762196       0.88089728        7      -0.00639327      -0.00042373      -0.00807582
O        2.13911360       3.37470756       6.75481907        8      -0.00839097       0.01448788       0.00144732
O        0.61744490       0.56038619       5.20976407        9       0.00839097       0.01448788      -0.00144732
O        0.61744490       2.25393519       2.76662469       10       0.00839097      -0.01448788       0.00144732
O        2.13911360       5.06825656       1.22156969       11      -0.00839097      -0.01448788      -0.00144732
O        3.37400341       2.25393519       1.22156969       12       0.00839097      -0.01448788      -0.00144732
O        4.89567210       5.06825656       2.76662469       13      -0.00839097      -0.01448788       0.00144732
O        4.89567210       3.37470756       5.20976407       14      -0.00839097       0.01448788      -0.00144732
O        3.37400341       0.56038619       6.75481907       15       0.00839097       0.01448788       0.00144732
O        5.25893523       4.22148206      -0.00000000       16       0.03419289      -0.00000000      -0.00000000
O        3.01074027       1.40716069       3.98819438       17      -0.03419289       0.00000000       0.00000000
O        0.25418177       1.40716069      -0.00000000       18      -0.03419289      -0.00000000       0.00000000
O        2.50237673       4.22148206       3.98819438       19       0.03419289       0.00000000      -0.00000000
20
Lattice="5.511739767919871 1.505843501153246e-58 -2.1556479997734165e-42 -1.9276495263493302e-58 5.627613808122407 -1.209915421749158e-16 3.258790966348616e-42 2.1576999319538183e-16 7.97984059337944" Properties=species:S:1:pos:R:3:spacegroup_kinds:I:1:forces:R:3 spacegroup="P 1" unit_cell=conventional occupancy="_JSON {\"0\": {\"In\": 1}, \"1\": {\"In\": 1}, \"2\": {\"In\": 1}, \"3\": {\"In\": 1}, \"4\": {\"In\": 1}, \"5\": {\"In\": 1}, \"6\": {\"In\": 1}, \"7\": {\"In\": 1}, \"8\": {\"O\": 1}, \"9\": {\"O\": 1}, \"10\": {\"O\": 1}, \"11\": {\"O\": 1}, \"12\": {\"O\": 1}, \"13\": {\"O\": 1}, \"14\": {\"O\": 1}, \"15\": {\"O\": 1}, \"16\": {\"O\": 1}, \"17\": {\"O\": 1}, \"18\": {\"O\": 1}, \"19\": {\"O\": 1}}" n_minim_iter=7 energy=-22575.040313766138 stress="0.021386285241595443 -8.535604993772774e-13 1.8739074082330116e-12 -8.535604993772774e-13 0.021421241115409686 1.244680461024162e-12 1.8739074082330116e-12 1.244680461024162e-12 0.02143049747439546" free_energy=-22575.040313766138 pbc="T T T"
In       1.38058725       2.98149109       0.88163617        0       0.00951385      -0.00696801      -0.01138191
In       1.37528263       0.16768419       3.10828413        1      -0.00951385      -0.00696801       0.01138191
In       1.37528263       2.64612271       4.87155646        2      -0.00951385       0.00696801      -0.01138191
In       1.38058725       5.45992962       7.09820443        3       0.00951385       0.00696801       0.01138191
In       4.13115252       2.64612271       7.09820443        4      -0.00951385       0.00696801       0.01138191
In       4.13645713       5.45992962       4.87155646        5       0.00951385       0.00696801      -0.01138191
In       4.13645713       2.98149109       3.10828413        6       0.00951385      -0.00696801       0.01138191
In       4.13115252       0.16768419       0.88163617        7      -0.00951385      -0.00696801      -0.01138191
O        2.13816639       3.37461102       6.75754114        8      -0.00333636       0.01062653       0.00411975
O        0.61770350       0.56080412       5.21221975        9       0.00333636       0.01062653      -0.00411975
O        0.61770350       2.25300279       2.76762084       10       0.00333636      -0.01062653       0.00411975
O        2.13816639       5.06680969       1.22229946       11      -0.00333636      -0.01062653      -0.00411975
O        3.37357338       2.25300279       1.22229946       12       0.00333636      -0.01062653      -0.00411975
O        4.89403627       5.06680969       2.76762084       13      -0.00333636      -0.01062653       0.00411975
O        4.89403627       3.37461102       5.21221975       14      -0.00333636       0.01062653      -0.00411975
O        3.37357338       0.56080412       6.75754114       15       0.00333636       0.01062653       0.00411975
O        5.25896309       4.22071036      -0.00000000       16       0.01831126       0.00000000      -0.00000000
O        3.00864656       1.40690345       3.98992030       17      -0.01831126       0.00000000      -0.00000000
O        0.25277667       1.40690345      -0.00000000       18      -0.01831126      -0.00000000       0.00000000
O        2.50309321       4.22071036       3.98992030       19       0.01831126       0.00000000       0.00000000
20
Lattice="5.5111098754640775 1.4819809315592836e-58 -2.3345330689422415e-42 -1.9244752955104508e-58 5.626561999138066 -1.2407484212914025e-16 3.0008883017714586e-42 2.1140411188164836e-16 7.982244542281563" Properties=species:S:1:pos:R:3:spacegroup_kinds:I:1:forces:R:3 spacegroup="P 1" unit_cell=conventional occupancy="_JSON {\"0\": {\"In\": 1}, \"1\": {\"In\": 1}, \"2\": {\"In\": 1}, \"3\": {\"In\": 1}, \"4\": {\"In\": 1}, \"5\": {\"In\": 1}, \"6\": {\"In\": 1}, \"7\": {\"In\": 1}, \"8\": {\"O\": 1}, \"9\": {\"O\": 1}, \"10\": {\"O\": 1}, \"11\": {\"O\": 1}, \"12\": {\"O\": 1}, \"13\": {\"O\": 1}, \"14\": {\"O\": 1}, \"15\": {\"O\": 1}, \"16\": {\"O\": 1}, \"17\": {\"O\": 1}, \"18\": {\"O\": 1}, \"19\": {\"O\": 1}}" n_minim_iter=8 energy=-22575.040468316754 stress="0.021134599997019422 -3.9575222835221524e-13 7.394636750314418e-13 -3.9575222835221524e-13 0.021161204883620215 -1.329449498486498e-12 7.394636750314418e-13 -1.329449498486498e-12 0.021581167228381444" free_energy=-22575.040468316754 pbc="T T T"
In       1.38061300       2.98069953       0.88154592        0       0.00574168      -0.01635277      -0.00993126
In       1.37494193       0.16741853       3.10957635        1      -0.00574168      -0.01635277       0.00993126
In       1.37494193       2.64586247       4.87266819        2      -0.00574168       0.01635277      -0.00993126
In       1.38061300       5.45914347       7.10069862        3       0.00574168       0.01635277       0.00993126
In       4.13049687       2.64586247       7.10069862        4      -0.00574168       0.01635277       0.00993126
In       4.13616794       5.45914347       4.87266819        5       0.00574168       0.01635277      -0.00993126
In       4.13616794       2.98069953       3.10957635        6       0.00574168      -0.01635277       0.00993126
In       4.13049687       0.16741853       0.88154592        7      -0.00574168      -0.01635277      -0.00993126
O        2.13728223       3.37491355       6.75945991        8       0.00479329       0.00440042      -0.00036141
O        0.61827270       0.56163255       5.21390690        9      -0.00479329       0.00440042       0.00036141
O        0.61827270       2.25164845       2.76833764       10      -0.00479329      -0.00440042      -0.00036141
O        2.13728223       5.06492945       1.22278463       11       0.00479330      -0.00440042       0.00036141
O        3.37382764       2.25164845       1.22278463       12      -0.00479329      -0.00440042       0.00036141
O        4.89283717       5.06492945       2.76833764       13       0.00479329      -0.00440042      -0.00036141
O        4.89283717       3.37491355       5.21390690       14       0.00479330       0.00440042       0.00036141
O        3.37382764       0.56163255       6.75945991       15      -0.00479330       0.00440042      -0.00036141
O        5.26053698       4.21992150      -0.00000000       16      -0.00519108       0.00000000       0.00000000
O        3.00612783       1.40664050       3.99112227       17       0.00519108      -0.00000000      -0.00000000
O        0.25057290       1.40664050      -0.00000000       18       0.00519108       0.00000000       0.00000000
O        2.50498204       4.21992150       3.99112227       19      -0.00519108      -0.00000000      -0.00000000
20
Lattice="5.51305196975935 1.476568490980049e-58 -2.3054466612692388e-42 -1.9410981553706706e-58 5.627603087335402 -1.2656528015601417e-16 2.9974835479375494e-42 2.0781224558300216e-16 7.977956451395687" Properties=species:S:1:pos:R:3:spacegroup_kinds:I:1:forces:R:3 spacegroup="P 1" unit_cell=conventional occupancy="_JSON {\"0\": {\"In\": 1}, \"1\": {\"In\": 1}, \"2\": {\"In\": 1}, \"3\": {\"In\": 1}, \"4\": {\"In\": 1}, \"5\": {\"In\": 1}, \"6\": {\"In\": 1}, \"7\": {\"In\": 1}, \"8\": {\"O\": 1}, \"9\": {\"O\": 1}, \"10\": {\"O\": 1}, \"11\": {\"O\": 1}, \"12\": {\"O\": 1}, \"13\": {\"O\": 1}, \"14\": {\"O\": 1}, \"15\": {\"O\": 1}, \"16\": {\"O\": 1}, \"17\": {\"O\": 1}, \"18\": {\"O\": 1}, \"19\": {\"O\": 1}}" n_minim_iter=9 energy=-22575.040667438465 stress="0.021698614871003635 7.600244714249512e-15 4.2411707125854147e-13 7.600244714249512e-15 0.021736834592585946 4.2982120081475e-12 4.2411707125854147e-13 4.2982120081475e-12 0.021614968672605248" free_energy=-22575.040667438465 pbc="T T T"
In       1.38233075       2.98025411       0.87911113        0      -0.00839512      -0.01271335       0.00113469
In       1.37419524       0.16645256       3.10986710        1       0.00839512      -0.01271335      -0.00113469
In       1.37419524       2.64734898       4.86808936        2       0.00839512       0.01271335       0.00113469
In       1.38233075       5.46115053       7.09884532        3      -0.00839512       0.01271335      -0.00113469
In       4.13072122       2.64734898       7.09884532        4       0.00839512       0.01271335      -0.00113469
In       4.13885673       5.46115053       4.86808936        5      -0.00839512       0.01271335       0.00113469
In       4.13885673       2.98025411       3.10986710        6      -0.00839512      -0.01271335      -0.00113469
In       4.13072122       0.16645256       0.87911113        7       0.00839512      -0.01271335       0.00113469
O        2.13790472       3.37588563       6.75574276        8       0.00612815       0.00543877      -0.01218521
O        0.61862126       0.56208409       5.21119192        9      -0.00612815       0.00543877       0.01218521
O        0.61862126       2.25171745       2.76676453       10      -0.00612815      -0.00543877      -0.01218521
O        2.13790472       5.06551900       1.22221369       11       0.00612815      -0.00543877       0.01218521
O        3.37514725       2.25171745       1.22221369       12      -0.00612815      -0.00543877       0.01218521
O        4.89443071       5.06551900       2.76676453       13       0.00612815      -0.00543877      -0.01218521
O        4.89443071       3.37588563       5.21119192       14       0.00612815       0.00543877       0.01218521
O        3.37514725       0.56208409       6.75574276       15      -0.00612815       0.00543877      -0.01218521
O        5.26283925       4.22070232      -0.00000000       16      -0.00385406      -0.00000000       0.00000000
O        3.00673870       1.40690077       3.98897823       17       0.00385406      -0.00000000       0.00000000
O        0.25021272       1.40690077      -0.00000000       18       0.00385406      -0.00000000       0.00000000
O        2.50631327       4.22070232       3.98897823       19      -0.00385406      -0.00000000      -0.00000000
20