20
Lattice="5.392057517620917 -2.1691612733656408e-58 6.106235098392657e-43 1.290677667087708e-58 5.64212819325793 9.011113483423673e-16 3.856152270337329e-43 -1.114456550435843e-15 7.005980665272972" Properties=species:S:1:pos:R:3:spacegroup_kinds:I:1:forces:R:3 spacegroup="P 1" unit_cell=conventional occupancy="_JSON {\"0\": {\"In\": 1}, \"1\": {\"In\": 1}, \"2\": {\"In\": 1}, \"3\": {\"In\": 1}, \"4\": {\"In\": 1}, \"5\": {\"In\": 1}, \"6\": {\"In\": 1}, \"7\": {\"In\": 1}, \"8\": {\"O\": 1}, \"9\": {\"O\": 1}, \"10\": {\"O\": 1}, \"11\": {\"O\": 1}, \"12\": {\"O\": 1}, \"13\": {\"O\": 1}, \"14\": {\"O\": 1}, \"15\": {\"O\": 1}, \"16\": {\"O\": 1}, \"17\": {\"O\": 1}, \"18\": {\"O\": 1}, \"19\": {\"O\": 1}}" n_minim_iter=11 energy=-22578.921348672346 stress="0.24630122247145794 7.280546255723504e-13 2.108206088076427e-12 7.280546255723504e-13 0.24640375411985008 3.539181407568366e-12 2.108206088076427e-12 3.539181407568366e-12 0.24642731754572506" free_energy=-22578.921348672346 pbc="T T T"
In       1.32707881       2.82163938       0.59532027        0      -0.00199370       0.00211382      -0.00050240
In       1.36894995       0.00057529       2.90767007        1       0.00199370       0.00211382       0.00050240
In       1.36894995       2.82048881       4.09831060        2       0.00199370      -0.00211382      -0.00050240
In       1.32707881       5.64155291       6.41066040        3      -0.00199370      -0.00211382       0.00050240
In       4.06497871       2.82048881       6.41066040        4       0.00199370      -0.00211382       0.00050240
In       4.02310757       5.64155291       4.09831060        5      -0.00199370      -0.00211382      -0.00050240
In       4.02310757       2.82163938       2.90767007        6      -0.00199370       0.00211382       0.00050240
In       4.06497871       0.00057529       0.59532027        7       0.00199370       0.00211382      -0.00050240
O        2.20916525       3.23088663       5.85867390        8      -0.00181005       0.00165843       0.00238135
O        0.48686351       0.40982253       4.65029709        9       0.00181005       0.00165843      -0.00238135
O        0.48686351       2.41124157       2.35568357       10       0.00181005      -0.00165843       0.00238135
O        2.20916525       5.23230566       1.14730676       11      -0.00181005      -0.00165843      -0.00238135
O        3.18289227       2.41124157       1.14730676       12       0.00181005      -0.00165843      -0.00238135
O        4.90519400       5.23230566       2.35568357       13      -0.00181005      -0.00165843       0.00238135
O        4.90519400       3.23088663       4.65029709       14      -0.00181005       0.00165843      -0.00238135
O        3.18289227       0.40982253       5.85867390       15       0.00181005       0.00165843       0.00238135
O        5.34017267       4.23159614      -0.00000000       16      -0.00187579       0.00000000      -0.00000000
O        2.74791360       1.41053205       3.50299033       17       0.00187579       0.00000000      -0.00000000
O        0.05188485       1.41053205      -0.00000000       18       0.00187579      -0.00000000       0.00000000
O        2.64414391       4.23159614       3.50299033       19      -0.00187579       0.00000000      -0.00000000
