20
Lattice="5.608515654789892 5.71427776213789e-60 -4.055300545538999e-43 -1.1545266449079335e-60 5.722047030511082 6.466150916327009e-17 6.041503945461398e-43 -9.44200807163154e-17 8.355452099319455" Properties=species:S:1:pos:R:3:spacegroup_kinds:I:1:forces:R:3 spacegroup="P 1" unit_cell=conventional occupancy="_JSON {\"0\": {\"In\": 1}, \"1\": {\"In\": 1}, \"2\": {\"In\": 1}, \"3\": {\"In\": 1}, \"4\": {\"In\": 1}, \"5\": {\"In\": 1}, \"6\": {\"In\": 1}, \"7\": {\"In\": 1}, \"8\": {\"O\": 1}, \"9\": {\"O\": 1}, \"10\": {\"O\": 1}, \"11\": {\"O\": 1}, \"12\": {\"O\": 1}, \"13\": {\"O\": 1}, \"14\": {\"O\": 1}, \"15\": {\"O\": 1}, \"16\": {\"O\": 1}, \"17\": {\"O\": 1}, \"18\": {\"O\": 1}, \"19\": {\"O\": 1}}" n_minim_iter=1 energy=-22574.94959340149 stress="-0.014079091432713993 -1.8309529487257825e-12 8.941561963005787e-13 -1.8309529487257825e-12 -0.014298454218196 1.0950892516154043e-12 8.941561963005787e-13 1.0950892516154043e-12 -0.010775913472560135" free_energy=-22574.94959340149 pbc="T T T"
In       1.36025258       2.98292170       1.01506228        0       0.09224885       0.13757508      -0.12132735
In       1.44400525       0.12189819       3.16266377        1      -0.09224885       0.13757508       0.12132735
In       1.44400525       2.73912533       5.19278833        2      -0.09224885      -0.13757508      -0.12132735
In       1.36025258       5.60014885       7.34038982        3       0.09224885      -0.13757508       0.12132735
In       4.24826308       2.73912533       7.34038982        4      -0.09224885      -0.13757508       0.12132735
In       4.16451040       5.60014885       5.19278833        5       0.09224885      -0.13757508      -0.12132735
In       4.16451040       2.98292170       3.16266377        6       0.09224885       0.13757508       0.12132735
In       4.24826308       0.12189819       1.01506228        7      -0.09224885       0.13757508      -0.12132735
O        2.20016903       3.49215274       7.10235066        8      -0.01641986      -0.00380945      -0.01791743
O        0.60408880       0.63112923       5.43082749        9       0.01641986      -0.00380945       0.01791743
O        0.60408880       2.22989429       2.92462461       10       0.01641986       0.00380945      -0.01791743
O        2.20016903       5.09091780       1.25310144       11      -0.01641986       0.00380945       0.01791743
O        3.40834663       2.22989429       1.25310144       12       0.01641986       0.00380945       0.01791743
O        5.00442685       5.09091780       2.92462461       13      -0.01641986       0.00380945      -0.01791743
O        5.00442685       3.49215274       5.43082749       14      -0.01641986      -0.00380945       0.01791743
O        3.40834663       0.63112923       7.10235066       15       0.01641986      -0.00380945      -0.01791743
O        5.37888571       4.29153527      -0.00000000       16       0.05533006      -0.00000000      -0.00000000
O        3.03388777       1.43051176       4.17772605       17      -0.05533006       0.00000000       0.00000000
O        0.22962994       1.43051176      -0.00000000       18      -0.05533006      -0.00000000      -0.00000000
O        2.57462789       4.29153527       4.17772605       19       0.05533006      -0.00000000       0.00000000
20
Lattice="5.621069738386023 -2.2241565787630575e-60 -3.66328643960617e-43 2.073977452873734e-61 5.737592233638234 9.633235630025379e-17 6.286454934044183e-43 -4.818705342074344e-17 8.314203684208266" Properties=species:S:1:pos:R:3:spacegroup_kinds:I:1:forces:R:3 spacegroup="P 1" unit_cell=conventional occupancy="_JSON {\"0\": {\"In\": 1}, \"1\": {\"In\": 1}, \"2\": {\"In\": 1}, \"3\": {\"In\": 1}, \"4\": {\"In\": 1}, \"5\": {\"In\": 1}, \"6\": {\"In\": 1}, \"7\": {\"In\": 1}, \"8\": {\"O\": 1}, \"9\": {\"O\": 1}, \"10\": {\"O\": 1}, \"11\": {\"O\": 1}, \"12\": {\"O\": 1}, \"13\": {\"O\": 1}, \"14\": {\"O\": 1}, \"15\": {\"O\": 1}, \"16\": {\"O\": 1}, \"17\": {\"O\": 1}, \"18\": {\"O\": 1}, \"19\": {\"O\": 1}}" n_minim_iter=2 energy=-22574.953362629913 stress="-0.011032406428886135 -1.8853599960566702e-13 2.3335306219402787e-12 -1.8853599960566702e-13 -0.011201968551330753 -1.3787695101591432e-12 2.3335306219402787e-12 -1.3787695101591432e-12 -0.013616755813992269" free_energy=-22574.953362629913 pbc="T T T"
In       1.36404734       2.99214447       1.00907189        0       0.11549868       0.15504936      -0.16001576
In       1.44648753       0.12334836       3.14802995        1      -0.11549868       0.15504936       0.16001576
In       1.44648753       2.74544776       5.16617373        2      -0.11549868      -0.15504936      -0.16001576
In       1.36404734       5.61424388       7.30513179        3       0.11549868      -0.15504936       0.16001576
In       4.25702240       2.74544776       7.30513179        4      -0.11549868      -0.15504936       0.16001576
In       4.17458221       5.61424388       5.16617373        5       0.11549868      -0.15504936      -0.16001576
In       4.17458221       2.99214447       3.14802995        6       0.11549868       0.15504936       0.16001576
In       4.25702240       0.12334836       1.00907189        7      -0.11549868       0.15504936      -0.16001576
O        2.20496039       3.50160896       7.06714382        8       0.00277787      -0.00297115       0.03205442
O        0.60557448       0.63281284       5.40416171        9      -0.00277787      -0.00297115      -0.03205442
O        0.60557448       2.23598327       2.91004197       10      -0.00277787       0.00297115       0.03205442
O        2.20496039       5.10477939       1.24705987       11       0.00277787       0.00297115      -0.03205442
O        3.41610935       2.23598327       1.24705987       12      -0.00277787       0.00297115      -0.03205442
O        5.01549525       5.10477939       2.91004197       13       0.00277787       0.00297115       0.03205442
O        5.01549525       3.50160896       5.40416171       14       0.00277787      -0.00297115      -0.03205442
O        3.41610935       0.63281284       7.06714382       15      -0.00277787      -0.00297115       0.03205442
O        5.39137562       4.30319418      -0.00000000       16       0.05433944      -0.00000000      -0.00000000
O        3.04022898       1.43439806       4.15710184       17      -0.05433944      -0.00000000       0.00000000
O        0.22969412       1.43439806      -0.00000000       18      -0.05433944      -0.00000000      -0.00000000
O        2.58084075       4.30319418       4.15710184       19       0.05433944       0.00000000      -0.00000000
20
Lattice="5.6222051613784 5.551454257279081e-59 -8.003613830680891e-43 6.097801937336617e-59 5.7692574474804115 1.2604062438608885e-16 5.552780774966238e-43 -4.2720460575586304e-18 8.266900383507561" Properties=species:S:1:pos:R:3:spacegroup_kinds:I:1:forces:R:3 spacegroup="P 1" unit_cell=conventional occupancy="_JSON {\"0\": {\"In\": 1}, \"1\": {\"In\": 1}, \"2\": {\"In\": 1}, \"3\": {\"In\": 1}, \"4\": {\"In\": 1}, \"5\": {\"In\": 1}, \"6\": {\"In\": 1}, \"7\": {\"In\": 1}, \"8\": {\"O\": 1}, \"9\": {\"O\": 1}, \"10\": {\"O\": 1}, \"11\": {\"O\": 1}, \"12\": {\"O\": 1}, \"13\": {\"O\": 1}, \"14\": {\"O\": 1}, \"15\": {\"O\": 1}, \"16\": {\"O\": 1}, \"17\": {\"O\": 1}, \"18\": {\"O\": 1}, \"19\": {\"O\": 1}}" n_minim_iter=3 energy=-22574.975748402816 stress="-0.0065672340104580024 -1.5440377321754257e-12 -8.523259451525775e-13 -1.5440377321754257e-12 -0.0031454463445665967 2.1760423945790148e-12 -8.523259451525775e-13 2.1760423945790148e-12 -0.005603621450593837" free_energy=-22574.975748402816 pbc="T T T"
In       1.37504906       3.02381838       0.98903645        0      -0.02139683      -0.00742747      -0.06114644
In       1.43605352       0.13918966       3.14441374        1       0.02139683      -0.00742747       0.06114644
In       1.43605352       2.74543907       5.12248664        2       0.02139683       0.00742747      -0.06114644
In       1.37504906       5.63006779       7.27786393        3      -0.02139683       0.00742747       0.06114644
In       4.24715610       2.74543907       7.27786393        4       0.02139683       0.00742747       0.06114644
In       4.18615164       5.63006779       5.12248664        5      -0.02139683       0.00742747      -0.06114644
In       4.18615164       3.02381838       3.14441374        6      -0.02139683      -0.00742747       0.06114644
In       4.24715610       0.13918966       0.98903645        7       0.02139683      -0.00742747      -0.06114644
O        2.20475469       3.52058593       7.02776657        8      -0.02510089      -0.04463740       0.00805135
O        0.60634789       0.63595721       5.37258401        9       0.02510089      -0.04463740      -0.00805135
O        0.60634789       2.24867151       2.89431637       10       0.02510089       0.04463740       0.00805135
O        2.20475469       5.13330024       1.23913382       11      -0.02510089       0.04463740      -0.00805135
O        3.41745047       2.24867151       1.23913382       12       0.02510089       0.04463740      -0.00805135
O        5.01585728       5.13330024       2.89431637       13      -0.02510089       0.04463740       0.00805135
O        5.01585728       3.52058593       5.37258401       14      -0.02510089      -0.04463740      -0.00805135
O        3.41745047       0.63595721       7.02776657       15       0.02510089      -0.04463740       0.00805135
O        5.39809289       4.32694309      -0.00000000       16      -0.04538546      -0.00000000      -0.00000000
O        3.03521485       1.44231436       4.13345019       17       0.04538546      -0.00000000      -0.00000000
O        0.22411227       1.44231436      -0.00000000       18       0.04538546      -0.00000000       0.00000000
O        2.58699031       4.32694309       4.13345019       19      -0.04538546       0.00000000       0.00000000
20
Lattice="5.633506443768822 1.2336433454817096e-59 -8.085312299281747e-43 4.966819767404254e-59 5.758308086134422 3.521404595539808e-16 5.600872285736168e-43 3.2514895841104053e-16 8.266004182236065" Properties=species:S:1:pos:R:3:spacegroup_kinds:I:1:forces:R:3 spacegroup="P 1" unit_cell=conventional occupancy="_JSON {\"0\": {\"In\": 1}, \"1\": {\"In\": 1}, \"2\": {\"In\": 1}, \"3\": {\"In\": 1}, \"4\": {\"In\": 1}, \"5\": {\"In\": 1}, \"6\": {\"In\": 1}, \"7\": {\"In\": 1}, \"8\": {\"O\": 1}, \"9\": {\"O\": 1}, \"10\": {\"O\": 1}, \"11\": {\"O\": 1}, \"12\": {\"O\": 1}, \"13\": {\"O\": 1}, \"14\": {\"O\": 1}, \"15\": {\"O\": 1}, \"16\": {\"O\": 1}, \"17\": {\"O\": 1}, \"18\": {\"O\": 1}, \"19\": {\"O\": 1}}" n_minim_iter=4 energy=-22574.97684762848 stress="-0.00418190818336821 -9.679260085922928e-13 3.6300355354873897e-13 -9.679260085922928e-13 -0.004727629071406305 7.299137594611665e-13 3.6300355354873897e-13 7.299137594611665e-13 -0.004994234562241979" free_energy=-22574.97684762848 pbc="T T T"
In       1.37819978       3.01873378       0.98801657        0      -0.01166936      -0.02671466      -0.04785190
In       1.43855345       0.13957974       3.14498552        1       0.01166936      -0.02671466       0.04785190
In       1.43855345       2.73957431       5.12101866        2       0.01166936       0.02671466      -0.04785190
In       1.37819978       5.61872835       7.27798762        3      -0.01166936       0.02671466       0.04785190
In       4.25530667       2.73957431       7.27798762        4       0.01166936       0.02671466       0.04785190
In       4.19495300       5.61872835       5.12101866        5      -0.01166936       0.02671466      -0.04785190
In       4.19495300       3.01873378       3.14498552        6      -0.01166936      -0.02671466       0.04785190
In       4.25530667       0.13957974       0.98801657        7       0.01166936      -0.02671466      -0.04785190
O        2.20903374       3.51368273       7.02705759        8      -0.02138231      -0.05808188       0.01157266
O        0.60771948       0.63452869       5.37194869        9       0.02138231      -0.05808188      -0.01157266
O        0.60771948       2.24462535       2.89405550       10       0.02138231       0.05808188       0.01157266
O        2.20903374       5.12377940       1.23894659       11      -0.02138231       0.05808188      -0.01157266
O        3.42447270       2.24462535       1.23894659       12       0.02138231       0.05808188      -0.01157266
O        5.02578696       5.12377940       2.89405550       13      -0.02138231       0.05808188       0.01157266
O        5.02578696       3.51368273       5.37194869       14      -0.02138231      -0.05808188      -0.01157266
O        3.42447270       0.63452869       7.02705759       15       0.02138231      -0.05808188       0.01157266
O        5.40899642       4.31873106      -0.00000000       16      -0.03903063      -0.00000000      -0.00000000
O        3.04126325       1.43957702       4.13300209       17       0.03903063       0.00000000       0.00000000
O        0.22451003       1.43957702      -0.00000000       18       0.03903063      -0.00000000       0.00000000
O        2.59224320       4.31873106       4.13300209       19      -0.03903063      -0.00000000       0.00000000
20
Lattice="5.627959842597922 -1.3974345403893193e-60 -7.93633516044097e-43 4.337599237581008e-59 5.754648849326804 3.885477473019573e-16 5.676513631111694e-43 3.771039794573148e-16 8.279412016573039" Properties=species:S:1:pos:R:3:spacegroup_kinds:I:1:forces:R:3 spacegroup="P 1" unit_cell=conventional occupancy="_JSON {\"0\": {\"In\": 1}, \"1\": {\"In\": 1}, \"2\": {\"In\": 1}, \"3\": {\"In\": 1}, \"4\": {\"In\": 1}, \"5\": {\"In\": 1}, \"6\": {\"In\": 1}, \"7\": {\"In\": 1}, \"8\": {\"O\": 1}, \"9\": {\"O\": 1}, \"10\": {\"O\": 1}, \"11\": {\"O\": 1}, \"12\": {\"O\": 1}, \"13\": {\"O\": 1}, \"14\": {\"O\": 1}, \"15\": {\"O\": 1}, \"16\": {\"O\": 1}, \"17\": {\"O\": 1}, \"18\": {\"O\": 1}, \"19\": {\"O\": 1}}" n_minim_iter=5 energy=-22574.979544071062 stress="-0.005037582978457231 8.176890788468523e-13 -1.1633335959104472e-12 8.176890788468523e-13 -0.00477219272557481 2.9577871723010967e-12 -1.1633335959104472e-12 2.9577871723010967e-12 -0.0024246275670663244" free_energy=-22574.979544071062 pbc="T T T"
In       1.37672284       3.01626067       0.98439801        0       0.00275592      -0.01783209       0.02204937
In       1.43725708       0.13893625       3.15530800        1      -0.00275592      -0.01783209      -0.02204937
In       1.43725708       2.73838818       5.12410402        2      -0.00275592       0.01783209       0.02204937
In       1.37672284       5.61571260       7.29501400        3       0.00275592       0.01783209      -0.02204937
In       4.25123700       2.73838818       7.29501400        4      -0.00275592       0.01783209      -0.02204937
In       4.19070276       5.61571260       5.12410402        5       0.00275592       0.01783209       0.02204937
In       4.19070276       3.01626067       3.15530800        6       0.00275592      -0.01783209      -0.02204937
In       4.25123700       0.13893625       0.98439801        7      -0.00275591      -0.01783209       0.02204937
O        2.20487678       3.50675963       7.03914267        8      -0.02611515      -0.04137297      -0.00899921
O        0.60910314       0.62943520       5.37997535        9       0.02611515      -0.04137297       0.00899921
O        0.60910314       2.24788922       2.89943666       10       0.02611515       0.04137297      -0.00899921
O        2.20487678       5.12521365       1.24026934       11      -0.02611515       0.04137297       0.00899921
O        3.42308306       2.24788922       1.24026934       12       0.02611515       0.04137297       0.00899921
O        5.01885670       5.12521365       2.89943666       13      -0.02611515       0.04137297      -0.00899921
O        5.01885670       3.50675963       5.37997535       14      -0.02611515      -0.04137297       0.00899921
O        3.42308306       0.62943520       7.03914267       15       0.02611515      -0.04137297      -0.00899921
O        5.40095921       4.31598664      -0.00000000       16      -0.00186226       0.00000000       0.00000000
O        3.04098055       1.43866221       4.13970601       17       0.00186226      -0.00000000      -0.00000000
O        0.22700063       1.43866221      -0.00000000       18       0.00186226      -0.00000000       0.00000000
O        2.58697929       4.31598664       4.13970601       19      -0.00186226       0.00000000       0.00000000
20
Lattice="5.633161878005082 1.1945247322490174e-60 -7.951193309529444e-43 4.67472283806827e-59 5.758033825159831 3.882463995180753e-16 5.322275633446822e-43 3.7788786217716755e-16 8.266903534292329" Properties=species:S:1:pos:R:3:spacegroup_kinds:I:1:forces:R:3 spacegroup="P 1" unit_cell=conventional occupancy="_JSON {\"0\": {\"In\": 1}, \"1\": {\"In\": 1}, \"2\": {\"In\": 1}, \"3\": {\"In\": 1}, \"4\": {\"In\": 1}, \"5\": {\"In\": 1}, \"6\": {\"In\": 1}, \"7\": {\"In\": 1}, \"8\": {\"O\": 1}, \"9\": {\"O\": 1}, \"10\": {\"O\": 1}, \"11\": {\"O\": 1}, \"12\": {\"O\": 1}, \"13\": {\"O\": 1}, \"14\": {\"O\": 1}, \"15\": {\"O\": 1}, \"16\": {\"O\": 1}, \"17\": {\"O\": 1}, \"18\": {\"O\": 1}, \"19\": {\"O\": 1}}" n_minim_iter=6 energy=-22574.98065063425 stress="-0.0038341899742186016 -8.032093730405047e-13 -2.284294239735495e-12 -8.032093730405047e-13 -0.0037671381988573613 1.1249016928128253e-12 -2.284294239735495e-12 1.1249016928128253e-12 -0.0029990344139135395" free_energy=-22574.98065063425 pbc="T T T"
In       1.37832898       3.01799843       0.98127031        0       0.01497604      -0.00393674       0.02659336
In       1.43825195       0.13898152       3.15218146        1      -0.01497604      -0.00393674      -0.02659336
In       1.43825195       2.74003539       5.11472208        2      -0.01497604       0.00393674       0.02659336
In       1.37832898       5.61905230       7.28563322        3       0.01497604       0.00393674      -0.02659336
In       4.25483289       2.74003539       7.28563322        4      -0.01497604       0.00393674      -0.02659336
In       4.19490992       5.61905230       5.11472208        5       0.01497604       0.00393674       0.02659336
In       4.19490992       3.01799843       3.15218146        6       0.01497604      -0.00393674      -0.02659336
In       4.25483289       0.13898152       0.98127031        7      -0.01497604      -0.00393674       0.02659336
O        2.20603831       3.50686367       7.02880776        8      -0.01809709      -0.03386182       0.00241526
O        0.61054263       0.62784676       5.37154754        9       0.01809709      -0.03386182      -0.00241526
O        0.61054263       2.25117016       2.89535599       10       0.01809709       0.03386182       0.00241526
O        2.20603831       5.13018707       1.23809577       11      -0.01809709       0.03386182      -0.00241526
O        3.42712357       2.25117016       1.23809577       12       0.01809709       0.03386182      -0.00241526
O        5.02261925       5.13018707       2.89535599       13      -0.01809709       0.03386182       0.00241526
O        5.02261925       3.50686367       5.37154754       14      -0.01809709      -0.03386182      -0.00241526
O        3.42712357       0.62784676       7.02880776       15       0.01809709      -0.03386182       0.00241526
O        5.40526043       4.31852537      -0.00000000       16       0.00963455       0.00000000       0.00000000
O        3.04448239       1.43950846       4.13345177       17      -0.00963455       0.00000000      -0.00000000
O        0.22790145       1.43950846      -0.00000000       18      -0.00963455       0.00000000      -0.00000000
O        2.58867949       4.31852537       4.13345177       19       0.00963455       0.00000000       0.00000000
20
Lattice="5.637072573024649 9.482664156269777e-59 -7.1083490639981675e-43 3.1492373806433495e-59 5.7596978994460795 -2.3178803581530875e-17 5.290988961761349e-43 -2.2242286528592855e-16 8.258781613788733" Properties=species:S:1:pos:R:3:spacegroup_kinds:I:1:forces:R:3 spacegroup="P 1" unit_cell=conventional occupancy="_JSON {\"0\": {\"In\": 1}, \"1\": {\"In\": 1}, \"2\": {\"In\": 1}, \"3\": {\"In\": 1}, \"4\": {\"In\": 1}, \"5\": {\"In\": 1}, \"6\": {\"In\": 1}, \"7\": {\"In\": 1}, \"8\": {\"O\": 1}, \"9\": {\"O\": 1}, \"10\": {\"O\": 1}, \"11\": {\"O\": 1}, \"12\": {\"O\": 1}, \"13\": {\"O\": 1}, \"14\": {\"O\": 1}, \"15\": {\"O\": 1}, \"16\": {\"O\": 1}, \"17\": {\"O\": 1}, \"18\": {\"O\": 1}, \"19\": {\"O\": 1}}" n_minim_iter=7 energy=-22574.98122998787 stress="-0.0030999886894599016 4.350276512897769e-12 1.5723977223554942e-12 4.350276512897769e-12 -0.0030858698759873735 -1.3985779487426478e-12 1.5723977223554942e-12 -1.3985779487426478e-12 -0.003514802671784762" free_energy=-22574.98122998787 pbc="T T T"
In       1.37973461       3.01863618       0.97944024        0       0.02040515       0.00974773       0.02606804
In       1.43880168       0.13878723       3.14995057        1      -0.02040515       0.00974773      -0.02606804
In       1.43880168       2.74106172       5.10883104        2      -0.02040515      -0.00974773       0.02606804
In       1.37973461       5.62091066       7.27934138        3       0.02040515      -0.00974773      -0.02606804
In       4.25733796       2.74106172       7.27934138        4      -0.02040515      -0.00974773      -0.02606804
In       4.19827090       5.62091066       5.10883104        5       0.02040515      -0.00974773       0.02606804
In       4.19827090       3.01863618       3.14995057        6       0.02040515       0.00974773      -0.02606804
In       4.25733796       0.13878723       0.97944024        7      -0.02040515       0.00974773       0.02606804
O        2.20654674       3.50559025       7.02229121        8      -0.01066610      -0.02499591       0.01091058
O        0.61198955       0.62574130       5.36588121        9       0.01066610      -0.02499591      -0.01091058
O        0.61198955       2.25410764       2.89290040       10       0.01066610       0.02499591       0.01091058
O        2.20654674       5.13395659       1.23649040       11      -0.01066610       0.02499591      -0.01091058
O        3.43052583       2.25410764       1.23649040       12       0.01066610       0.02499591      -0.01091058
O        5.02508303       5.13395659       2.89290040       13      -0.01066610       0.02499591       0.01091058
O        5.02508303       3.50559025       5.36588121       14      -0.01066610      -0.02499591      -0.01091058
O        3.43052583       0.62574130       7.02229121       15       0.01066610      -0.02499591       0.01091058
O        5.40850395       4.31977342      -0.00000000       16       0.01767528      -0.00000000      -0.00000000
O        3.04710491       1.43992447       4.12939081       17      -0.01767528       0.00000000      -0.00000000
O        0.22856862       1.43992447      -0.00000000       18      -0.01767528       0.00000000       0.00000000
O        2.58996766       4.31977342       4.12939081       19       0.01767528       0.00000000      -0.00000000
20
Lattice="5.643236173685842 8.774703502340124e-59 -1.0140623900767792e-42 4.2095267993593145e-59 5.758673325010701 1.9050567063138135e-16 3.967733417383361e-43 8.976388436350473e-17 8.251229072496217" Properties=species:S:1:pos:R:3:spacegroup_kinds:I:1:forces:R:3 spacegroup="P 1" unit_cell=conventional occupancy="_JSON {\"0\": {\"In\": 1}, \"1\": {\"In\": 1}, \"2\": {\"In\": 1}, \"3\": {\"In\": 1}, \"4\": {\"In\": 1}, \"5\": {\"In\": 1}, \"6\": {\"In\": 1}, \"7\": {\"In\": 1}, \"8\": {\"O\": 1}, \"9\": {\"O\": 1}, \"10\": {\"O\": 1}, \"11\": {\"O\": 1}, \"12\": {\"O\": 1}, \"13\": {\"O\": 1}, \"14\": {\"O\": 1}, \"15\": {\"O\": 1}, \"16\": {\"O\": 1}, \"17\": {\"O\": 1}, \"18\": {\"O\": 1}, \"19\": {\"O\": 1}}" n_minim_iter=8 energy=-22574.981962966394 stress="-0.0023119560535701162 6.14722594819644e-13 2.3776457828198873e-12 6.14722594819644e-13 -0.002368134600401535 -1.3201010571177288e-12 2.3776457828198873e-12 -1.3201010571177288e-12 -0.004044517305695566" free_energy=-22574.981962966394 pbc="T T T"
In       1.38279448       3.01784677       0.97817071        0       0.01228096       0.02887943       0.01643403
In       1.43882361       0.13851010       3.14744382        1      -0.01228096       0.02887943      -0.01643403
In       1.43882361       2.74082656       5.10378525        2      -0.01228096      -0.02887943       0.01643403
In       1.38279448       5.62016322       7.27305836        3       0.01228096      -0.02887943      -0.01643403
In       4.26044169       2.74082656       7.27305836        4      -0.01228096      -0.02887943      -0.01643403
In       4.20441257       5.62016322       5.10378525        5       0.01228096      -0.02887943       0.01643403
In       4.20441257       3.01784677       3.14744382        6       0.01228096       0.02887943      -0.01643403
In       4.26044169       0.13851010       0.97817071        7      -0.01228096       0.02887943       0.01643403
O        2.20643515       3.49935115       7.01699102        8       0.00320869      -0.00628582       0.02107074
O        0.61518294       0.62001449       5.35985259        9      -0.00320869      -0.00628582      -0.02107074
O        0.61518294       2.25932217       2.89137648       10      -0.00320869       0.00628582       0.02107074
O        2.20643515       5.13865884       1.23423805       11       0.00320869       0.00628582      -0.02107074
O        3.43680103       2.25932217       1.23423805       12      -0.00320869       0.00628582      -0.02107074
O        5.02805323       5.13865884       2.89137648       13       0.00320869       0.00628582       0.02107074
O        5.02805323       3.49935115       5.35985259       14       0.00320869      -0.00628582      -0.02107074
O        3.43680103       0.62001449       7.01699102       15      -0.00320869      -0.00628582       0.02107074
O        5.41409940       4.31900499      -0.00000000       16       0.02228059      -0.00000000      -0.00000000
O        3.05075486       1.43966833       4.12561454       17      -0.02228059      -0.00000000      -0.00000000
O        0.22913677       1.43966833      -0.00000000       18      -0.02228059      -0.00000000       0.00000000
O        2.59248131       4.31900499       4.12561454       19       0.02228059      -0.00000000       0.00000000
20
Lattice="5.6414543743353756 1.0664520146291991e-58 -5.011913498758172e-43 7.671875984401361e-59 5.752382550083665 2.2781160568429824e-16 2.6738068033975624e-43 1.4379489270772502e-16 8.262861494362477" Properties=species:S:1:pos:R:3:spacegroup_kinds:I:1:forces:R:3 spacegroup="P 1" unit_cell=conventional occupancy="_JSON {\"0\": {\"In\": 1}, \"1\": {\"In\": 1}, \"2\": {\"In\": 1}, \"3\": {\"In\": 1}, \"4\": {\"In\": 1}, \"5\": {\"In\": 1}, \"6\": {\"In\": 1}, \"7\": {\"In\": 1}, \"8\": {\"O\": 1}, \"9\": {\"O\": 1}, \"10\": {\"O\": 1}, \"11\": {\"O\": 1}, \"12\": {\"O\": 1}, \"13\": {\"O\": 1}, \"14\": {\"O\": 1}, \"15\": {\"O\": 1}, \"16\": {\"O\": 1}, \"17\": {\"O\": 1}, \"18\": {\"O\": 1}, \"19\": {\"O\": 1}}" n_minim_iter=9 energy=-22574.982730262178 stress="-0.003089509399617078 4.450335539952938e-13 2.3328019307741115e-12 4.450335539952938e-13 -0.003163672061659092 7.673312631539343e-13 2.3328019307741115e-12 7.673312631539343e-13 -0.002982003481529931" free_energy=-22574.982730262178 pbc="T T T"
In       1.38338854       3.01525668       0.98157279        0      -0.01585422       0.01551476       0.00234291
In       1.43733865       0.13906541       3.14985796        1       0.01585422       0.01551476      -0.00234291
In       1.43733865       2.73712587       5.11300354        2       0.01585422      -0.01551476       0.00234291
In       1.38338854       5.61331714       7.28128870        3      -0.01585422      -0.01551476      -0.00234291
In       4.25806584       2.73712587       7.28128870        4       0.01585422      -0.01551476      -0.00234291
In       4.20411572       5.61331714       5.11300354        5      -0.01585422      -0.01551476       0.00234291
In       4.20411572       3.01525668       3.14985796        6      -0.01585422       0.01551476      -0.00234291
In       4.25806584       0.13906541       0.98157279        7       0.01585422       0.01551476       0.00234291
O        2.20478270       3.49330886       7.02769204        8       0.00300154      -0.00363412       0.01113578
O        0.61594449       0.61711758       5.36660020        9      -0.00300154      -0.00363412      -0.01113578
O        0.61594449       2.25907369       2.89626129       10      -0.00300154       0.00363412       0.01113578
O        2.20478270       5.13526497       1.23516946       11       0.00300154       0.00363412      -0.01113578
O        3.43667168       2.25907369       1.23516946       12      -0.00300154       0.00363412      -0.01113578
O        5.02550988       5.13526497       2.89626129       13       0.00300154       0.00363412       0.01113578
O        5.02550988       3.49330886       5.36660020       14       0.00300154      -0.00363412      -0.01113578
O        3.43667168       0.61711758       7.02769204       15      -0.00300154      -0.00363412       0.01113578
O        5.41359540       4.31428691      -0.00000000       16       0.00268462       0.00000000      -0.00000000
O        3.04858617       1.43809564       4.13143075       17      -0.00268463      -0.00000000       0.00000000
O        0.22785898       1.43809564      -0.00000000       18      -0.00268463      -0.00000000      -0.00000000
O        2.59286821       4.31428691       4.13143075       19       0.00268463       0.00000000      -0.00000000
20