20
Lattice="6.126426619028938 4.195614841885e-58 2.2046582152420174e-42 -1.6684955873868845e-58 5.922584779670046 -6.63457434013228e-16 -3.2049265213448315e-42 9.976674898633318e-16 8.906027708355408" Properties=species:S:1:pos:R:3:spacegroup_kinds:I:1:forces:R:3 spacegroup="P 1" unit_cell=conventional occupancy="_JSON {\"0\": {\"In\": 1}, \"1\": {\"In\": 1}, \"2\": {\"In\": 1}, \"3\": {\"In\": 1}, \"4\": {\"In\": 1}, \"5\": {\"In\": 1}, \"6\": {\"In\": 1}, \"7\": {\"In\": 1}, \"8\": {\"O\": 1}, \"9\": {\"O\": 1}, \"10\": {\"O\": 1}, \"11\": {\"O\": 1}, \"12\": {\"O\": 1}, \"13\": {\"O\": 1}, \"14\": {\"O\": 1}, \"15\": {\"O\": 1}, \"16\": {\"O\": 1}, \"17\": {\"O\": 1}, \"18\": {\"O\": 1}, \"19\": {\"O\": 1}}" n_minim_iter=1 energy=-22574.74277854676 stress="0.08044621809395325 -5.949402442357278e-14 -4.848627910814394e-13 -5.949402442357278e-14 0.08644533463034305 -9.144007714433845e-14 -4.848627910814394e-13 -9.144007714433845e-14 0.08763742050491767" free_energy=-22574.74277854676 pbc="T T T"
In       1.13396336       3.18717543       1.25063387        0      -0.00056964       0.18787223       0.29711686
In       1.92924995       0.22588304       3.20237998        1       0.00056964       0.18787223      -0.29711686
In       1.92924995       2.73540935       5.70364773        2       0.00056964      -0.18787223       0.29711686
In       1.13396336       5.69670174       7.65539383        3      -0.00056964      -0.18787223      -0.29711686
In       4.99246326       2.73540935       7.65539383        4       0.00056964      -0.18787223      -0.29711686
In       4.19717667       5.69670174       5.70364773        5      -0.00056964      -0.18787223       0.29711686
In       4.19717667       3.18717543       3.20237998        6      -0.00056964       0.18787223      -0.29711686
In       4.99246326       0.22588304       1.25063387        7       0.00056964       0.18787223       0.29711686
O        2.35623212       3.99181489       7.44825254        8      -0.09462094       0.10967359      -0.16546305
O        0.70698119       1.03052250       5.91078902        9       0.09462094       0.10967359       0.16546305
O        0.70698119       1.93076989       2.99523869       10       0.09462094      -0.10967359      -0.16546305
O        2.35623212       4.89206228       1.45777517       11      -0.09462094      -0.10967359       0.16546305
O        3.77019449       1.93076989       1.45777517       12       0.09462094      -0.10967359       0.16546305
O        5.41944543       4.89206228       2.99523869       13      -0.09462094      -0.10967359      -0.16546305
O        5.41944543       3.99181489       5.91078902       14      -0.09462094       0.10967359       0.16546305
O        3.77019449       1.03052250       7.44825254       15       0.09462094       0.10967359      -0.16546305
O        5.68733533       4.44193858      -0.00000000       16      -0.05062516       0.00000000       0.00000000
O        3.50230460       1.48064619       4.45301385       17       0.05062516      -0.00000000       0.00000000
O        0.43909129       1.48064619      -0.00000000       18       0.05062516       0.00000000       0.00000000
O        2.62412202       4.44193858       4.45301385       19      -0.05062516      -0.00000000      -0.00000000
20
Lattice="6.149917133455729 4.173839772774948e-58 2.1899495048343432e-42 -1.6492711045323746e-58 5.914330406904366 -6.651031957525478e-16 -3.204432243471949e-42 9.913789968019409e-16 8.884392100402533" Properties=species:S:1:pos:R:3:spacegroup_kinds:I:1:forces:R:3 spacegroup="P 1" unit_cell=conventional occupancy="_JSON {\"0\": {\"In\": 1}, \"1\": {\"In\": 1}, \"2\": {\"In\": 1}, \"3\": {\"In\": 1}, \"4\": {\"In\": 1}, \"5\": {\"In\": 1}, \"6\": {\"In\": 1}, \"7\": {\"In\": 1}, \"8\": {\"O\": 1}, \"9\": {\"O\": 1}, \"10\": {\"O\": 1}, \"11\": {\"O\": 1}, \"12\": {\"O\": 1}, \"13\": {\"O\": 1}, \"14\": {\"O\": 1}, \"15\": {\"O\": 1}, \"16\": {\"O\": 1}, \"17\": {\"O\": 1}, \"18\": {\"O\": 1}, \"19\": {\"O\": 1}}" n_minim_iter=2 energy=-22574.748855760034 stress="0.0847542944310343 -1.7792467125989093e-12 5.775895047144071e-13 -1.7792467125989093e-12 0.08303946866603078 -1.8387923843562262e-13 5.775895047144071e-13 -1.8387923843562262e-13 0.08135660350948552" free_energy=-22574.748855760034 pbc="T T T"
In       1.13830976       3.18323876       1.24839402        0       0.02266529       0.17620463       0.29237013
In       1.93664880       0.22607355       3.19380203        1      -0.02266529       0.17620463      -0.29237013
In       1.93664880       2.73109165       5.69059007        2      -0.02266529      -0.17620463       0.29237013
In       1.13830976       5.68825685       7.63599808        3       0.02266529      -0.17620463      -0.29237013
In       5.01160737       2.73109165       7.63599808        4      -0.02266529      -0.17620463      -0.29237013
In       4.21326833       5.68825685       5.69059007        5       0.02266529      -0.17620463       0.29237013
In       4.21326833       3.18323876       3.19380203        6       0.02266529       0.17620463      -0.29237013
In       5.01160737       0.22607355       1.24839402        7      -0.02266529       0.17620463       0.29237013
O        2.36501077       3.98654644       7.42971374        8      -0.05662121       0.12314023      -0.13774321
O        0.70994780       1.02938124       5.89687441        9       0.05662121       0.12314023       0.13774321
O        0.70994780       1.92778396       2.98751769       10       0.05662121      -0.12314023      -0.13774321
O        2.36501077       4.88494917       1.45467836       11      -0.05662121      -0.12314023       0.13774321
O        3.78490636       1.92778396       1.45467836       12       0.05662121      -0.12314023       0.13774321
O        5.43996934       4.88494917       2.98751769       13      -0.05662121      -0.12314023      -0.13774321
O        5.43996934       3.98654644       5.89687441       14      -0.05662121       0.12314023       0.13774321
O        3.78490636       1.02938124       7.42971374       15       0.05662121       0.12314023      -0.13774321
O        5.70900536       4.43574781      -0.00000000       16      -0.07711768       0.00000000       0.00000000
O        3.51587034       1.47858260       4.44219605       17       0.07711768      -0.00000000       0.00000000
O        0.44091177       1.47858260      -0.00000000       18       0.07711768       0.00000000       0.00000000
O        2.63404679       4.43574781       4.44219605       19      -0.07711768      -0.00000000      -0.00000000
20
Lattice="6.152893695072389 4.1603561077564105e-58 2.1848609373372127e-42 -1.6978988415093175e-58 5.896544813106708 -6.624039862578497e-16 -3.279934480306001e-42 9.9497669450597e-16 8.906878927878017" Properties=species:S:1:pos:R:3:spacegroup_kinds:I:1:forces:R:3 spacegroup="P 1" unit_cell=conventional occupancy="_JSON {\"0\": {\"In\": 1}, \"1\": {\"In\": 1}, \"2\": {\"In\": 1}, \"3\": {\"In\": 1}, \"4\": {\"In\": 1}, \"5\": {\"In\": 1}, \"6\": {\"In\": 1}, \"7\": {\"In\": 1}, \"8\": {\"O\": 1}, \"9\": {\"O\": 1}, \"10\": {\"O\": 1}, \"11\": {\"O\": 1}, \"12\": {\"O\": 1}, \"13\": {\"O\": 1}, \"14\": {\"O\": 1}, \"15\": {\"O\": 1}, \"16\": {\"O\": 1}, \"17\": {\"O\": 1}, \"18\": {\"O\": 1}, \"19\": {\"O\": 1}}" n_minim_iter=3 energy=-22574.7606122266 stress="0.08100177022937495 8.799018126494505e-13 2.1194512322380736e-12 8.799018126494505e-13 0.07162919928256126 1.7680384681574347e-12 2.1194512322380736e-12 1.7680384681574347e-12 0.08469099965618604" free_energy=-22574.7606122266 pbc="T T T"
In       1.13918579       3.17729012       1.25750333        0      -0.02027207       0.05755028       0.08083781
In       1.93726106       0.22901771       3.19593613        1       0.02027207       0.05755028      -0.08083781
In       1.93726106       2.71925470       5.71094280        2       0.02027207      -0.05755028       0.08083781
In       1.13918579       5.66752710       7.64937559        3      -0.02027207      -0.05755028      -0.08083781
In       5.01370791       2.71925470       7.64937559        4       0.02027207      -0.05755028      -0.08083781
In       4.21563263       5.66752710       5.71094280        5      -0.02027207      -0.05755028       0.08083781
In       4.21563263       3.17729012       3.19593613        6      -0.02027207       0.05755028      -0.08083781
In       5.01370791       0.22901771       1.25750333        7       0.02027207       0.05755028       0.08083781
O        2.36477307       3.97696346       7.44556504        8       0.01201343       0.03278467      -0.09476422
O        0.71167378       1.02869105       5.91475335        9      -0.01201343       0.03278467       0.09476422
O        0.71167378       1.91958136       2.99212558       10      -0.01201343      -0.03278467      -0.09476422
O        2.36477307       4.86785376       1.46131389       11       0.01201343      -0.03278467       0.09476422
O        3.78812062       1.91958136       1.46131389       12      -0.01201343      -0.03278467       0.09476422
O        5.44121992       4.86785376       2.99212558       13       0.01201343      -0.03278467      -0.09476422
O        5.44121992       3.97696346       5.91475335       14       0.01201343       0.03278467       0.09476422
O        3.78812062       1.02869105       7.44556504       15      -0.01201343       0.03278467      -0.09476422
O        5.71035035       4.42240861      -0.00000000       16      -0.07959596       0.00000000      -0.00000000
O        3.51899019       1.47413620       4.45343946       17       0.07959596      -0.00000000      -0.00000000
O        0.44254334       1.47413620      -0.00000000       18       0.07959596       0.00000000      -0.00000000
O        2.63390351       4.42240861       4.45343946       19      -0.07959596      -0.00000000       0.00000000
20
Lattice="6.143953770323923 4.1658428246162344e-58 2.1327385809349243e-42 -1.5962766177973827e-58 5.921255990961185 -6.317399468102363e-16 -3.121045592323502e-42 1.0411041144045125e-15 8.882613956047777" Properties=species:S:1:pos:R:3:spacegroup_kinds:I:1:forces:R:3 spacegroup="P 1" unit_cell=conventional occupancy="_JSON {\"0\": {\"In\": 1}, \"1\": {\"In\": 1}, \"2\": {\"In\": 1}, \"3\": {\"In\": 1}, \"4\": {\"In\": 1}, \"5\": {\"In\": 1}, \"6\": {\"In\": 1}, \"7\": {\"In\": 1}, \"8\": {\"O\": 1}, \"9\": {\"O\": 1}, \"10\": {\"O\": 1}, \"11\": {\"O\": 1}, \"12\": {\"O\": 1}, \"13\": {\"O\": 1}, \"14\": {\"O\": 1}, \"15\": {\"O\": 1}, \"16\": {\"O\": 1}, \"17\": {\"O\": 1}, \"18\": {\"O\": 1}, \"19\": {\"O\": 1}}" n_minim_iter=4 energy=-22574.77292988183 stress="0.07583360655434043 9.45219214867586e-13 2.622896804860681e-12 9.45219214867586e-13 0.07491063330925779 -6.794201654243692e-13 2.622896804860681e-12 -6.794201654243692e-13 0.07630242876042385" free_energy=-22574.77292988183 pbc="T T T"
In       1.13776287       3.19399445       1.25956807        0      -0.03600312       0.00857003      -0.03180895
In       1.93421401       0.23336646       3.18173891        1       0.03600312       0.00857003       0.03180895
In       1.93421401       2.72726154       5.70087505        2       0.03600312      -0.00857003      -0.03180895
In       1.13776287       5.68788953       7.62304589        3      -0.03600312      -0.00857003       0.03180895
In       5.00619090       2.72726154       7.62304589        4       0.03600312      -0.00857003       0.03180895
In       4.20973976       5.68788953       5.70087505        5      -0.03600312      -0.00857003      -0.03180895
In       4.20973976       3.19399445       3.18173891        6      -0.03600312       0.00857003       0.03180895
In       5.00619090       0.23336646       1.25956807        7       0.03600312       0.00857003      -0.03180895
O        2.36014972       3.99586595       7.42240373        8       0.01870922      -0.01689353      -0.00483921
O        0.71182716       1.03523796       5.90151720        9      -0.01870922      -0.01689353       0.00483921
O        0.71182716       1.92539004       2.98109676       10      -0.01870922       0.01689353      -0.00483921
O        2.36014972       4.88601803       1.46021022       11       0.01870922       0.01689353       0.00483921
O        3.78380405       1.92539004       1.46021022       12      -0.01870922       0.01689353       0.00483921
O        5.43212661       4.88601803       2.98109676       13       0.01870922       0.01689353      -0.00483921
O        5.43212661       3.99586595       5.90151720       14       0.01870922      -0.01689353       0.00483921
O        3.78380405       1.03523796       7.42240373       15      -0.01870922      -0.01689353      -0.00483921
O        5.70056901       4.44094199      -0.00000000       16      -0.06621363       0.00000000       0.00000000
O        3.51536164       1.48031400       4.44130698       17       0.06621363      -0.00000000      -0.00000000
O        0.44338476       1.48031400      -0.00000000       18       0.06621363      -0.00000000      -0.00000000
O        2.62859213       4.44094199       4.44130698       19      -0.06621363      -0.00000000       0.00000000
20
Lattice="6.1422041949876975 5.271161523843208e-58 2.617291865569672e-42 -1.3568810619950029e-58 5.9254453444036 -6.394412521254719e-16 -2.8828746030531684e-42 1.0298644589446902e-15 8.87886223079915" Properties=species:S:1:pos:R:3:spacegroup_kinds:I:1:forces:R:3 spacegroup="P 1" unit_cell=conventional occupancy="_JSON {\"0\": {\"In\": 1}, \"1\": {\"In\": 1}, \"2\": {\"In\": 1}, \"3\": {\"In\": 1}, \"4\": {\"In\": 1}, \"5\": {\"In\": 1}, \"6\": {\"In\": 1}, \"7\": {\"In\": 1}, \"8\": {\"O\": 1}, \"9\": {\"O\": 1}, \"10\": {\"O\": 1}, \"11\": {\"O\": 1}, \"12\": {\"O\": 1}, \"13\": {\"O\": 1}, \"14\": {\"O\": 1}, \"15\": {\"O\": 1}, \"16\": {\"O\": 1}, \"17\": {\"O\": 1}, \"18\": {\"O\": 1}, \"19\": {\"O\": 1}}" n_minim_iter=5 energy=-22574.773696702512 stress="0.07610330861707319 -2.1756853495336254e-12 -1.0298759373177227e-12 -2.1756853495336254e-12 0.07725572142496435 3.043997760311209e-13 -1.0298759373177227e-12 3.043997760311209e-13 0.0755432982534837" free_energy=-22574.773696702512 pbc="T T T"
In       1.13638537       3.19637277       1.25785643        0      -0.00760546       0.02444537       0.01072160
In       1.93471673       0.23365010       3.18157468        1       0.00760546       0.02444537      -0.01072160
In       1.93471673       2.72907257       5.69728755        2       0.00760546      -0.02444537       0.01072160
In       1.13638537       5.69179524       7.62100580        3      -0.00760546      -0.02444537      -0.01072160
In       5.00581882       2.72907257       7.62100580        4       0.00760546      -0.02444537      -0.01072160
In       4.20748747       5.69179524       5.69728755        5      -0.00760546      -0.02444537       0.01072160
In       4.20748747       3.19637277       3.18157468        6      -0.00760546       0.02444537      -0.01072160
In       5.00581882       0.23365010       1.25785643        7       0.00760546       0.02444537       0.01072160
O        2.36002688       3.99809313       7.41938679        8      -0.00210256      -0.00072260      -0.00342662
O        0.71107521       1.03537046       5.89890655        9       0.00210256      -0.00072261       0.00342662
O        0.71107521       1.92735222       2.97995568       10       0.00210256       0.00072261      -0.00342662
O        2.36002688       4.89007489       1.45947544       11      -0.00210256       0.00072261       0.00342662
O        3.78217731       1.92735222       1.45947544       12       0.00210256       0.00072260       0.00342662
O        5.43112898       4.89007489       2.97995568       13      -0.00210256       0.00072260      -0.00342662
O        5.43112898       3.99809313       5.89890655       14      -0.00210256      -0.00072261       0.00342662
O        3.78217731       1.03537046       7.41938679       15       0.00210256      -0.00072260      -0.00342662
O        5.69709938       4.44408401      -0.00000000       16      -0.04909796       0.00000000      -0.00000000
O        3.51620691       1.48136134       4.43943112       17       0.04909796       0.00000000       0.00000000
O        0.44510481       1.48136134      -0.00000000       18       0.04909796      -0.00000000       0.00000000
O        2.62599729       4.44408401       4.43943112       19      -0.04909796      -0.00000000       0.00000000
20
Lattice="6.143610318989502 5.438941061508733e-58 2.618080072504349e-42 -1.2749913651022816e-58 5.922116533027451 -6.559665009329416e-16 -2.942214803626247e-42 1.0047615802734603e-15 8.881819724410231" Properties=species:S:1:pos:R:3:spacegroup_kinds:I:1:forces:R:3 spacegroup="P 1" unit_cell=conventional occupancy="_JSON {\"0\": {\"In\": 1}, \"1\": {\"In\": 1}, \"2\": {\"In\": 1}, \"3\": {\"In\": 1}, \"4\": {\"In\": 1}, \"5\": {\"In\": 1}, \"6\": {\"In\": 1}, \"7\": {\"In\": 1}, \"8\": {\"O\": 1}, \"9\": {\"O\": 1}, \"10\": {\"O\": 1}, \"11\": {\"O\": 1}, \"12\": {\"O\": 1}, \"13\": {\"O\": 1}, \"14\": {\"O\": 1}, \"15\": {\"O\": 1}, \"16\": {\"O\": 1}, \"17\": {\"O\": 1}, \"18\": {\"O\": 1}, \"19\": {\"O\": 1}}" n_minim_iter=6 energy=-22574.77449572148 stress="0.07566539711521819 1.7836608820753648e-13 6.797921110446901e-13 1.7836608820753648e-13 0.07554541770855984 -1.3335899220035416e-12 6.797921110446901e-13 -1.3335899220035416e-12 0.07566935897098029" free_energy=-22574.77449572148 pbc="T T T"
In       1.13517106       3.19630807       1.25840831        0       0.02086438      -0.00268663       0.00332682
In       1.93663410       0.23524981       3.18250155        1      -0.02086438      -0.00268663      -0.00332682
In       1.93663410       2.72580846       5.69931818        2      -0.02086438       0.00268663       0.00332682
In       1.13517106       5.68686673       7.62341141        3       0.02086438       0.00268663      -0.00332682
In       5.00843926       2.72580846       7.62341141        4      -0.02086438       0.00268663      -0.00332682
In       4.20697622       5.68686673       5.69931818        5       0.02086438       0.00268663       0.00332682
In       4.20697622       3.19630807       3.18250155        6       0.02086438      -0.00268663      -0.00332682
In       5.00843926       0.23524981       1.25840831        7      -0.02086438      -0.00268663       0.00332682
O        2.36096869       3.99555948       7.42111291        8      -0.00241767      -0.00870780       0.00889916
O        0.71083647       1.03450122       5.90161667        9       0.00241767      -0.00870780      -0.00889916
O        0.71083647       1.92655705       2.98020305       10       0.00241767       0.00870780       0.00889916
O        2.36096869       4.88761532       1.46070681       11      -0.00241767       0.00870780      -0.00889916
O        3.78264163       1.92655705       1.46070681       12       0.00241767       0.00870780      -0.00889916
O        5.43277385       4.88761532       2.98020305       13      -0.00241767       0.00870780       0.00889916
O        5.43277385       3.99555948       5.90161667       14      -0.00241767      -0.00870780      -0.00889916
O        3.78264163       1.03450122       7.42111291       15       0.00241767      -0.00870780       0.00889916
O        5.69395337       4.44158740      -0.00000000       16      -0.01924254       0.00000000       0.00000000
O        3.52146210       1.48052913       4.44090986       17       0.01924254       0.00000000       0.00000000
O        0.44965694       1.48052913      -0.00000000       18       0.01924254       0.00000000      -0.00000000
O        2.62214822       4.44158740       4.44090986       19      -0.01924254       0.00000000       0.00000000
20
Lattice="6.143829977494113 4.694612735218095e-58 2.296961643117466e-42 -1.5553380154149213e-58 5.92241880495287 -6.776511819553432e-16 -3.2916983485869846e-42 9.721173586847186e-16 8.881048876003568" Properties=species:S:1:pos:R:3:spacegroup_kinds:I:1:forces:R:3 spacegroup="P 1" unit_cell=conventional occupancy="_JSON {\"0\": {\"In\": 1}, \"1\": {\"In\": 1}, \"2\": {\"In\": 1}, \"3\": {\"In\": 1}, \"4\": {\"In\": 1}, \"5\": {\"In\": 1}, \"6\": {\"In\": 1}, \"7\": {\"In\": 1}, \"8\": {\"O\": 1}, \"9\": {\"O\": 1}, \"10\": {\"O\": 1}, \"11\": {\"O\": 1}, \"12\": {\"O\": 1}, \"13\": {\"O\": 1}, \"14\": {\"O\": 1}, \"15\": {\"O\": 1}, \"16\": {\"O\": 1}, \"17\": {\"O\": 1}, \"18\": {\"O\": 1}, \"19\": {\"O\": 1}}" n_minim_iter=7 energy=-22574.774748159936 stress="0.07548519983453805 6.188239071274293e-13 1.0588121545657103e-12 6.188239071274293e-13 0.07565097663268303 2.0462861515938205e-13 1.0588121545657103e-12 2.0462861515938205e-13 0.07571387290919304" free_energy=-22574.774748159936 pbc="T T T"
In       1.13627672       3.19671655       1.25845728        0      -0.00069021      -0.00563263       0.00180162
In       1.93563827       0.23550715       3.18206715        1       0.00069021      -0.00563263      -0.00180162
In       1.93563827       2.72570225       5.69898172        2       0.00069021       0.00563263       0.00180162
In       1.13627672       5.68691166       7.62259159        3      -0.00069021       0.00563263      -0.00180162
In       5.00755326       2.72570225       7.62259159        4       0.00069021       0.00563263      -0.00180162
In       4.20819171       5.68691166       5.69898172        5      -0.00069021       0.00563263       0.00180162
In       4.20819171       3.19671655       3.18206715        6      -0.00069021      -0.00563263      -0.00180162
In       5.00755326       0.23550715       1.25845728        7       0.00069021      -0.00563263       0.00180162
O        2.36099710       3.99500537       7.42096746        8      -0.00251808      -0.00234980      -0.00148037
O        0.71091789       1.03379597       5.90060586        9       0.00251808      -0.00234980       0.00148037
O        0.71091789       1.92741344       2.98044302       10       0.00251808       0.00234980      -0.00148037
O        2.36099710       4.88862284       1.46008142       11      -0.00251808       0.00234980       0.00148037
O        3.78283288       1.92741344       1.46008142       12       0.00251808       0.00234980       0.00148037
O        5.43291209       4.88862284       2.98044302       13      -0.00251808       0.00234980      -0.00148037
O        5.43291209       3.99500537       5.90060586       14      -0.00251808      -0.00234980       0.00148037
O        3.78283288       1.03379597       7.42096746       15       0.00251808      -0.00234980      -0.00148037
O        5.69153286       4.44181410      -0.00000000       16      -0.00346420      -0.00000000      -0.00000000
O        3.52421211       1.48060470       4.44052444       17       0.00346420       0.00000000       0.00000000
O        0.45229712       1.48060470      -0.00000000       18       0.00346420      -0.00000000      -0.00000000
O        2.61961787       4.44181410       4.44052444       19      -0.00346420       0.00000000      -0.00000000
