20
Lattice="5.451898278270167 1.4107461795905265e-58 -1.3053422991820739e-42 -7.5933929377177425e-59 5.488926293876163 -3.5945288637215467e-17 2.16128638387831e-42 2.3485518635197103e-16 7.8117525901065" Properties=species:S:1:pos:R:3:spacegroup_kinds:I:1:forces:R:3 spacegroup="P 1" unit_cell=conventional occupancy="_JSON {\"0\": {\"In\": 1}, \"1\": {\"In\": 1}, \"2\": {\"In\": 1}, \"3\": {\"In\": 1}, \"4\": {\"In\": 1}, \"5\": {\"In\": 1}, \"6\": {\"In\": 1}, \"7\": {\"In\": 1}, \"8\": {\"O\": 1}, \"9\": {\"O\": 1}, \"10\": {\"O\": 1}, \"11\": {\"O\": 1}, \"12\": {\"O\": 1}, \"13\": {\"O\": 1}, \"14\": {\"O\": 1}, \"15\": {\"O\": 1}, \"16\": {\"O\": 1}, \"17\": {\"O\": 1}, \"18\": {\"O\": 1}, \"19\": {\"O\": 1}}" n_minim_iter=17 energy=-22575.802977988184 stress="0.0902697555335108 -8.910078004538302e-13 -4.806145301325291e-13 -8.910078004538302e-13 0.09019711750517707 -4.404470424409931e-13 -4.806145301325291e-13 -4.404470424409931e-13 0.08998238437890352" free_energy=-22575.802977988184 pbc="T T T"
In       1.37881373       2.79655027       0.76728215        0       0.00153812       0.00299326      -0.00328855
In       1.34713541       0.05208712       3.13859415        1      -0.00153812       0.00299326       0.00328855
In       1.34713541       2.69237603       4.67315844        2      -0.00153812      -0.00299326      -0.00328855
In       1.37881373       5.43683917       7.04447044        3       0.00153812      -0.00299326       0.00328855
In       4.07308454       2.69237603       7.04447044        4      -0.00153812      -0.00299326       0.00328855
In       4.10476287       5.43683917       4.67315844        5       0.00153812      -0.00299326      -0.00328855
In       4.10476287       2.79655027       3.13859415        6       0.00153812       0.00299326       0.00328855
In       4.07308454       0.05208712       0.76728215        7      -0.00153812       0.00299326      -0.00328855
O        2.13259413       3.27343077       6.57514464        8       0.00279895      -0.00023141       0.00178263
O        0.59335501       0.52896762       5.14248424        9      -0.00279895      -0.00023141      -0.00178263
O        0.59335501       2.21549553       2.66926835       10      -0.00279895       0.00023141       0.00178263
O        2.13259413       4.95995867       1.23660795       11       0.00279895       0.00023141      -0.00178263
O        3.31930415       2.21549553       1.23660795       12      -0.00279895       0.00023141      -0.00178263
O        4.85854327       4.95995867       2.66926835       13       0.00279895       0.00023141       0.00178263
O        4.85854327       3.27343077       5.14248424       14       0.00279895      -0.00023141      -0.00178263
O        3.31930415       0.52896762       6.57514464       15      -0.00279895      -0.00023141       0.00178263
O        5.30060166       4.11669472      -0.00000000       16       0.00050408      -0.00000000       0.00000000
O        2.87724575       1.37223157       3.90587630       17      -0.00050408       0.00000000      -0.00000000
O        0.15129661       1.37223157      -0.00000000       18      -0.00050408       0.00000000      -0.00000000
O        2.57465252       4.11669472       3.90587630       19       0.00050408      -0.00000000       0.00000000
