20
Lattice="5.370316061205089 -2.4841515796516676e-58 1.850640913358784e-43 7.670241660403402e-59 5.63835043054716 1.0092069085567112e-15 1.0791592857956741e-42 -9.577251212685352e-16 6.811990764582694" Properties=species:S:1:pos:R:3:spacegroup_kinds:I:1:forces:R:3 spacegroup="P 1" unit_cell=conventional occupancy="_JSON {\"0\": {\"In\": 1}, \"1\": {\"In\": 1}, \"2\": {\"In\": 1}, \"3\": {\"In\": 1}, \"4\": {\"In\": 1}, \"5\": {\"In\": 1}, \"6\": {\"In\": 1}, \"7\": {\"In\": 1}, \"8\": {\"O\": 1}, \"9\": {\"O\": 1}, \"10\": {\"O\": 1}, \"11\": {\"O\": 1}, \"12\": {\"O\": 1}, \"13\": {\"O\": 1}, \"14\": {\"O\": 1}, \"15\": {\"O\": 1}, \"16\": {\"O\": 1}, \"17\": {\"O\": 1}, \"18\": {\"O\": 1}, \"19\": {\"O\": 1}}" n_minim_iter=11 energy=-22580.660626253757 stress="0.24377956898973527 1.6848737864349145e-12 -1.0308634641821658e-12 1.6848737864349145e-12 0.24388513881991666 1.7171320509854396e-12 -1.0308634641821658e-12 1.7171320509854396e-12 0.2437948055405048" free_energy=-22580.660626253757 pbc="T T T"
In       1.31644847       2.82095761       0.58320187        0       0.00301993       0.00271756      -0.00451270
In       1.36870956       0.00178240       2.82279351        1      -0.00301993       0.00271756       0.00451270
In       1.36870956       2.81739282       3.98919726        2      -0.00301993      -0.00271756      -0.00451270
In       1.31644847       5.63656803       6.22878889        3       0.00301993      -0.00271756       0.00451270
In       4.05386759       2.81739282       6.22878889        4      -0.00301993      -0.00271756       0.00451270
In       4.00160650       5.63656803       3.98919726        5       0.00301993      -0.00271756      -0.00451270
In       4.00160650       2.82095761       2.82279351        6       0.00301993       0.00271756       0.00451270
In       4.05386759       0.00178240       0.58320187        7      -0.00301993       0.00271756      -0.00451270
O        2.18778277       3.22983195       5.71759281        8       0.00170820       0.00204900       0.00398123
O        0.49737526       0.41065674       4.50039334        9      -0.00170820       0.00204900      -0.00398123
O        0.49737526       2.40851848       2.31159743       10      -0.00170820      -0.00204900       0.00398123
O        2.18778277       5.22769369       1.09439796       11       0.00170820      -0.00204900      -0.00398123
O        3.18253329       2.40851848       1.09439796       12      -0.00170820      -0.00204900      -0.00398123
O        4.87294080       5.22769369       2.31159743       13       0.00170820      -0.00204900       0.00398123
O        4.87294080       3.22983195       4.50039334       14       0.00170820       0.00204900      -0.00398123
O        3.18253329       0.41065674       5.71759281       15      -0.00170820       0.00204900       0.00398123
O        5.32663570       4.22876282      -0.00000000       16      -0.00613534      -0.00000000       0.00000000
O        2.72883839       1.40958761       3.40599538       17       0.00613534      -0.00000000       0.00000000
O        0.04368036       1.40958761      -0.00000000       18       0.00613534      -0.00000000      -0.00000000
O        2.64147767       4.22876282       3.40599538       19      -0.00613534      -0.00000000      -0.00000000
