1
Lattice="4.34079130521776 0.7863386262135406 -4.471849759286513e-10 1.0848783276010465 4.275960313757725 -9.175735960641934e-10 -2.7128348162489546 -2.531149469514259 2.386337615102835" Properties=species:S:1:pos:R:3:spacegroup_kinds:I:1:forces:R:3 spacegroup="P 1" unit_cell=conventional occupancy="_JSON {\"0\": {\"In\": 1}}" n_minim_iter=1 energy=-1970.1215291904791 stress="0.021607842755423448 0.0017217673154912624 -3.122074161759673e-13 0.0017217673154912624 0.021368943608045015 -5.959626656874218e-13 -3.122074161759673e-13 -5.959626656874218e-13 0.019762487364302778" free_energy=-1970.1215291904791 pbc="T T T"
In       0.00000000       0.00000000       0.00000000        0      -0.00000000       0.00000000       0.00000000
