1
Lattice="4.282124771630706 0.7757111257921065 -4.411411105652103e-10 1.0702160122836608 4.218169982058882 -9.051720545237849e-10 -2.676170391798902 -2.4969405534604925 2.3540858559182363" Properties=species:S:1:pos:R:3:spacegroup_kinds:I:1:forces:R:3 spacegroup="P 1" unit_cell=conventional occupancy="_JSON {\"0\": {\"In\": 1}}" n_minim_iter=1 energy=-1970.141699310846 stress="0.026875492602761886 0.00018239360238272884 3.529833715201539e-13 0.00018239360238272884 0.026850185065298432 -4.769003243985728e-13 3.529833715201539e-13 -4.769003243985728e-13 0.026680006821415362" free_energy=-1970.141699310846 pbc="T T T"
In       0.00000000       0.00000000       0.00000000        0      -0.00000000       0.00000000       0.00000000
