1
Lattice="3.466747113624923 0.20951138690902252 -2.7448199751628256e-10 0.4489418341121222 3.443934058697309 -7.104728462808854e-10 -1.9578444737198042 -1.8267227223662599 2.211822706137835" Properties=species:S:1:pos:R:3:spacegroup_kinds:I:1:forces:R:3 spacegroup="P 1" unit_cell=conventional occupancy="_JSON {\"0\": {\"In\": 1}}" n_minim_iter=2 energy=-1969.7285181123436 stress="-0.19270933554782912 0.0030506465395053117 3.0504985943412763e-13 0.0030506465395053117 -0.19313261972376702 2.8451375338461436e-13 3.0504985943412763e-13 2.8451375338461436e-13 -0.19597895681064048" free_energy=-1969.7285181123436 pbc="T T T"
In       0.00000000       0.00000000       0.00000000        0      -0.00000000      -0.00000000       0.00000000
