1
Lattice="3.9811664195642282 0.6975487354755827 -4.054671256485724e-10 0.9714117819977469 3.923342892027844 -8.402936050053067e-10 -2.4762891006326693 -2.310445813315977 2.2059221954656443" Properties=species:S:1:pos:R:3:spacegroup_kinds:I:1:forces:R:3 spacegroup="P 1" unit_cell=conventional occupancy="_JSON {\"0\": {\"In\": 1}}" n_minim_iter=1 energy=-1970.320925354785 stress="-0.007955530123811578 -0.0022123940187913516 9.781155836782686e-14 -0.0022123940187913516 -0.007648555400805222 9.125439965059019e-14 9.781155836782686e-14 9.125439965059019e-14 -0.005584330946135373" free_energy=-1970.320925354785 pbc="T T T"
In       0.00000000       0.00000000       0.00000000        0      -0.00000000       0.00000000       0.00000000
