1
Lattice="4.048089278848545 0.7092744336626206 -4.1228286178389695e-10 0.9877410802843721 3.9892937457768936 -8.544171325783587e-10 -2.517915179415647 -2.349284089276696 2.243003443803777" Properties=species:S:1:pos:R:3:spacegroup_kinds:I:1:forces:R:3 spacegroup="P 1" unit_cell=conventional occupancy="_JSON {\"0\": {\"In\": 1}}" n_minim_iter=1 energy=-1970.319559948549 stress="0.006354968098356081 -0.00856578953896863 3.027782279651862e-12 -0.00856578953896863 0.0075434909619971026 1.3845089538254061e-12 3.027782279651862e-12 1.3845089538254061e-12 0.015535608107086882" free_energy=-1970.319559948549 pbc="T T T"
In       0.00000000       0.00000000       0.00000000        0       0.00000000       0.00000000       0.00000000
