1
Lattice="3.841204808480365 0.554594901934689 -3.678199621630898e-10 0.8191140202113952 3.793610695345235 -8.04428055273844e-10 -2.330159414196952 -2.174102798202437 2.2149636595714766" Properties=species:S:1:pos:R:3:spacegroup_kinds:I:1:forces:R:3 spacegroup="P 1" unit_cell=conventional occupancy="_JSON {\"0\": {\"In\": 1}}" n_minim_iter=2 energy=-1970.267124619613 stress="-0.02737968027796748 -0.00042529792556670286 -7.781293367632702e-13 -0.00042529792556670286 -0.027320669218808 2.489937621607346e-13 -7.781293367632702e-13 2.489937621607346e-13 -0.026923854561318853" free_energy=-1970.267124619613 pbc="T T T"
In       0.00000000       0.00000000       0.00000000        0      -0.00000000       0.00000000      -0.00000000
