1
Lattice="4.01490672673658 0.703460447301282 -4.089087179229954e-10 0.979644477761075 3.9565931459406034 -8.47421198567045e-10 -2.4972756020992515 -2.3300267961815133 2.22461734272389" Properties=species:S:1:pos:R:3:spacegroup_kinds:I:1:forces:R:3 spacegroup="P 1" unit_cell=conventional occupancy="_JSON {\"0\": {\"In\": 1}}" n_minim_iter=5 energy=-1970.320925354771 stress="-0.007955530122469516 -0.0022123940241080284 1.2756625104593681e-12 -0.0022123940241080284 -0.007648555401466861 2.737038132275755e-12 1.2756625104593681e-12 2.737038132275755e-12 -0.005584330946595561" free_energy=-1970.320925354771 pbc="T T T"
In       0.00000000       0.00000000       0.00000000        0      -0.00000000      -0.00000000      -0.00000000
