1
Lattice="3.3891860060226935 0.11772868408332367 -2.5113768355235385e-10 0.3520112267537049 3.3729111940155496 -6.899261682148161e-10 -1.8705986162385255 -1.7453199386097265 2.226019082419083" Properties=species:S:1:pos:R:3:spacegroup_kinds:I:1:forces:R:3 spacegroup="P 1" unit_cell=conventional occupancy="_JSON {\"0\": {\"In\": 1}}" n_minim_iter=2 energy=-1969.5504698576783 stress="-0.24994436695426778 0.005573852575028395 -2.207394804326636e-12 0.005573852575028395 -0.2507177517292065 -2.059566311421056e-12 -2.207394804326636e-12 -2.059566311421056e-12 -0.2559183094395979" free_energy=-1969.5504698576783 pbc="T T T"
In       0.00000000       0.00000000       0.00000000        0      -0.00000000       0.00000000      -0.00000000
