1
Lattice="3.597553378887871 0.4076107540796594 -3.2240623427735383e-10 0.6556192580539765 3.560716252280948 -7.47437219547098e-10 -2.126586318325945 -1.9841635027543825 2.1562148932412293" Properties=species:S:1:pos:R:3:spacegroup_kinds:I:1:forces:R:3 spacegroup="P 1" unit_cell=conventional occupancy="_JSON {\"0\": {\"In\": 1}}" n_minim_iter=1 energy=-1970.0055504947165 stress="-0.14874366837483305 0.007420028731463702 2.0548193585256225e-13 0.007420028731463702 -0.14977321430796864 -1.6373999433721108e-12 2.0548193585256225e-13 -1.6373999433721108e-12 -0.1566963051208987" free_energy=-1970.0055504947165 pbc="T T T"
In       0.00000000       0.00000000       0.00000000        0      -0.00000000       0.00000000      -0.00000000
