1
Lattice="3.51300531525051 0.30825774589848687 -2.9709789127354717e-10 0.5506529322269932 3.4832471246115397 -7.250772742449172e-10 -2.0318291235927655 -1.8957524348261359 2.171179932952536" Properties=species:S:1:pos:R:3:spacegroup_kinds:I:1:forces:R:3 spacegroup="P 1" unit_cell=conventional occupancy="_JSON {\"0\": {\"In\": 1}}" n_minim_iter=1 energy=-1969.7096746793172 stress="-0.21627941897407413 0.014829904782346044 -4.257176444770085e-12 0.014829904782346044 -0.21833710212879817 -3.4526216066092777e-12 -4.257176444770085e-12 -3.4526216066092777e-12 -0.23217381101293705" free_energy=-1969.7096746793172 pbc="T T T"
In       0.00000000       0.00000000       0.00000000        0       0.00000000      -0.00000000      -0.00000000
1
Lattice="3.466747113624923 0.20951138690902252 -2.7448199751628256e-10 0.4489418341121222 3.443934058697309 -7.104728462808854e-10 -1.9578444737198042 -1.8267227223662599 2.211822706137835" Properties=species:S:1:pos:R:3:spacegroup_kinds:I:1:forces:R:3 spacegroup="P 1" unit_cell=conventional occupancy="_JSON {\"0\": {\"In\": 1}}" n_minim_iter=2 energy=-1969.7285181123436 stress="-0.19270933554782912 0.0030506465395053117 3.0504985943412763e-13 0.0030506465395053117 -0.19313261972376702 2.8451375338461436e-13 3.0504985943412763e-13 2.8451375338461436e-13 -0.19597895681064048" free_energy=-1969.7285181123436 pbc="T T T"
In       0.00000000       0.00000000       0.00000000        0      -0.00000000      -0.00000000       0.00000000
