20
Lattice="5.140458712037073 1.0571125993116415e-57 -6.475609147316825e-45 -1.2031246725306241e-57 6.1659117008674365 2.8715969087881678e-15 6.958027404561756e-44 -4.9704291520801536e-15 9.947845894280034" Properties=species:S:1:pos:R:3:spacegroup_kinds:I:1:forces:R:3 spacegroup="P 1" unit_cell=conventional occupancy="_JSON {\"0\": {\"In\": 1}, \"1\": {\"In\": 1}, \"2\": {\"In\": 1}, \"3\": {\"In\": 1}, \"4\": {\"In\": 1}, \"5\": {\"In\": 1}, \"6\": {\"In\": 1}, \"7\": {\"In\": 1}, \"8\": {\"O\": 1}, \"9\": {\"O\": 1}, \"10\": {\"O\": 1}, \"11\": {\"O\": 1}, \"12\": {\"O\": 1}, \"13\": {\"O\": 1}, \"14\": {\"O\": 1}, \"15\": {\"O\": 1}, \"16\": {\"O\": 1}, \"17\": {\"O\": 1}, \"18\": {\"O\": 1}, \"19\": {\"O\": 1}}" n_minim_iter=7 energy=-22574.67303182623 stress="0.08446479545390333 -1.8506375862302944e-12 -8.821718725554685e-13 -1.8506375862302944e-12 0.08478816705042914 -4.3422921783770674e-14 -8.821718725554685e-13 -4.3422921783770674e-14 0.08453872505920834" free_energy=-22574.67303182623 pbc="T T T"
In       0.95965192       3.26452964       1.27723830        0      -0.00352765       0.00370226      -0.00341786
In       1.61057744       0.18157379       3.69668465        1       0.00352765       0.00370226       0.00341786
In       1.61057744       2.90138206       6.25116124        2       0.00352765      -0.00370226      -0.00341786
In       0.95965192       5.98433791       8.67060760        3      -0.00352765      -0.00370226       0.00341786
In       4.18080679       2.90138206       8.67060760        4       0.00352765      -0.00370226       0.00341786
In       3.52988128       5.98433791       6.25116124        5      -0.00352765      -0.00370226      -0.00341786
In       3.52988128       3.26452964       3.69668465        6      -0.00352765       0.00370226       0.00341786
In       4.18080679       0.18157379       1.27723830        7       0.00352765       0.00370226      -0.00341786
O        2.07184388       3.24624771       8.31397725        8      -0.00064168      -0.00081636       0.00186616
O        0.49838547       0.16329186       6.60779159        9       0.00064168      -0.00081636      -0.00186616
O        0.49838547       2.91966400       3.34005431       10       0.00064168       0.00081636       0.00186616
O        2.07184388       6.00261985       1.63386864       11      -0.00064168       0.00081636      -0.00186616
O        3.06861483       2.91966400       1.63386864       12       0.00064168       0.00081636      -0.00186616
O        4.64207324       6.00261985       3.34005431       13      -0.00064168       0.00081636       0.00186616
O        4.64207324       3.24624771       6.60779159       14      -0.00064168      -0.00081636      -0.00186616
O        3.06861483       0.16329186       8.31397725       15       0.00064168      -0.00081636       0.00186616
O        5.02293643       4.62443378      -0.00000000       16      -0.00590399       0.00000000       0.00000000
O        2.68775164       1.54147793       4.97392295       17       0.00590399       0.00000000       0.00000000
O        0.11752229       1.54147793      -0.00000000       18       0.00590399       0.00000000       0.00000000
O        2.45270707       4.62443378       4.97392295       19      -0.00590399       0.00000000       0.00000000
