20
Lattice="5.653680110650339 -6.993234368150893e-61 -8.49076654606298e-43 -4.842104170193255e-61 5.8048673813948675 -4.1964880059810206e-18 1.064536209647613e-42 -2.6844225219900043e-17 8.234891874313675" Properties=species:S:1:pos:R:3:spacegroup_kinds:I:1:forces:R:3 spacegroup="P 1" unit_cell=conventional occupancy="_JSON {\"0\": {\"In\": 1}, \"1\": {\"In\": 1}, \"2\": {\"In\": 1}, \"3\": {\"In\": 1}, \"4\": {\"In\": 1}, \"5\": {\"In\": 1}, \"6\": {\"In\": 1}, \"7\": {\"In\": 1}, \"8\": {\"O\": 1}, \"9\": {\"O\": 1}, \"10\": {\"O\": 1}, \"11\": {\"O\": 1}, \"12\": {\"O\": 1}, \"13\": {\"O\": 1}, \"14\": {\"O\": 1}, \"15\": {\"O\": 1}, \"16\": {\"O\": 1}, \"17\": {\"O\": 1}, \"18\": {\"O\": 1}, \"19\": {\"O\": 1}}" n_minim_iter=7 energy=-22574.905265721583 stress="0.008328903758339883 7.904070593641989e-14 4.706282298768244e-12 7.904070593641989e-14 0.008325020078408638 -2.962454652577383e-12 4.706282298768244e-12 -2.962454652577383e-12 0.008372143765948867" free_energy=-22574.905265721583 pbc="T T T"
In       1.39359507       3.06819889       0.95868029        0      -0.00224805       0.00451152      -0.00218695
In       1.43324499       0.16576520       3.15876564        1       0.00224805       0.00451152       0.00218695
In       1.43324499       2.73666849       5.07612623        2       0.00224805      -0.00451152      -0.00218695
In       1.39359507       5.63910218       7.27621158        3      -0.00224805      -0.00451152       0.00218695
In       4.26008504       2.73666849       7.27621158        4       0.00224805      -0.00451152       0.00218695
In       4.22043512       5.63910218       5.07612623        5      -0.00224805      -0.00451152      -0.00218695
In       4.22043512       3.06819889       3.15876564        6      -0.00224805       0.00451152       0.00218695
In       4.26008504       0.16576520       0.95868029        7       0.00224805       0.00451152      -0.00218695
O        2.20781202       3.50840469       6.99663739        8      -0.00028412       0.00338812      -0.00345046
O        0.61902804       0.60597100       5.35570043        9       0.00028412       0.00338812       0.00345046
O        0.61902804       2.29646269       2.87919145       10       0.00028412      -0.00338812      -0.00345046
O        2.20781202       5.19889638       1.23825449       11      -0.00028412      -0.00338812       0.00345046
O        3.44586809       2.29646269       1.23825449       12       0.00028412      -0.00338812       0.00345046
O        5.03465207       5.19889638       2.87919145       13      -0.00028412      -0.00338812      -0.00345046
O        5.03465207       3.50840469       5.35570043       14      -0.00028412       0.00338812       0.00345046
O        3.44586809       0.60597100       6.99663739       15       0.00028412       0.00338812      -0.00345046
O        5.40970932       4.35365054       0.00000000       16      -0.00511366       0.00000000       0.00000000
O        3.07081084       1.45121685       4.11744594       17       0.00511366      -0.00000000       0.00000000
O        0.24397079       1.45121685       0.00000000       18       0.00511366       0.00000000       0.00000000
O        2.58286927       4.35365054       4.11744594       19      -0.00511366      -0.00000000       0.00000000
