20
Lattice="5.551337188980956 2.4752545895160015e-58 2.4209964100547113e-43 6.974629752183588e-59 5.596092313672314 1.3032579301720468e-16 -1.2295169743029597e-42 -2.640505176136604e-16 7.871060752811913" Properties=species:S:1:pos:R:3:spacegroup_kinds:I:1:forces:R:3 spacegroup="P 1" unit_cell=conventional occupancy="_JSON {\"0\": {\"In\": 1}, \"1\": {\"In\": 1}, \"2\": {\"In\": 1}, \"3\": {\"In\": 1}, \"4\": {\"In\": 1}, \"5\": {\"In\": 1}, \"6\": {\"In\": 1}, \"7\": {\"In\": 1}, \"8\": {\"O\": 1}, \"9\": {\"O\": 1}, \"10\": {\"O\": 1}, \"11\": {\"O\": 1}, \"12\": {\"O\": 1}, \"13\": {\"O\": 1}, \"14\": {\"O\": 1}, \"15\": {\"O\": 1}, \"16\": {\"O\": 1}, \"17\": {\"O\": 1}, \"18\": {\"O\": 1}, \"19\": {\"O\": 1}}" n_minim_iter=7 energy=-22574.932260146765 stress="0.0024584531836539716 -3.6672585285607424e-13 3.206846818805754e-14 -3.6672585285607424e-13 0.0024640964401616856 -5.082319266764208e-13 3.206846818805754e-14 -5.082319266764208e-13 0.002407306070264461" free_energy=-22574.932260146765 pbc="T T T"
In       1.38157859       2.97048455       0.90486849        0       0.00039695      -0.00200028       0.00513646
In       1.39409000       0.17243840       3.03066188        1      -0.00039695      -0.00200028      -0.00513646
In       1.39409000       2.62560776       4.84039887        2      -0.00039695       0.00200028       0.00513646
In       1.38157859       5.42365392       6.96619226        3       0.00039695       0.00200028      -0.00513646
In       4.16975860       2.62560776       6.96619226        4      -0.00039695       0.00200028      -0.00513646
In       4.15724719       5.42365392       4.84039887        5       0.00039695       0.00200028       0.00513646
In       4.15724719       2.97048455       3.03066188        6       0.00039695      -0.00200028      -0.00513646
In       4.16975860       0.17243840       0.90486849        7      -0.00039695      -0.00200028       0.00513646
O        2.16606905       3.36137890       6.69363919        8      -0.00357296       0.00031057       0.00211837
O        0.60959954       0.56333274       5.11295194        9       0.00357296       0.00031057      -0.00211837
O        0.60959954       2.23471341       2.75810881       10       0.00357296      -0.00031057       0.00211837
O        2.16606905       5.03275957       1.17742156       11      -0.00357296      -0.00031057      -0.00211837
O        3.38526814       2.23471341       1.17742156       12       0.00357296      -0.00031057      -0.00211837
O        4.94173764       5.03275957       2.75810881       13      -0.00357296      -0.00031057       0.00211837
O        4.94173764       3.36137890       5.11295194       14      -0.00357296       0.00031057      -0.00211837
O        3.38526814       0.56333274       6.69363919       15       0.00357296       0.00031057       0.00211837
O        5.30285192       4.19706924      -0.00000000       16      -0.00859652      -0.00000000      -0.00000000
O        3.02415386       1.39902308       3.93553038       17       0.00859652       0.00000000      -0.00000000
O        0.24848527       1.39902308      -0.00000000       18       0.00859652       0.00000000       0.00000000
O        2.52718333       4.19706924       3.93553038       19      -0.00859652      -0.00000000      -0.00000000
