20
Lattice="5.53156342821148 4.000012281711591e-59 5.4981619183571455e-43 4.4723883321600005e-59 5.605182531740402 -1.4354765193384527e-16 -1.2402470012723118e-42 -2.2423526489565514e-16 7.886387006553815" Properties=species:S:1:pos:R:3:spacegroup_kinds:I:1:forces:R:3 spacegroup="P 1" unit_cell=conventional occupancy="_JSON {\"0\": {\"In\": 1}, \"1\": {\"In\": 1}, \"2\": {\"In\": 1}, \"3\": {\"In\": 1}, \"4\": {\"In\": 1}, \"5\": {\"In\": 1}, \"6\": {\"In\": 1}, \"7\": {\"In\": 1}, \"8\": {\"O\": 1}, \"9\": {\"O\": 1}, \"10\": {\"O\": 1}, \"11\": {\"O\": 1}, \"12\": {\"O\": 1}, \"13\": {\"O\": 1}, \"14\": {\"O\": 1}, \"15\": {\"O\": 1}, \"16\": {\"O\": 1}, \"17\": {\"O\": 1}, \"18\": {\"O\": 1}, \"19\": {\"O\": 1}}" n_minim_iter=8 energy=-22574.92246956342 stress="0.00046113330659567053 6.469710422631079e-13 -6.359094763242203e-13 6.469710422631079e-13 0.000445170076676545 -1.8730260440094376e-14 -6.359094763242203e-13 -1.8730260440094376e-14 0.00038704063289976564" free_energy=-22574.92246956342 pbc="T T T"
In       1.37553771       2.96928316       0.90908836        0       0.00014081       0.00435852       0.00451356
In       1.39024400       0.16669190       3.03410514        1      -0.00014081       0.00435852      -0.00451356
In       1.39024400       2.63589937       4.85228186        2      -0.00014081      -0.00435852       0.00451356
In       1.37553771       5.43849063       6.97729865        3       0.00014081      -0.00435852      -0.00451356
In       4.15602571       2.63589937       6.97729865        4      -0.00014081      -0.00435852      -0.00451356
In       4.14131943       5.43849063       4.85228186        5       0.00014081      -0.00435852       0.00451356
In       4.14131943       2.96928316       3.03410514        6       0.00014081       0.00435852      -0.00451356
In       4.15602571       0.16669190       0.90908836        7      -0.00014081       0.00435852       0.00451356
O        2.15808617       3.37943481       6.70491429        8       0.00312659       0.00732544       0.00198830
O        0.60769555       0.57684354       5.12466622        9      -0.00312659       0.00732544      -0.00198830
O        0.60769555       2.22574773       2.76172079       10      -0.00312659      -0.00732544       0.00198830
O        2.15808617       5.02833899       1.18147271       11       0.00312659      -0.00732544      -0.00198830
O        3.37347726       2.22574773       1.18147271       12      -0.00312659      -0.00732544      -0.00198830
O        4.92386788       5.02833899       2.76172079       13       0.00312659      -0.00732544       0.00198830
O        4.92386788       3.37943481       5.12466622       14       0.00312659       0.00732544      -0.00198830
O        3.37347726       0.57684354       6.70491429       15      -0.00312659       0.00732544       0.00198830
O        5.29047977       4.20388690       0.00000000       16       0.00189072       0.00000000       0.00000000
O        3.00686537       1.40129563       3.94319350       17      -0.00189072       0.00000000      -0.00000000
O        0.24108366       1.40129563       0.00000000       18      -0.00189072       0.00000000      -0.00000000
O        2.52469805       4.20388690       3.94319350       19       0.00189072       0.00000000       0.00000000
