20
Lattice="5.53156342821148 3.0898620458845143e-59 8.699173586695148e-43 -5.637357671476887e-59 5.605182531740402 1.593733085567326e-16 -1.2402470012723118e-42 -2.242352648956552e-16 7.886387006553817" Properties=species:S:1:pos:R:3:spacegroup_kinds:I:1:forces:R:3 spacegroup="P 1" unit_cell=conventional occupancy="_JSON {\"0\": {\"In\": 1}, \"1\": {\"In\": 1}, \"2\": {\"In\": 1}, \"3\": {\"In\": 1}, \"4\": {\"In\": 1}, \"5\": {\"In\": 1}, \"6\": {\"In\": 1}, \"7\": {\"In\": 1}, \"8\": {\"O\": 1}, \"9\": {\"O\": 1}, \"10\": {\"O\": 1}, \"11\": {\"O\": 1}, \"12\": {\"O\": 1}, \"13\": {\"O\": 1}, \"14\": {\"O\": 1}, \"15\": {\"O\": 1}, \"16\": {\"O\": 1}, \"17\": {\"O\": 1}, \"18\": {\"O\": 1}, \"19\": {\"O\": 1}}" n_minim_iter=1 energy=-22574.923069792134 stress="-0.004755071447106722 8.358187938243682e-13 -1.6549462810697251e-12 8.358187938243682e-13 0.0014222359588795608 1.4727798937591119e-13 -1.6549462810697251e-12 1.4727798937591119e-13 0.003717567654888098" free_energy=-22574.923069792134 pbc="T T T"
In       1.37553771       2.96928316       0.90908836        0      -0.01417097       0.02047827      -0.07255290
In       1.39024400       0.16669190       3.03410514        1       0.01417097       0.02047827       0.07255290
In       1.39024400       2.63589937       4.85228186        2       0.01417097      -0.02047827      -0.07255290
In       1.37553771       5.43849063       6.97729865        3      -0.01417097      -0.02047827       0.07255290
In       4.15602571       2.63589937       6.97729865        4       0.01417097      -0.02047827       0.07255290
In       4.14131943       5.43849063       4.85228186        5      -0.01417097      -0.02047827      -0.07255290
In       4.14131943       2.96928316       3.03410514        6      -0.01417097       0.02047827       0.07255290
In       4.15602571       0.16669190       0.90908836        7       0.01417097       0.02047827      -0.07255290
O        2.15808617       3.37943481       6.70491429        8       0.02142274      -0.05622580       0.04822522
O        0.60769555       0.57684354       5.12466622        9      -0.02142274      -0.05622580      -0.04822522
O        0.60769555       2.22574773       2.76172079       10      -0.02142274       0.05622580       0.04822522
O        2.15808617       5.02833899       1.18147271       11       0.02142274       0.05622580      -0.04822522
O        3.37347726       2.22574773       1.18147271       12      -0.02142274       0.05622580      -0.04822522
O        4.92386788       5.02833899       2.76172079       13       0.02142274       0.05622580       0.04822522
O        4.92386788       3.37943481       5.12466622       14       0.02142274      -0.05622580      -0.04822522
O        3.37347726       0.57684354       6.70491429       15      -0.02142274      -0.05622580       0.04822522
O        5.29047977       4.20388690      -0.00000000       16      -0.10265746       0.00000000      -0.00000000
O        3.00686537       1.40129563       3.94319350       17       0.10265746       0.00000000      -0.00000000
O        0.24108366       1.40129563      -0.00000000       18       0.10265746       0.00000000      -0.00000000
O        2.52469805       4.20388690       3.94319350       19      -0.10265746       0.00000000       0.00000000
20
Lattice="5.549983507747741 4.182989291587961e-59 8.782560649899434e-43 -4.049440842652328e-59 5.600246968000058 1.2869229825799034e-16 -1.229567505572554e-42 -2.6646111803236573e-16 7.867139834783184" Properties=species:S:1:pos:R:3:spacegroup_kinds:I:1:forces:R:3 spacegroup="P 1" unit_cell=conventional occupancy="_JSON {\"0\": {\"In\": 1}, \"1\": {\"In\": 1}, \"2\": {\"In\": 1}, \"3\": {\"In\": 1}, \"4\": {\"In\": 1}, \"5\": {\"In\": 1}, \"6\": {\"In\": 1}, \"7\": {\"In\": 1}, \"8\": {\"O\": 1}, \"9\": {\"O\": 1}, \"10\": {\"O\": 1}, \"11\": {\"O\": 1}, \"12\": {\"O\": 1}, \"13\": {\"O\": 1}, \"14\": {\"O\": 1}, \"15\": {\"O\": 1}, \"16\": {\"O\": 1}, \"17\": {\"O\": 1}, \"18\": {\"O\": 1}, \"19\": {\"O\": 1}}" n_minim_iter=2 energy=-22574.926649624616 stress="0.0003733111922551313 2.638990073215679e-12 -5.05996266629887e-13 2.638990073215679e-12 0.0017051733488180352 -2.2280651855077313e-12 -5.05996266629887e-13 -2.2280651855077313e-12 -0.00030780430696110113" free_energy=-22574.926649624616 pbc="T T T"
In       1.38007866       2.96672557       0.90666818        0       0.02489103       0.01794712      -0.05376802
In       1.39491309       0.16660208       3.02690174        1      -0.02489103       0.01794712       0.05376802
In       1.39491309       2.63352140       4.84023809        2      -0.02489103      -0.01794712      -0.05376802
In       1.38007866       5.43364488       6.96047166        3       0.02489103      -0.01794712       0.05376802
In       4.16990484       2.63352140       6.96047166        4      -0.02489103      -0.01794712       0.05376802
In       4.15507042       5.43364488       4.84023809        5       0.02489103      -0.01794712      -0.05376802
In       4.15507042       2.96672557       3.02690174        6       0.02489103       0.01794712       0.05376802
In       4.16990484       0.16660208       0.90666818        7      -0.02489103       0.01794712      -0.05376802
O        2.16533243       3.37630269       6.68868451        8       0.04676093      -0.06211146       0.05948630
O        0.60965933       0.57617921       5.11202524        9      -0.04676093      -0.06211146      -0.05948630
O        0.60965933       2.22394428       2.75511459       10      -0.04676093       0.06211146       0.05948630
O        2.16533243       5.02406776       1.17845533       11       0.04676093       0.06211146      -0.05948630
O        3.38465108       2.22394428       1.17845533       12      -0.04676093       0.06211146      -0.05948630
O        4.94032418       5.02406776       2.75511459       13       0.04676093       0.06211146       0.05948630
O        4.94032418       3.37630269       5.11202524       14       0.04676093      -0.06211146      -0.05948630
O        3.38465108       0.57617921       6.68868451       15      -0.04676093      -0.06211146       0.05948630
O        5.30781028       4.20018523      -0.00000000       16      -0.07320281      -0.00000000      -0.00000000
O        3.01716499       1.40006174       3.93356992       17       0.07320281       0.00000000       0.00000000
O        0.24217323       1.40006174      -0.00000000       18       0.07320281       0.00000000      -0.00000000
O        2.53281852       4.20018523       3.93356992       19      -0.07320281      -0.00000000      -0.00000000
20
Lattice="5.554215071369139 4.341619636874209e-59 8.784006501742302e-43 -3.818865800929161e-59 5.591770530516719 1.2452267513255884e-16 -1.2312416252794008e-42 -2.7204711191642065e-16 7.873062666319522" Properties=species:S:1:pos:R:3:spacegroup_kinds:I:1:forces:R:3 spacegroup="P 1" unit_cell=conventional occupancy="_JSON {\"0\": {\"In\": 1}, \"1\": {\"In\": 1}, \"2\": {\"In\": 1}, \"3\": {\"In\": 1}, \"4\": {\"In\": 1}, \"5\": {\"In\": 1}, \"6\": {\"In\": 1}, \"7\": {\"In\": 1}, \"8\": {\"O\": 1}, \"9\": {\"O\": 1}, \"10\": {\"O\": 1}, \"11\": {\"O\": 1}, \"12\": {\"O\": 1}, \"13\": {\"O\": 1}, \"14\": {\"O\": 1}, \"15\": {\"O\": 1}, \"16\": {\"O\": 1}, \"17\": {\"O\": 1}, \"18\": {\"O\": 1}, \"19\": {\"O\": 1}}" n_minim_iter=3 energy=-22574.927310279243 stress="0.001270158916243769 -8.935210369774418e-13 1.3443712264375407e-12 -8.935210369774418e-13 -0.00020044564603684132 1.8233553758256468e-12 1.3443712264375407e-12 1.8233553758256468e-12 0.0014851336447726166" free_energy=-22574.927310279243 pbc="T T T"
In       1.38125234       2.96233444       0.90704902        0       0.02190368      -0.00131415      -0.04413596
In       1.39585520       0.16644917       3.02948232        1      -0.02190368      -0.00131416       0.04413596
In       1.39585520       2.62943609       4.84358035        2      -0.02190368       0.00131416      -0.04413596
In       1.38125234       5.42532136       6.96601365        3       0.02190368       0.00131416       0.04413596
In       4.17296273       2.62943609       6.96601365        4      -0.02190368       0.00131416       0.04413596
In       4.15835987       5.42532136       4.84358035        5       0.02190368       0.00131416      -0.04413596
In       4.15835987       2.96233444       3.02948232        6       0.02190368      -0.00131416       0.04413596
In       4.17296273       0.16644917       0.90704902        7      -0.02190368      -0.00131416      -0.04413596
O        2.16723142       3.37085492       6.69404077        8       0.03178889      -0.07441098       0.04225248
O        0.60987611       0.57496965       5.11555323        9      -0.03178889      -0.07441098      -0.04225248
O        0.60987611       2.22091561       2.75750944       10      -0.03178889       0.07441098       0.04225248
O        2.16723142       5.01680088       1.17902190       11       0.03178889       0.07441098      -0.04225248
O        3.38698365       2.22091561       1.17902190       12      -0.03178889       0.07441098      -0.04225248
O        4.94433896       5.01680088       2.75750944       13       0.03178889       0.07441098       0.04225248
O        4.94433896       3.37085492       5.11555323       14       0.03178889      -0.07441098      -0.04225248
O        3.38698365       0.57496965       6.69404077       15      -0.03178889      -0.07441098       0.04225249
O        5.31144023       4.19382790      -0.00000000       16      -0.05106703       0.00000000       0.00000000
O        3.01988237       1.39794263       3.93653133       17       0.05106703       0.00000000      -0.00000000
O        0.24277484       1.39794263      -0.00000000       18       0.05106703      -0.00000000      -0.00000000
O        2.53433270       4.19382790       3.93653133       19      -0.05106703       0.00000000      -0.00000000
20
Lattice="5.554037397505079 4.269836188931197e-59 8.794110739024138e-43 -3.843504457207289e-59 5.596695642805158 1.2137802744325358e-16 -1.2287071167681562e-42 -2.765669975453256e-16 7.866385980797581" Properties=species:S:1:pos:R:3:spacegroup_kinds:I:1:forces:R:3 spacegroup="P 1" unit_cell=conventional occupancy="_JSON {\"0\": {\"In\": 1}, \"1\": {\"In\": 1}, \"2\": {\"In\": 1}, \"3\": {\"In\": 1}, \"4\": {\"In\": 1}, \"5\": {\"In\": 1}, \"6\": {\"In\": 1}, \"7\": {\"In\": 1}, \"8\": {\"O\": 1}, \"9\": {\"O\": 1}, \"10\": {\"O\": 1}, \"11\": {\"O\": 1}, \"12\": {\"O\": 1}, \"13\": {\"O\": 1}, \"14\": {\"O\": 1}, \"15\": {\"O\": 1}, \"16\": {\"O\": 1}, \"17\": {\"O\": 1}, \"18\": {\"O\": 1}, \"19\": {\"O\": 1}}" n_minim_iter=4 energy=-22574.930043158736 stress="0.002241657998417345 -8.19292708476253e-13 7.350424886395508e-13 -8.19292708476253e-13 0.0018438644331477555 9.614060075840876e-13 7.350424886395508e-13 9.614060075840876e-13 0.0013945211181931622" free_energy=-22574.930043158736 pbc="T T T"
In       1.38233782       2.96531855       0.90381305        0      -0.01375433       0.02428724       0.01552141
In       1.39468088       0.16697073       3.02937994        1       0.01375433       0.02428724      -0.01552141
In       1.39468088       2.63137709       4.83700605        2       0.01375433      -0.02428724       0.01552141
In       1.38233782       5.42972491       6.96257293        3      -0.01375433      -0.02428724      -0.01552141
In       4.17169957       2.63137709       6.96257293        4       0.01375433      -0.02428724      -0.01552141
In       4.15935652       5.42972491       4.83700605        5      -0.01375433      -0.02428724       0.01552141
In       4.15935652       2.96531855       3.02937994        6      -0.01375433       0.02428724      -0.01552141
In       4.17169957       0.16697073       0.90381305        7       0.01375433       0.02428724       0.01552141
O        2.16908986       3.37036046       6.69086601        8      -0.01568622      -0.03851512      -0.02146197
O        0.60792884       0.57201263       5.10871297        9       0.01568622      -0.03851512       0.02146197
O        0.60792884       2.22633519       2.75767302       10       0.01568622       0.03851512      -0.02146197
O        2.16908986       5.02468301       1.17551997       11      -0.01568622       0.03851512       0.02146197
O        3.38494753       2.22633519       1.17551997       12       0.01568622       0.03851512       0.02146197
O        4.94610856       5.02468301       2.75767302       13      -0.01568622       0.03851512      -0.02146197
O        4.94610856       3.37036046       5.10871297       14      -0.01568622      -0.03851512       0.02146197
O        3.38494753       0.57201263       6.69086601       15       0.01568622      -0.03851512      -0.02146197
O        5.30811835       4.19752173      -0.00000000       16      -0.00371121       0.00000000      -0.00000000
O        3.02293775       1.39917391       3.93319299       17       0.00371121      -0.00000000      -0.00000000
O        0.24591905       1.39917391      -0.00000000       18       0.00371121      -0.00000000      -0.00000000
O        2.53109965       4.19752173       3.93319299       19      -0.00371121      -0.00000000       0.00000000
20
Lattice="5.5457485134747335 4.264785014181719e-59 8.771856437059848e-43 -3.8510535978525507e-59 5.597781703158271 1.2153585910038547e-16 -1.2316453814365934e-42 -2.7662066643679016e-16 7.876614889284077" Properties=species:S:1:pos:R:3:spacegroup_kinds:I:1:forces:R:3 spacegroup="P 1" unit_cell=conventional occupancy="_JSON {\"0\": {\"In\": 1}, \"1\": {\"In\": 1}, \"2\": {\"In\": 1}, \"3\": {\"In\": 1}, \"4\": {\"In\": 1}, \"5\": {\"In\": 1}, \"6\": {\"In\": 1}, \"7\": {\"In\": 1}, \"8\": {\"O\": 1}, \"9\": {\"O\": 1}, \"10\": {\"O\": 1}, \"11\": {\"O\": 1}, \"12\": {\"O\": 1}, \"13\": {\"O\": 1}, \"14\": {\"O\": 1}, \"15\": {\"O\": 1}, \"16\": {\"O\": 1}, \"17\": {\"O\": 1}, \"18\": {\"O\": 1}, \"19\": {\"O\": 1}}" n_minim_iter=5 energy=-22574.93114546086 stress="0.0005088820658500089 2.205376637449639e-12 -5.0891805264185015e-12 2.205376637449639e-12 0.002086703054239632 -1.3059409363024397e-12 -5.0891805264185015e-12 -1.3059409363024397e-12 0.0035372622898891025" free_energy=-22574.93114546086 pbc="T T T"
In       1.37950423       2.96776129       0.90507824        0      -0.00585764       0.02532318       0.00372801
In       1.39337002       0.16887044       3.03322920        1       0.00585764       0.02532318      -0.00372801
In       1.39337002       2.63002041       4.84338569        2       0.00585764      -0.02532318       0.00372801
In       1.37950423       5.42891126       6.97153665        3      -0.00585764      -0.02532318      -0.00372801
In       4.16624428       2.63002041       6.97153665        4       0.00585764      -0.02532318      -0.00372801
In       4.15237849       5.42891126       4.84338569        5      -0.00585764      -0.02532318       0.00372801
In       4.15237849       2.96776129       3.03322920        6      -0.00585764       0.02532318      -0.00372801
In       4.16624428       0.16887044       0.90507824        7       0.00585764       0.02532318       0.00372801
O        2.16530281       3.36700007       6.69890735        8      -0.02296360      -0.01423238      -0.01361461
O        0.60757145       0.56810922       5.11601498        9       0.02296360      -0.01423238       0.01361461
O        0.60757145       2.23078163       2.76059991       10       0.02296360       0.01423238      -0.01361461
O        2.16530281       5.02967248       1.17770754       11      -0.02296360       0.01423238       0.01361461
O        3.38044571       2.23078163       1.17770754       12       0.02296360       0.01423238       0.01361461
O        4.93817706       5.02967248       2.76059991       13      -0.02296360       0.01423238      -0.01361461
O        4.93817706       3.36700007       5.11601498       14      -0.02296360      -0.01423238       0.01361461
O        3.38044571       0.56810922       6.69890735       15       0.02296360      -0.01423238      -0.01361461
O        5.29861907       4.19833628      -0.00000000       16      -0.00299302       0.00000000       0.00000000
O        3.02000370       1.39944543       3.93830744       17       0.00299302      -0.00000000      -0.00000000
O        0.24712944       1.39944543      -0.00000000       18       0.00299302       0.00000000      -0.00000000
O        2.52574481       4.19833628       3.93830744       19      -0.00299302      -0.00000000      -0.00000000
20
Lattice="5.551197526868522 4.379687943884034e-59 8.787622175623196e-43 -2.669746244202608e-59 5.595635549531461 1.1582891802420823e-16 -5.813366489675382e-43 -2.8444213036865083e-16 7.871901300347318" Properties=species:S:1:pos:R:3:spacegroup_kinds:I:1:forces:R:3 spacegroup="P 1" unit_cell=conventional occupancy="_JSON {\"0\": {\"In\": 1}, \"1\": {\"In\": 1}, \"2\": {\"In\": 1}, \"3\": {\"In\": 1}, \"4\": {\"In\": 1}, \"5\": {\"In\": 1}, \"6\": {\"In\": 1}, \"7\": {\"In\": 1}, \"8\": {\"O\": 1}, \"9\": {\"O\": 1}, \"10\": {\"O\": 1}, \"11\": {\"O\": 1}, \"12\": {\"O\": 1}, \"13\": {\"O\": 1}, \"14\": {\"O\": 1}, \"15\": {\"O\": 1}, \"16\": {\"O\": 1}, \"17\": {\"O\": 1}, \"18\": {\"O\": 1}, \"19\": {\"O\": 1}}" n_minim_iter=6 energy=-22574.93204560134 stress="0.0026157122742368364 -1.7080385802089896e-12 -2.6230330319490677e-12 -1.7080385802089896e-12 0.0024786737789876763 -1.4759309340655182e-13 -2.6230330319490677e-12 -1.4759309340655182e-13 0.0023715175708300296" free_energy=-22574.93204560134 pbc="T T T"
In       1.38040006       2.96897265       0.90474176        0       0.02505660       0.01567707       0.00349964
In       1.39519870       0.17115488       3.03120889        1      -0.02505660       0.01567707      -0.00349964
In       1.39519870       2.62666290       4.84069241        2      -0.02505660      -0.01567707       0.00349964
In       1.38040006       5.42448067       6.96715954        3       0.02505660      -0.01567707      -0.00349964
In       4.17079746       2.62666290       6.96715954        4      -0.02505660      -0.01567707      -0.00349964
In       4.15599883       5.42448067       4.84069241        5       0.02505660      -0.01567707       0.00349964
In       4.15599883       2.96897265       3.03120889        6       0.02505660       0.01567707      -0.00349964
In       4.17079746       0.17115488       0.90474176        7      -0.02505660       0.01567707       0.00349964
O        2.16659417       3.36168919       6.69416779        8      -0.00690524       0.00346520       0.00734363
O        0.60900460       0.56387142       5.11368416        9       0.00690524       0.00346520      -0.00734363
O        0.60900460       2.23394636       2.75821714       10       0.00690524      -0.00346520       0.00734363
O        2.16659417       5.03176413       1.17773351       11      -0.00690524      -0.00346520      -0.00734363
O        3.38460336       2.23394636       1.17773351       12       0.00690524      -0.00346520      -0.00734363
O        4.94219293       5.03176413       2.75821714       13      -0.00690524      -0.00346520       0.00734363
O        4.94219293       3.36168919       5.11368416       14      -0.00690524       0.00346520      -0.00734363
O        3.38460336       0.56387142       6.69416779       15       0.00690524       0.00346520       0.00734363
O        5.30245120       4.19672666      -0.00000000       16       0.01045785       0.00000000      -0.00000000
O        3.02434509       1.39890889       3.93595065       17      -0.01045785      -0.00000000      -0.00000000
O        0.24874632       1.39890889      -0.00000000       18      -0.01045785      -0.00000000       0.00000000
O        2.52685244       4.19672666       3.93595065       19       0.01045785       0.00000000       0.00000000
20
Lattice="5.551337188980956 2.4752545895160015e-58 2.4209964100547113e-43 6.974629752183588e-59 5.596092313672314 1.3032579301720468e-16 -1.2295169743029597e-42 -2.640505176136604e-16 7.871060752811913" Properties=species:S:1:pos:R:3:spacegroup_kinds:I:1:forces:R:3 spacegroup="P 1" unit_cell=conventional occupancy="_JSON {\"0\": {\"In\": 1}, \"1\": {\"In\": 1}, \"2\": {\"In\": 1}, \"3\": {\"In\": 1}, \"4\": {\"In\": 1}, \"5\": {\"In\": 1}, \"6\": {\"In\": 1}, \"7\": {\"In\": 1}, \"8\": {\"O\": 1}, \"9\": {\"O\": 1}, \"10\": {\"O\": 1}, \"11\": {\"O\": 1}, \"12\": {\"O\": 1}, \"13\": {\"O\": 1}, \"14\": {\"O\": 1}, \"15\": {\"O\": 1}, \"16\": {\"O\": 1}, \"17\": {\"O\": 1}, \"18\": {\"O\": 1}, \"19\": {\"O\": 1}}" n_minim_iter=7 energy=-22574.932260146765 stress="0.0024584531836539716 -3.6672585285607424e-13 3.206846818805754e-14 -3.6672585285607424e-13 0.0024640964401616856 -5.082319266764208e-13 3.206846818805754e-14 -5.082319266764208e-13 0.002407306070264461" free_energy=-22574.932260146765 pbc="T T T"
In       1.38157859       2.97048455       0.90486849        0       0.00039695      -0.00200028       0.00513646
In       1.39409000       0.17243840       3.03066188        1      -0.00039695      -0.00200028      -0.00513646
In       1.39409000       2.62560776       4.84039887        2      -0.00039695       0.00200028       0.00513646
In       1.38157859       5.42365392       6.96619226        3       0.00039695       0.00200028      -0.00513646
In       4.16975860       2.62560776       6.96619226        4      -0.00039695       0.00200028      -0.00513646
In       4.15724719       5.42365392       4.84039887        5       0.00039695       0.00200028       0.00513646
In       4.15724719       2.97048455       3.03066188        6       0.00039695      -0.00200028      -0.00513646
In       4.16975860       0.17243840       0.90486849        7      -0.00039695      -0.00200028       0.00513646
O        2.16606905       3.36137890       6.69363919        8      -0.00357296       0.00031057       0.00211837
O        0.60959954       0.56333274       5.11295194        9       0.00357296       0.00031057      -0.00211837
O        0.60959954       2.23471341       2.75810881       10       0.00357296      -0.00031057       0.00211837
O        2.16606905       5.03275957       1.17742156       11      -0.00357296      -0.00031057      -0.00211837
O        3.38526814       2.23471341       1.17742156       12       0.00357296      -0.00031057      -0.00211837
O        4.94173764       5.03275957       2.75810881       13      -0.00357296      -0.00031057       0.00211837
O        4.94173764       3.36137890       5.11295194       14      -0.00357296       0.00031057      -0.00211837
O        3.38526814       0.56333274       6.69363919       15       0.00357296       0.00031057       0.00211837
O        5.30285192       4.19706924      -0.00000000       16      -0.00859652      -0.00000000      -0.00000000
O        3.02415386       1.39902308       3.93553038       17       0.00859652       0.00000000      -0.00000000
O        0.24848527       1.39902308      -0.00000000       18       0.00859652       0.00000000       0.00000000
O        2.52718333       4.19706924       3.93553038       19      -0.00859652      -0.00000000      -0.00000000
