20
Lattice="5.874161459177584 3.774677200432259e-60 -1.1259850634652236e-42 5.020404106859143e-60 6.162978866659197 4.110526737128798e-17 2.4022365809856404e-42 -9.617883211219707e-17 8.53172452829044" Properties=species:S:1:pos:R:3:spacegroup_kinds:I:1:forces:R:3 spacegroup="P 1" unit_cell=conventional occupancy="_JSON {\"0\": {\"In\": 1}, \"1\": {\"In\": 1}, \"2\": {\"In\": 1}, \"3\": {\"In\": 1}, \"4\": {\"In\": 1}, \"5\": {\"In\": 1}, \"6\": {\"In\": 1}, \"7\": {\"In\": 1}, \"8\": {\"O\": 1}, \"9\": {\"O\": 1}, \"10\": {\"O\": 1}, \"11\": {\"O\": 1}, \"12\": {\"O\": 1}, \"13\": {\"O\": 1}, \"14\": {\"O\": 1}, \"15\": {\"O\": 1}, \"16\": {\"O\": 1}, \"17\": {\"O\": 1}, \"18\": {\"O\": 1}, \"19\": {\"O\": 1}}" n_minim_iter=10 energy=-22573.421180145007 stress="0.07269157731177896 5.583489808905918e-13 2.3237589025940396e-12 5.583489808905918e-13 0.07273526088951884 -4.4885327798975973e-13 2.3237589025940396e-12 -4.4885327798975973e-13 0.07268926451257639" free_energy=-22573.421180145007 pbc="T T T"
In       1.39107973       3.32784067       1.02139204        0      -0.00821548      -0.00392550      -0.00153577
In       1.54600100       0.24635124       3.24447023        1       0.00821548      -0.00392550       0.00153577
In       1.54600100       2.83513819       5.28725430        2       0.00821548       0.00392550      -0.00153577
In       1.39107973       5.91662763       7.51033249        3      -0.00821548       0.00392550       0.00153577
In       4.48308173       2.83513819       7.51033249        4       0.00821548       0.00392550       0.00153577
In       4.32816046       5.91662763       5.28725430        5      -0.00821548       0.00392550      -0.00153577
In       4.32816046       3.32784067       3.24447023        6      -0.00821548      -0.00392550       0.00153577
In       4.48308173       0.24635124       1.02139204        7       0.00821548      -0.00392550      -0.00153577
O        2.26451343       3.67619717       7.24756827        8       0.00241036      -0.00415536       0.00031719
O        0.67256730       0.59470774       5.55001853        9      -0.00241036      -0.00415536      -0.00031719
O        0.67256730       2.48678169       2.98170600       10      -0.00241036       0.00415536       0.00031719
O        2.26451343       5.56827113       1.28415626       11       0.00241036       0.00415536      -0.00031719
O        3.60964803       2.48678169       1.28415626       12      -0.00241036       0.00415536      -0.00031719
O        5.20159416       5.56827113       2.98170600       13       0.00241036       0.00415536       0.00031719
O        5.20159416       3.67619717       5.55001853       14       0.00241036      -0.00415536      -0.00031719
O        3.60964803       0.59470774       7.24756827       15      -0.00241036      -0.00415536       0.00031719
O        5.57167813       4.62223415      -0.00000000       16      -0.00450628       0.00000000      -0.00000000
O        3.23956406       1.54074472       4.26586226       17       0.00450628       0.00000000       0.00000000
O        0.30248333       1.54074472      -0.00000000       18       0.00450628      -0.00000000      -0.00000000
O        2.63459740       4.62223415       4.26586226       19      -0.00450628       0.00000000       0.00000000
