20
Lattice="5.743381818223165 9.033728608815719e-60 -1.8304140459452566e-42 -9.212664241452712e-61 6.0180459864744025 3.9565393073721507e-17 1.5766981055183716e-42 -6.031392379567949e-17 8.377635636069986" Properties=species:S:1:pos:R:3:spacegroup_kinds:I:1:forces:R:3 spacegroup="P 1" unit_cell=conventional occupancy="_JSON {\"0\": {\"In\": 1}, \"1\": {\"In\": 1}, \"2\": {\"In\": 1}, \"3\": {\"In\": 1}, \"4\": {\"In\": 1}, \"5\": {\"In\": 1}, \"6\": {\"In\": 1}, \"7\": {\"In\": 1}, \"8\": {\"O\": 1}, \"9\": {\"O\": 1}, \"10\": {\"O\": 1}, \"11\": {\"O\": 1}, \"12\": {\"O\": 1}, \"13\": {\"O\": 1}, \"14\": {\"O\": 1}, \"15\": {\"O\": 1}, \"16\": {\"O\": 1}, \"17\": {\"O\": 1}, \"18\": {\"O\": 1}, \"19\": {\"O\": 1}}" n_minim_iter=6 energy=-22574.236147699132 stress="0.051460672453954186 4.011821002932968e-13 -6.393415125963226e-13 4.011821002932968e-13 0.05146730680485256 1.5252193794069821e-12 -6.393415125963226e-13 1.5252193794069821e-12 0.05145479090729119" free_energy=-22574.236147699132 pbc="T T T"
In       1.38455589       3.21453156       0.99761483        0       0.00351464      -0.00417057      -0.00239370
In       1.48713502       0.20550857       3.19120299        1      -0.00351464      -0.00417057       0.00239370
In       1.48713502       2.80351442       5.18643264        2      -0.00351464       0.00417057      -0.00239370
In       1.38455589       5.81253742       7.38002081        3       0.00351464       0.00417057       0.00239370
In       4.35882593       2.80351442       7.38002081        4      -0.00351464       0.00417057       0.00239370
In       4.25624680       5.81253742       5.18643264        5       0.00351464       0.00417057      -0.00239370
In       4.25624680       3.21453156       3.19120299        6       0.00351464      -0.00417057       0.00239370
In       4.35882593       0.20550857       0.99761483        7      -0.00351464      -0.00417057      -0.00239370
O        2.24378498       3.60503517       7.11897320        8       0.00236910      -0.00722657      -0.00513944
O        0.62790593       0.59601217       5.44748026        9      -0.00236910      -0.00722657       0.00513944
O        0.62790593       2.41301082       2.93015538       10      -0.00236910       0.00722657      -0.00513943
O        2.24378498       5.42203381       1.25866244       11       0.00236910       0.00722657       0.00513944
O        3.49959684       2.41301082       1.25866244       12      -0.00236910       0.00722657       0.00513944
O        5.11547589       5.42203381       2.93015538       13       0.00236910       0.00722657      -0.00513944
O        5.11547589       3.60503517       5.44748026       14       0.00236910      -0.00722657       0.00513944
O        3.49959684       0.59601217       7.11897320       15      -0.00236910      -0.00722657      -0.00513944
O        5.44591094       4.51353449       0.00000000       16       0.00948754       0.00000000      -0.00000000
O        3.16916179       1.50451150       4.18881782       17      -0.00948754       0.00000000       0.00000000
O        0.29747088       1.50451150       0.00000000       18      -0.00948754       0.00000000      -0.00000000
O        2.57422003       4.51353449       4.18881782       19       0.00948754      -0.00000000       0.00000000
