20
Lattice="5.579666394219758 4.034796743160328e-59 5.545974421874303e-43 4.511280617624992e-59 5.653925696000146 -1.4479595504220797e-16 -1.2510322991574993e-42 -2.2618523464021617e-16 7.95496772718148" Properties=species:S:1:pos:R:3:spacegroup_kinds:I:1:forces:R:3 spacegroup="P 1" unit_cell=conventional occupancy="_JSON {\"0\": {\"In\": 1}, \"1\": {\"In\": 1}, \"2\": {\"In\": 1}, \"3\": {\"In\": 1}, \"4\": {\"In\": 1}, \"5\": {\"In\": 1}, \"6\": {\"In\": 1}, \"7\": {\"In\": 1}, \"8\": {\"O\": 1}, \"9\": {\"O\": 1}, \"10\": {\"O\": 1}, \"11\": {\"O\": 1}, \"12\": {\"O\": 1}, \"13\": {\"O\": 1}, \"14\": {\"O\": 1}, \"15\": {\"O\": 1}, \"16\": {\"O\": 1}, \"17\": {\"O\": 1}, \"18\": {\"O\": 1}, \"19\": {\"O\": 1}}" n_minim_iter=8 energy=-22574.92246956342 stress="0.00046113330659567053 6.469710422631079e-13 -6.359094763242203e-13 6.469710422631079e-13 0.000445170076676545 -1.8730260440094376e-14 -6.359094763242203e-13 -1.8730260440094376e-14 0.00038704063289976564" free_energy=-22574.92246956342 pbc="T T T"
In       1.38749951       2.99510431       0.91699387        0       0.00014081       0.00435852       0.00451356
In       1.40233368       0.16814147       3.06048999        1      -0.00014081       0.00435852      -0.00451356
In       1.40233368       2.65882138       4.89447774        2      -0.00014081      -0.00435852       0.00451356
In       1.38749951       5.48578423       7.03797385        3       0.00014081      -0.00435852      -0.00451356
In       4.19216688       2.65882138       7.03797385        4      -0.00014081      -0.00435852      -0.00451356
In       4.17733271       5.48578423       4.89447774        5       0.00014081      -0.00435852       0.00451356
In       4.17733271       2.99510431       3.06048999        6       0.00014081       0.00435852      -0.00451356
In       4.19216688       0.16814147       0.91699387        7      -0.00014081       0.00435852       0.00451356
O        2.17685308       3.40882267       6.76322082        8       0.00312659       0.00732544       0.00198830
O        0.61298012       0.58185982       5.16923077        9      -0.00312659       0.00732544      -0.00198830
O        0.61298012       2.24510303       2.78573696       10      -0.00312659      -0.00732544       0.00198830
O        2.17685308       5.07206587       1.19174691       11       0.00312659      -0.00732544      -0.00198830
O        3.40281332       2.24510303       1.19174691       12      -0.00312659      -0.00732544      -0.00198830
O        4.96668627       5.07206587       2.78573696       13       0.00312659      -0.00732544       0.00198830
O        4.96668627       3.40882267       5.16923077       14       0.00312659       0.00732544      -0.00198830
O        3.40281332       0.58185982       6.76322082       15      -0.00312659       0.00732544       0.00198830
O        5.33648625       4.24044427       0.00000000       16       0.00189072       0.00000000       0.00000000
O        3.03301334       1.41348142       3.97748386       17      -0.00189072       0.00000000      -0.00000000
O        0.24318014       1.41348142       0.00000000       18      -0.00189072       0.00000000      -0.00000000
O        2.54665305       4.24044427       3.97748386       19       0.00189072       0.00000000       0.00000000
