20
Lattice="5.451019721415301 2.171638341991026e-58 6.411980343802692e-43 -2.508638109625351e-58 5.4838563268205105 2.1817962114999487e-16 -7.573650274106401e-43 -2.117679510646669e-16 7.74944900246282" Properties=species:S:1:pos:R:3:spacegroup_kinds:I:1:forces:R:3 spacegroup="P 1" unit_cell=conventional occupancy="_JSON {\"0\": {\"In\": 1}, \"1\": {\"In\": 1}, \"2\": {\"In\": 1}, \"3\": {\"In\": 1}, \"4\": {\"In\": 1}, \"5\": {\"In\": 1}, \"6\": {\"In\": 1}, \"7\": {\"In\": 1}, \"8\": {\"O\": 1}, \"9\": {\"O\": 1}, \"10\": {\"O\": 1}, \"11\": {\"O\": 1}, \"12\": {\"O\": 1}, \"13\": {\"O\": 1}, \"14\": {\"O\": 1}, \"15\": {\"O\": 1}, \"16\": {\"O\": 1}, \"17\": {\"O\": 1}, \"18\": {\"O\": 1}, \"19\": {\"O\": 1}}" n_minim_iter=8 energy=-22574.96206178491 stress="0.009044585106662052 -9.879470233465055e-13 -2.0944216720238168e-13 -9.879470233465055e-13 0.008837692079758888 -2.88637088593973e-12 -2.0944216720238168e-13 -2.88637088593973e-12 0.00886288378755645" free_energy=-22574.96206178491 pbc="T T T"
In       1.35703600       2.90937021       0.89221710        0      -0.00326869       0.00798786       0.00385502
In       1.36847386       0.16744205       2.98250740        1       0.00326869       0.00798786      -0.00385502
In       1.36847386       2.57448612       4.76694160        2       0.00326869      -0.00798786       0.00385502
In       1.35703600       5.31641428       6.85723190        3      -0.00326869      -0.00798786      -0.00385502
In       4.09398372       2.57448612       6.85723190        4       0.00326869      -0.00798786      -0.00385502
In       4.08254586       5.31641428       4.76694160        5      -0.00326869      -0.00798786       0.00385502
In       4.08254586       2.90937021       2.98250740        6      -0.00326869       0.00798786      -0.00385502
In       4.09398372       0.16744205       0.89221710        7       0.00326869       0.00798786       0.00385502
O        2.11791090       3.28158281       6.59812860        8       0.00209022      -0.00338657      -0.00395781
O        0.60759896       0.53965465       5.02604490        9      -0.00209022      -0.00338657       0.00395781
O        0.60759896       2.20227351       2.72340410       10      -0.00209022       0.00338657      -0.00395781
O        2.11791090       4.94420168       1.15132040       11       0.00209022       0.00338657       0.00395781
O        3.33310882       2.20227351       1.15132040       12      -0.00209022       0.00338657       0.00395781
O        4.84342076       4.94420168       2.72340410       13       0.00209022       0.00338657      -0.00395781
O        4.84342076       3.28158281       5.02604490       14       0.00209022      -0.00338657       0.00395781
O        3.33310882       0.53965465       6.59812860       15      -0.00209022      -0.00338657      -0.00395781
O        5.19851371       4.11289225      -0.00000000       16      -0.00745723       0.00000000      -0.00000000
O        2.97801587       1.37096408       3.87472450       17       0.00745723       0.00000000      -0.00000000
O        0.25250601       1.37096408      -0.00000000       18       0.00745723       0.00000000       0.00000000
O        2.47300385       4.11289225       3.87472450       19      -0.00745723       0.00000000       0.00000000
