20
Lattice="5.561078169266739 2.4636115436316597e-58 9.081182490343775e-43 -3.4916524173155296e-58 5.204972446160886 7.261523305985804e-16 -1.2705921219981155e-42 -1.0855055686125076e-15 7.780773174858351" Properties=species:S:1:pos:R:3:spacegroup_kinds:I:1:forces:R:3 spacegroup="P 1" unit_cell=conventional occupancy="_JSON {\"0\": {\"In\": 1}, \"1\": {\"In\": 1}, \"2\": {\"In\": 1}, \"3\": {\"In\": 1}, \"4\": {\"In\": 1}, \"5\": {\"In\": 1}, \"6\": {\"In\": 1}, \"7\": {\"In\": 1}, \"8\": {\"O\": 1}, \"9\": {\"O\": 1}, \"10\": {\"O\": 1}, \"11\": {\"O\": 1}, \"12\": {\"O\": 1}, \"13\": {\"O\": 1}, \"14\": {\"O\": 1}, \"15\": {\"O\": 1}, \"16\": {\"O\": 1}, \"17\": {\"O\": 1}, \"18\": {\"O\": 1}, \"19\": {\"O\": 1}}" n_minim_iter=1 energy=-22575.66822757514 stress="0.015122235492675063 -8.155235612292361e-13 9.445367309794042e-13 -8.155235612292361e-13 -0.0072080955899271855 -1.1457687965901289e-12 9.445367309794042e-13 -1.1457687965901289e-12 0.011729139402596187" free_energy=-22575.66822757514 pbc="T T T"
In       1.40716722       2.62550870       0.80755623        0       0.00472863       0.20902116      -0.07307483
In       1.37337186       0.02302248       3.08283035        1      -0.00472863       0.20902116       0.07307483
In       1.37337186       2.57946375       4.69794282        2      -0.00472863      -0.20902116      -0.07307483
In       1.40716722       5.18194997       6.97321694        3       0.00472863      -0.20902116       0.07307483
In       4.15391095       2.57946375       6.97321694        4      -0.00472863      -0.20902116       0.07307483
In       4.18770631       5.18194997       4.69794282        5       0.00472863      -0.20902116      -0.07307483
In       4.18770631       2.62550870       3.08283035        6       0.00472863       0.20902116       0.07307483
In       4.15391095       0.02302248       0.80755623        7      -0.00472863       0.20902116      -0.07307483
O        2.14286542       3.08418937       6.58603761        8       0.02673994       0.08048299       0.13449124
O        0.63767366       0.48170315       5.08512215        9      -0.02673994       0.08048299      -0.13449124
O        0.63767366       2.12078307       2.69565102       10      -0.02673994      -0.08048299       0.13449124
O        2.14286542       4.72326930       1.19473557       11       0.02673994      -0.08048299      -0.13449124
O        3.41821275       2.12078307       1.19473557       12      -0.02673994      -0.08048299      -0.13449124
O        4.92340450       4.72326930       2.69565102       13       0.02673994      -0.08048299       0.13449124
O        4.92340450       3.08418937       5.08512215       14       0.02673994       0.08048299      -0.13449124
O        3.41821275       0.48170315       6.58603761       15      -0.02673994       0.08048299       0.13449124
O        5.46148534       3.90372933      -0.00000000       16      -0.11072674       0.00000000      -0.00000000
O        2.88013191       1.30124311       3.89038659       17       0.11072674       0.00000000       0.00000000
O        0.09959283       1.30124311      -0.00000000       18       0.11072674      -0.00000000       0.00000000
O        2.68094626       3.90372933       3.89038659       19      -0.11072674       0.00000000       0.00000000
20
Lattice="5.541181523212949 2.4953419096950876e-58 9.064769495562469e-43 -3.4906935052485314e-58 5.2349880192942715 7.426914996974279e-16 -1.265596763158741e-42 -1.0648229822885897e-15 7.76393909767113" Properties=species:S:1:pos:R:3:spacegroup_kinds:I:1:forces:R:3 spacegroup="P 1" unit_cell=conventional occupancy="_JSON {\"0\": {\"In\": 1}, \"1\": {\"In\": 1}, \"2\": {\"In\": 1}, \"3\": {\"In\": 1}, \"4\": {\"In\": 1}, \"5\": {\"In\": 1}, \"6\": {\"In\": 1}, \"7\": {\"In\": 1}, \"8\": {\"O\": 1}, \"9\": {\"O\": 1}, \"10\": {\"O\": 1}, \"11\": {\"O\": 1}, \"12\": {\"O\": 1}, \"13\": {\"O\": 1}, \"14\": {\"O\": 1}, \"15\": {\"O\": 1}, \"16\": {\"O\": 1}, \"17\": {\"O\": 1}, \"18\": {\"O\": 1}, \"19\": {\"O\": 1}}" n_minim_iter=2 energy=-22575.68247317993 stress="0.013320444715601204 -2.4259780310751915e-12 -1.6874467690066594e-12 -2.4259780310751915e-12 0.012417818267310669 -2.552225687382648e-12 -1.6874467690066594e-12 -2.552225687382648e-12 0.008362972933857927" free_energy=-22575.68247317993 pbc="T T T"
In       1.40214135       2.64103944       0.80567371        0      -0.03365004       0.21323968      -0.19063724
In       1.36844941       0.02354543       3.07629584        1       0.03365004       0.21323968       0.19063724
In       1.36844941       2.59394858       4.68764326        2       0.03365004      -0.21323968      -0.19063724
In       1.40214135       5.21144259       6.95826539        3      -0.03365004      -0.21323968       0.19063724
In       4.13904018       2.59394858       6.95826539        4       0.03365004      -0.21323968       0.19063724
In       4.17273211       5.21144259       4.68764326        5      -0.03365004      -0.21323968      -0.19063724
In       4.17273211       2.64103944       3.07629584        6      -0.03365004       0.21323968       0.19063724
In       4.13904018       0.02354543       0.80567371        7       0.03365004       0.21323968      -0.19063724
O        2.13524804       3.10212524       6.57203748        8       0.02462305       0.08997952       0.14063752
O        0.63534272       0.48463124       5.07387116        9      -0.02462305       0.08997952      -0.14063752
O        0.63534272       2.13286277       2.69006793       10      -0.02462305      -0.08997952       0.14063752
O        2.13524804       4.75035678       1.19190161       11       0.02462305      -0.08997952      -0.14063752
O        3.40593348       2.13286277       1.19190161       12      -0.02462305      -0.08997952      -0.14063752
O        4.90583881       4.75035678       2.69006793       13       0.02462305      -0.08997952       0.14063752
O        4.90583881       3.10212524       5.07387116       14       0.02462305       0.08997952      -0.14063752
O        3.40593348       0.48463124       6.57203748       15      -0.02462305       0.08997952       0.14063752
O        5.44174024       3.92624101      -0.00000000       16      -0.13784628       0.00000000       0.00000000
O        2.87003204       1.30874700       3.88196955       17       0.13784628       0.00000000      -0.00000000
O        0.09944128       1.30874700      -0.00000000       18       0.13784628       0.00000000       0.00000000
O        2.67114948       3.92624101       3.88196955       19      -0.13784628       0.00000000       0.00000000
20
Lattice="5.526904374842747 2.4866732284017258e-58 9.146541002997333e-43 -3.443982830414742e-58 5.236901675706962 7.415807736080996e-16 -1.3181943783346716e-42 -1.0693569738507356e-15 7.781150564652745" Properties=species:S:1:pos:R:3:spacegroup_kinds:I:1:forces:R:3 spacegroup="P 1" unit_cell=conventional occupancy="_JSON {\"0\": {\"In\": 1}, \"1\": {\"In\": 1}, \"2\": {\"In\": 1}, \"3\": {\"In\": 1}, \"4\": {\"In\": 1}, \"5\": {\"In\": 1}, \"6\": {\"In\": 1}, \"7\": {\"In\": 1}, \"8\": {\"O\": 1}, \"9\": {\"O\": 1}, \"10\": {\"O\": 1}, \"11\": {\"O\": 1}, \"12\": {\"O\": 1}, \"13\": {\"O\": 1}, \"14\": {\"O\": 1}, \"15\": {\"O\": 1}, \"16\": {\"O\": 1}, \"17\": {\"O\": 1}, \"18\": {\"O\": 1}, \"19\": {\"O\": 1}}" n_minim_iter=3 energy=-22575.685803577442 stress="0.008669417360025628 -1.126437545664607e-12 -4.55660324660008e-13 -1.126437545664607e-12 0.012341050220425202 1.4648941202660836e-13 -4.55660324660008e-13 1.4648941202660836e-13 0.016052628393814692" free_energy=-22575.685803577442 pbc="T T T"
In       1.39839722       2.64295799       0.80666711        0      -0.06692136       0.20077982      -0.17810199
In       1.36505497       0.02450716       3.08390817        1       0.06692136       0.20077982       0.17810199
In       1.36505497       2.59394368       4.69724239        2       0.06692136      -0.20077982      -0.17810199
In       1.39839722       5.21239452       6.97448345        3      -0.06692136      -0.20077982       0.17810199
In       4.12850715       2.59394368       6.97448345        4       0.06692136      -0.20077982       0.17810199
In       4.16184941       5.21239452       4.69724239        5      -0.06692136      -0.20077982      -0.17810199
In       4.16184941       2.64295799       3.08390817        6      -0.06692136       0.20077982       0.17810199
In       4.12850715       0.02450716       0.80666711        7       0.06692136       0.20077982      -0.17810199
O        2.12985536       3.10365812       6.58722560        8      -0.00072562       0.08794667       0.09035283
O        0.63359683       0.48520728       5.08450025        9       0.00072562       0.08794667      -0.09035283
O        0.63359683       2.13324355       2.69665032       10       0.00072562      -0.08794667       0.09035283
O        2.12985536       4.75169439       1.19392496       11      -0.00072562      -0.08794667      -0.09035283
O        3.39704901       2.13324355       1.19392496       12       0.00072562      -0.08794667      -0.09035283
O        4.89330755       4.75169439       2.69665032       13      -0.00072562      -0.08794667       0.09035283
O        4.89330755       3.10365812       5.08450025       14      -0.00072562       0.08794667      -0.09035283
O        3.39704901       0.48520728       6.58722560       15       0.00072562       0.08794667       0.09035283
O        5.42712610       3.92767626      -0.00000000       16      -0.18709162       0.00000000       0.00000000
O        2.86323046       1.30922542       3.89057528       17       0.18709162      -0.00000000      -0.00000000
O        0.09977828       1.30922542      -0.00000000       18       0.18709162      -0.00000000       0.00000000
O        2.66367391       3.92767626       3.89057528       19      -0.18709162      -0.00000000       0.00000000
20
Lattice="5.525016970830728 2.453819031341284e-58 9.269426154179934e-43 -3.448547671299404e-58 5.245065028904447 7.394489800224825e-16 -1.315115231320028e-42 -1.072892577552263e-15 7.771694065796548" Properties=species:S:1:pos:R:3:spacegroup_kinds:I:1:forces:R:3 spacegroup="P 1" unit_cell=conventional occupancy="_JSON {\"0\": {\"In\": 1}, \"1\": {\"In\": 1}, \"2\": {\"In\": 1}, \"3\": {\"In\": 1}, \"4\": {\"In\": 1}, \"5\": {\"In\": 1}, \"6\": {\"In\": 1}, \"7\": {\"In\": 1}, \"8\": {\"O\": 1}, \"9\": {\"O\": 1}, \"10\": {\"O\": 1}, \"11\": {\"O\": 1}, \"12\": {\"O\": 1}, \"13\": {\"O\": 1}, \"14\": {\"O\": 1}, \"15\": {\"O\": 1}, \"16\": {\"O\": 1}, \"17\": {\"O\": 1}, \"18\": {\"O\": 1}, \"19\": {\"O\": 1}}" n_minim_iter=4 energy=-22575.70375606158 stress="0.017546425172041583 1.2872768829474212e-12 2.600667174915095e-12 1.2872768829474212e-12 0.017548649610130782 5.963482197325283e-13 2.600667174915095e-12 5.963482197325283e-13 0.01794602651904195" free_energy=-22575.70375606158 pbc="T T T"
In       1.39636615       2.65444559       0.79944139        0      -0.05264419       0.01477457       0.00478956
In       1.36614233       0.03191307       3.08640564        1       0.05264419       0.01477457      -0.00478956
In       1.36614233       2.59061944       4.68528843        2       0.05264419      -0.01477457       0.00478956
In       1.39636615       5.21315196       6.97225267        3      -0.05264419      -0.01477457      -0.00478956
In       4.12865082       2.59061944       6.97225267        4       0.05264419      -0.01477457      -0.00478956
In       4.15887464       5.21315196       4.68528843        5      -0.05264419      -0.01477457       0.00478956
In       4.15887464       2.65444559       3.08640564        6      -0.05264419       0.01477457      -0.00478956
In       4.12865082       0.03191307       0.79944139        7       0.05264419       0.01477457       0.00478956
O        2.12963029       3.11163616       6.58340456        8      -0.00566817       0.06115473      -0.07949408
O        0.63287819       0.48910365       5.07413654        9       0.00566817       0.06115473       0.07949408
O        0.63287819       2.13342886       2.69755753       10       0.00566817      -0.06115473      -0.07949408
O        2.12963029       4.75596138       1.18828951       11      -0.00566817      -0.06115473       0.07949408
O        3.39538668       2.13342886       1.18828951       12       0.00566817      -0.06115473       0.07949408
O        4.89213878       4.75596138       2.69755753       13      -0.00566817      -0.06115473      -0.07949408
O        4.89213878       3.11163616       5.07413654       14      -0.00566817       0.06115473       0.07949408
O        3.39538668       0.48910365       6.58340456       15       0.00566817       0.06115473      -0.07949408
O        5.41987195       3.93379877      -0.00000000       16      -0.18604154       0.00000000       0.00000000
O        2.86765350       1.31126626       3.88584703       17       0.18604154      -0.00000000      -0.00000000
O        0.10514502       1.31126626      -0.00000000       18       0.18604154      -0.00000000      -0.00000000
O        2.65736347       3.93379877       3.88584703       19      -0.18604154      -0.00000000       0.00000000
20
Lattice="5.51391608673641 2.0552863578510118e-58 1.1089466452762035e-42 -3.7235924490654226e-58 5.25310801581712 7.449110012437916e-16 -8.00426370337285e-43 -1.0669067714331502e-15 7.775417290768587" Properties=species:S:1:pos:R:3:spacegroup_kinds:I:1:forces:R:3 spacegroup="P 1" unit_cell=conventional occupancy="_JSON {\"0\": {\"In\": 1}, \"1\": {\"In\": 1}, \"2\": {\"In\": 1}, \"3\": {\"In\": 1}, \"4\": {\"In\": 1}, \"5\": {\"In\": 1}, \"6\": {\"In\": 1}, \"7\": {\"In\": 1}, \"8\": {\"O\": 1}, \"9\": {\"O\": 1}, \"10\": {\"O\": 1}, \"11\": {\"O\": 1}, \"12\": {\"O\": 1}, \"13\": {\"O\": 1}, \"14\": {\"O\": 1}, \"15\": {\"O\": 1}, \"16\": {\"O\": 1}, \"17\": {\"O\": 1}, \"18\": {\"O\": 1}, \"19\": {\"O\": 1}}" n_minim_iter=5 energy=-22575.710215037987 stress="0.022207413807358665 1.7913177114727574e-12 3.275497965486906e-12 1.7913177114727574e-12 0.021211269884978432 -2.217635281011284e-12 3.275497965486906e-12 -2.217635281011284e-12 0.020831941318689998" free_energy=-22575.710215037987 pbc="T T T"
In       1.39041299       2.66372063       0.79617904        0       0.06687850      -0.05764025       0.07447124
In       1.36654505       0.03716662       3.09152961        1      -0.06687850      -0.05764025      -0.07447124
In       1.36654505       2.58938739       4.68388768        2      -0.06687850       0.05764025       0.07447124
In       1.39041299       5.21594139       6.97923825        3       0.06687850       0.05764025      -0.07447124
In       4.12350310       2.58938739       6.97923825        4      -0.06687850       0.05764025      -0.07447124
In       4.14737103       5.21594139       4.68388768        5       0.06687850       0.05764025       0.07447124
In       4.14737103       2.66372063       3.09152961        6       0.06687850      -0.05764025      -0.07447124
In       4.12350310       0.03716662       0.79617904        7      -0.06687850      -0.05764025       0.07447124
O        2.12547516       3.12107075       6.58575532        8      -0.00359144       0.04116877      -0.06193476
O        0.63148288       0.49451674       5.07737062        9       0.00359144       0.04116877       0.06193476
O        0.63148288       2.13203727       2.69804667       10       0.00359144      -0.04116877      -0.06193476
O        2.12547516       4.75859127       1.18966197       11      -0.00359144      -0.04116877       0.06193476
O        3.38844092       2.13203727       1.18966197       12       0.00359144      -0.04116877       0.06193476
O        4.88243321       4.75859127       2.69804667       13      -0.00359144      -0.04116877      -0.06193476
O        4.88243321       3.12107075       5.07737062       14      -0.00359144       0.04116877       0.06193476
O        3.38844092       0.49451674       6.58575532       15       0.00359144       0.04116877      -0.06193476
O        5.39774847       3.93983101      -0.00000000       16      -0.08483009       0.00000000      -0.00000000
O        2.87312566       1.31327700       3.88770865       17       0.08483009      -0.00000000      -0.00000000
O        0.11616762       1.31327700      -0.00000000       18       0.08483009      -0.00000000       0.00000000
O        2.64079043       3.93983101       3.88770865       19      -0.08483009       0.00000000      -0.00000000
20
Lattice="5.509753500218689 1.6794569043006035e-58 1.2931156363592735e-42 -3.2513421719544744e-58 5.252842133881475 7.812499336219531e-16 -1.704709472542503e-42 -1.013451776976878e-15 7.781685436913357" Properties=species:S:1:pos:R:3:spacegroup_kinds:I:1:forces:R:3 spacegroup="P 1" unit_cell=conventional occupancy="_JSON {\"0\": {\"In\": 1}, \"1\": {\"In\": 1}, \"2\": {\"In\": 1}, \"3\": {\"In\": 1}, \"4\": {\"In\": 1}, \"5\": {\"In\": 1}, \"6\": {\"In\": 1}, \"7\": {\"In\": 1}, \"8\": {\"O\": 1}, \"9\": {\"O\": 1}, \"10\": {\"O\": 1}, \"11\": {\"O\": 1}, \"12\": {\"O\": 1}, \"13\": {\"O\": 1}, \"14\": {\"O\": 1}, \"15\": {\"O\": 1}, \"16\": {\"O\": 1}, \"17\": {\"O\": 1}, \"18\": {\"O\": 1}, \"19\": {\"O\": 1}}" n_minim_iter=6 energy=-22575.713725657388 stress="0.020664898964195978 -1.9760470627002752e-12 -1.3777563795306054e-13 -1.9760470627002752e-12 0.021547951496746456 -4.027763759757596e-13 -1.3777563795306054e-13 -4.027763759757596e-13 0.021330082349557744" free_energy=-22575.713725657388 pbc="T T T"
In       1.39047708       2.66228491       0.79889730        0       0.06976644       0.01213982      -0.00446699
In       1.36439967       0.03586384       3.09194542        1      -0.06976644       0.01213982       0.00446699
In       1.36439967       2.59055722       4.68974002        2      -0.06976644      -0.01213982      -0.00446699
In       1.39047708       5.21697829       6.98278814        3       0.06976644      -0.01213982       0.00446699
In       4.11927642       2.59055722       6.98278814        4      -0.06976644      -0.01213982       0.00446699
In       4.14535383       5.21697829       4.68974002        5       0.06976644      -0.01213982      -0.00446699
In       4.14535383       2.66228491       3.09194542        6       0.06976644       0.01213982       0.00446699
In       4.11927642       0.03586384       0.79889730        7      -0.06976644       0.01213982      -0.00446699
O        2.12363039       3.12337959       6.58794615        8      -0.02215635       0.03979605       0.05265155
O        0.63124636       0.49695852       5.08458200        9       0.02215635       0.03979605      -0.05265155
O        0.63124636       2.12946255       2.69710344       10       0.02215635      -0.03979605       0.05265155
O        2.12363039       4.75588361       1.19373928       11      -0.02215635      -0.03979605      -0.05265155
O        3.38612311       2.12946255       1.19373928       12       0.02215635      -0.03979605      -0.05265155
O        4.87850714       4.75588361       2.69710344       13      -0.02215635      -0.03979605       0.05265155
O        4.87850714       3.12337959       5.08458200       14      -0.02215635       0.03979605      -0.05265155
O        3.38612311       0.49695852       6.58794615       15       0.02215635       0.03979605       0.05265155
O        5.38775787       3.93963160      -0.00000000       16      -0.00738961      -0.00000000       0.00000000
O        2.87687238       1.31321053       3.89084272       17       0.00738961      -0.00000000       0.00000000
O        0.12199563       1.31321053      -0.00000000       18       0.00738961       0.00000000      -0.00000000
O        2.63288112       3.93963160       3.89084272       19      -0.00738961      -0.00000000      -0.00000000
20
Lattice="5.511264601490733 1.810033796551532e-58 1.2819139475896851e-42 -3.1676806124547165e-58 5.2512126673673745 7.907838237118195e-16 -1.720914628362016e-42 -9.989239044168491e-16 7.781965839770797" Properties=species:S:1:pos:R:3:spacegroup_kinds:I:1:forces:R:3 spacegroup="P 1" unit_cell=conventional occupancy="_JSON {\"0\": {\"In\": 1}, \"1\": {\"In\": 1}, \"2\": {\"In\": 1}, \"3\": {\"In\": 1}, \"4\": {\"In\": 1}, \"5\": {\"In\": 1}, \"6\": {\"In\": 1}, \"7\": {\"In\": 1}, \"8\": {\"O\": 1}, \"9\": {\"O\": 1}, \"10\": {\"O\": 1}, \"11\": {\"O\": 1}, \"12\": {\"O\": 1}, \"13\": {\"O\": 1}, \"14\": {\"O\": 1}, \"15\": {\"O\": 1}, \"16\": {\"O\": 1}, \"17\": {\"O\": 1}, \"18\": {\"O\": 1}, \"19\": {\"O\": 1}}" n_minim_iter=7 energy=-22575.715809247664 stress="0.022733975306436168 -1.4873919891581717e-12 -5.195718067234041e-13 -1.4873919891581717e-12 0.022111244490716577 -1.9520146476832312e-12 -5.195718067234041e-13 -1.9520146476832312e-12 0.022440446509506943" free_energy=-22575.715809247664 pbc="T T T"
In       1.39437122       2.66245831       0.79913753        0      -0.02832907      -0.01638601       0.01685788
In       1.36126108       0.03685198       3.09184539        1       0.02832907      -0.01638601      -0.01685788
In       1.36126108       2.58875435       4.69012045        2       0.02832907       0.01638600       0.01685788
In       1.39437122       5.21436069       6.98282831        3      -0.02832907       0.01638601      -0.01685788
In       4.11689338       2.58875435       6.98282831        4       0.02832907       0.01638601      -0.01685788
In       4.15000352       5.21436069       4.69012045        5      -0.02832907       0.01638601       0.01685788
In       4.15000352       2.66245831       3.09184539        6      -0.02832907      -0.01638601      -0.01685788
In       4.11689338       0.03685198       0.79913753        7       0.02832907      -0.01638601       0.01685788
O        2.12316676       3.12649890       6.58918403        8      -0.04482745       0.01694288       0.01950381
O        0.63246554       0.50089257       5.08376473        9       0.04482745       0.01694288      -0.01950381
O        0.63246554       2.12471376       2.69820111       10       0.04482745      -0.01694288       0.01950381
O        2.12316676       4.75032010       1.19278181       11      -0.04482745      -0.01694288      -0.01950381
O        3.38809784       2.12471376       1.19278181       12       0.04482745      -0.01694288      -0.01950381
O        4.87879906       4.75032010       2.69820111       13      -0.04482745      -0.01694288       0.01950381
O        4.87879906       3.12649890       5.08376473       14      -0.04482745       0.01694288      -0.01950381
O        3.38809784       0.50089257       6.58918403       15       0.04482745       0.01694288       0.01950381
O        5.38392697       3.93840950      -0.00000000       16       0.00689982       0.00000000      -0.00000000
O        2.88296993       1.31280317       3.89098292       17      -0.00689982       0.00000000       0.00000000
O        0.12733763       1.31280317      -0.00000000       18      -0.00689982      -0.00000000       0.00000000
O        2.62829467       3.93840950       3.89098292       19       0.00689982      -0.00000000      -0.00000000
20
Lattice="5.50849709643227 1.9171354808446266e-58 1.3157011085855697e-42 -2.9501713170286953e-58 5.252790421466513 8.161181962608507e-16 -1.9472935951360978e-42 -9.61590293982239e-16 7.783536946360972" Properties=species:S:1:pos:R:3:spacegroup_kinds:I:1:forces:R:3 spacegroup="P 1" unit_cell=conventional occupancy="_JSON {\"0\": {\"In\": 1}, \"1\": {\"In\": 1}, \"2\": {\"In\": 1}, \"3\": {\"In\": 1}, \"4\": {\"In\": 1}, \"5\": {\"In\": 1}, \"6\": {\"In\": 1}, \"7\": {\"In\": 1}, \"8\": {\"O\": 1}, \"9\": {\"O\": 1}, \"10\": {\"O\": 1}, \"11\": {\"O\": 1}, \"12\": {\"O\": 1}, \"13\": {\"O\": 1}, \"14\": {\"O\": 1}, \"15\": {\"O\": 1}, \"16\": {\"O\": 1}, \"17\": {\"O\": 1}, \"18\": {\"O\": 1}, \"19\": {\"O\": 1}}" n_minim_iter=8 energy=-22575.716836701482 stress="0.023011170767087457 1.5401884092886232e-12 -1.381167067273742e-12 1.5401884092886232e-12 0.023846229234527613 5.5681839962981835e-12 -1.381167067273742e-12 5.5681839962981835e-12 0.02319457108545744" free_energy=-22575.716836701482 pbc="T T T"
In       1.39375345       2.66245166       0.80050306        0      -0.00843479       0.00049979       0.00245019
In       1.36049510       0.03605645       3.09126541        1       0.00843479       0.00049979      -0.00245019
In       1.36049510       2.59033876       4.69227153        2       0.00843479      -0.00049979       0.00245019
In       1.39375345       5.21673397       6.98303389        3      -0.00843479      -0.00049979      -0.00245019
In       4.11474365       2.59033876       6.98303389        4       0.00843479      -0.00049979      -0.00245019
In       4.14800200       5.21673397       4.69227153        5      -0.00843479      -0.00049979       0.00245019
In       4.14800200       2.66245166       3.09126541        6      -0.00843479       0.00049979      -0.00245019
In       4.11474365       0.03605645       0.80050306        7       0.00843479       0.00049979       0.00245019
O        2.11886170       3.13030133       6.59212661        8       0.00012570      -0.00571910       0.00653618
O        0.63538685       0.50390612       5.08317881        9      -0.00012570      -0.00571910      -0.00653618
O        0.63538685       2.12248909       2.70035813       10      -0.00012570       0.00571910       0.00653618
O        2.11886170       4.74888431       1.19141034       11       0.00012570       0.00571910      -0.00653618
O        3.38963540       2.12248909       1.19141034       12      -0.00012570       0.00571910      -0.00653618
O        4.87311025       4.74888431       2.70035813       13       0.00012570       0.00571910       0.00653618
O        4.87311025       3.13030133       5.08317881       14       0.00012570      -0.00571910      -0.00653618
O        3.38963540       0.50390612       6.59212661       15      -0.00012570      -0.00571910       0.00653618
O        5.37941444       3.93959282      -0.00000000       16      -0.01363852      -0.00000000       0.00000000
O        2.88333121       1.31319761       3.89176847       17       0.01363852      -0.00000000       0.00000000
O        0.12908266       1.31319761      -0.00000000       18       0.01363852      -0.00000000      -0.00000000
O        2.62516589       3.93959282       3.89176847       19      -0.01363852       0.00000000       0.00000000
20
Lattice="5.509200529705342 2.021373985944565e-58 1.2697580815592778e-42 -2.889615013060723e-58 5.251819658147752 8.158826323510231e-16 -2.076434865181674e-42 -9.618307356528662e-16 7.783981668578609" Properties=species:S:1:pos:R:3:spacegroup_kinds:I:1:forces:R:3 spacegroup="P 1" unit_cell=conventional occupancy="_JSON {\"0\": {\"In\": 1}, \"1\": {\"In\": 1}, \"2\": {\"In\": 1}, \"3\": {\"In\": 1}, \"4\": {\"In\": 1}, \"5\": {\"In\": 1}, \"6\": {\"In\": 1}, \"7\": {\"In\": 1}, \"8\": {\"O\": 1}, \"9\": {\"O\": 1}, \"10\": {\"O\": 1}, \"11\": {\"O\": 1}, \"12\": {\"O\": 1}, \"13\": {\"O\": 1}, \"14\": {\"O\": 1}, \"15\": {\"O\": 1}, \"16\": {\"O\": 1}, \"17\": {\"O\": 1}, \"18\": {\"O\": 1}, \"19\": {\"O\": 1}}" n_minim_iter=9 energy=-22575.716882382367 stress="0.023244673883394986 1.1454725644731954e-12 1.6750511720660266e-12 1.1454725644731954e-12 0.023360124881743424 3.020555636507567e-12 1.6750511720660266e-12 3.020555636507567e-12 0.02328559898665997" free_energy=-22575.716882382367 pbc="T T T"
In       1.39381118       2.66196926       0.80065319        0      -0.00174023       0.00027359       0.00579168
In       1.36078909       0.03605943       3.09133764        1       0.00174023       0.00027359      -0.00579168
In       1.36078909       2.58985040       4.69264403        2       0.00174023      -0.00027359       0.00579168
In       1.39381118       5.21576023       6.98332848        3      -0.00174023      -0.00027359      -0.00579168
In       4.11538935       2.58985040       6.98332848        4       0.00174023      -0.00027359      -0.00579168
In       4.14841144       5.21576023       4.69264403        5      -0.00174023      -0.00027359       0.00579168
In       4.14841144       2.66196926       3.09133764        6      -0.00174023       0.00027359      -0.00579168
In       4.11538935       0.03605943       0.80065319        7       0.00174023       0.00027359       0.00579168
O        2.11904622       3.12975532       6.59262650        8       0.00193339      -0.00647834       0.00667229
O        0.63555404       0.50384549       5.08334600        9      -0.00193339      -0.00647834      -0.00667229
O        0.63555404       2.12206433       2.70063567       10      -0.00193339       0.00647834       0.00667229
O        2.11904622       4.74797416       1.19135517       11       0.00193339       0.00647834      -0.00667229
O        3.39015431       2.12206433       1.19135517       12      -0.00193339       0.00647834      -0.00667229
O        4.87364649       4.74797416       2.70063567       13       0.00193339       0.00647834       0.00667229
O        4.87364649       3.12975532       5.08334600       14       0.00193339      -0.00647834      -0.00667229
O        3.39015431       0.50384549       6.59262650       15      -0.00193339      -0.00647834       0.00667229
O        5.37978196       3.93886474      -0.00000000       16      -0.00947348      -0.00000000       0.00000000
O        2.88401884       1.31295491       3.89199083       17       0.00947348      -0.00000000       0.00000000
O        0.12941857       1.31295491      -0.00000000       18       0.00947348       0.00000000      -0.00000000
O        2.62518169       3.93886474       3.89199083       19      -0.00947348      -0.00000000      -0.00000000
