20
Lattice="5.456224166427426 1.75735095289461e-58 1.4554882801369114e-42 -3.3897081144323164e-58 5.201318264237697 6.427029231904609e-16 -2.0564679086064578e-42 -9.525817903314772e-16 7.709131054882523" Properties=species:S:1:pos:R:3:spacegroup_kinds:I:1:forces:R:3 spacegroup="P 1" unit_cell=conventional occupancy="_JSON {\"0\": {\"In\": 1}, \"1\": {\"In\": 1}, \"2\": {\"In\": 1}, \"3\": {\"In\": 1}, \"4\": {\"In\": 1}, \"5\": {\"In\": 1}, \"6\": {\"In\": 1}, \"7\": {\"In\": 1}, \"8\": {\"O\": 1}, \"9\": {\"O\": 1}, \"10\": {\"O\": 1}, \"11\": {\"O\": 1}, \"12\": {\"O\": 1}, \"13\": {\"O\": 1}, \"14\": {\"O\": 1}, \"15\": {\"O\": 1}, \"16\": {\"O\": 1}, \"17\": {\"O\": 1}, \"18\": {\"O\": 1}, \"19\": {\"O\": 1}}" n_minim_iter=1 energy=-22575.783521156893 stress="-0.0016266026690054344 1.2423295596635597e-12 1.5400196265616457e-13 1.2423295596635597e-12 -0.016826460502686286 9.557504270700838e-13 1.5400196265616457e-13 9.557504270700838e-13 0.003017358181092038" free_energy=-22575.783521156893 pbc="T T T"
In       1.38040831       2.63637181       0.79295413        0       0.01873018       0.33672441       0.01191601
In       1.34770377       0.03571268       3.06161140        1      -0.01873018       0.33672441      -0.01191601
In       1.34770377       2.56494645       4.64751965        2      -0.01873018      -0.33672441       0.01191601
In       1.38040831       5.16560558       6.91617693        3       0.01873018      -0.33672441      -0.01191601
In       4.07581585       2.56494645       6.91617693        4      -0.01873018      -0.33672441      -0.01191601
In       4.10852040       5.16560558       4.64751965        5       0.01873018      -0.33672441       0.01191601
In       4.10852040       2.63637181       3.06161140        6       0.01873018       0.33672441      -0.01191601
In       4.07581585       0.03571268       0.79295413        7      -0.01873018       0.33672441       0.01191601
O        2.09866951       3.09965966       6.52923194        8      -0.03325839       0.09946639       0.18761957
O        0.62944257       0.49900053       5.03446464        9       0.03325839       0.09946639      -0.18761957
O        0.62944257       2.10165861       2.67466641       10       0.03325839      -0.09946639       0.18761957
O        2.09866951       4.70231774       1.17989912       11      -0.03325839      -0.09946639      -0.18761957
O        3.35755465       2.10165861       1.17989912       12       0.03325839      -0.09946639      -0.18761957
O        4.82678160       4.70231774       2.67466641       13      -0.03325839      -0.09946639       0.18761957
O        4.82678160       3.09965966       5.03446464       14      -0.03325839       0.09946639      -0.18761957
O        3.35755465       0.49900053       6.52923194       15       0.03325839       0.09946639       0.18761957
O        5.32805008       3.90098870      -0.00000000       16      -0.13674232       0.00000000      -0.00000000
O        2.85628617       1.30032957       3.85456553       17       0.13674232      -0.00000000       0.00000000
O        0.12817409       1.30032957      -0.00000000       18       0.13674232       0.00000000      -0.00000000
O        2.59993800       3.90098870       3.85456553       19      -0.13674232      -0.00000000      -0.00000000
20
Lattice="5.449203804854679 1.6660688372426903e-58 1.4723465438993975e-42 -3.5499666820486594e-58 5.223597651671348 6.73173620030886e-16 -2.0287843089592204e-42 -9.119229555020032e-16 7.686140041826366" Properties=species:S:1:pos:R:3:spacegroup_kinds:I:1:forces:R:3 spacegroup="P 1" unit_cell=conventional occupancy="_JSON {\"0\": {\"In\": 1}, \"1\": {\"In\": 1}, \"2\": {\"In\": 1}, \"3\": {\"In\": 1}, \"4\": {\"In\": 1}, \"5\": {\"In\": 1}, \"6\": {\"In\": 1}, \"7\": {\"In\": 1}, \"8\": {\"O\": 1}, \"9\": {\"O\": 1}, \"10\": {\"O\": 1}, \"11\": {\"O\": 1}, \"12\": {\"O\": 1}, \"13\": {\"O\": 1}, \"14\": {\"O\": 1}, \"15\": {\"O\": 1}, \"16\": {\"O\": 1}, \"17\": {\"O\": 1}, \"18\": {\"O\": 1}, \"19\": {\"O\": 1}}" n_minim_iter=2 energy=-22575.793787055936 stress="-0.0012374219682409241 1.5832588914028595e-12 1.2112450172972734e-12 1.5832588914028595e-12 -0.0017918807895486225 2.5861729305613165e-13 1.2112450172972734e-12 2.5861729305613165e-13 -0.004038431555239767" free_energy=-22575.793787055936 pbc="T T T"
In       1.37866347       2.64823006       0.79060916        0      -0.00419066       0.33859530      -0.05544850
In       1.34593843       0.03643123       3.05246086        1       0.00419066       0.33859530       0.05544850
In       1.34593843       2.57536759       4.63367918        2       0.00419066      -0.33859530      -0.05544850
In       1.37866347       5.18716642       6.89553088        3      -0.00419066      -0.33859530       0.05544850
In       4.07054034       2.57536759       6.89553088        4       0.00419066      -0.33859530       0.05544850
In       4.10326537       5.18716642       4.63367918        5      -0.00419066      -0.33859530      -0.05544850
In       4.10326537       2.64823006       3.05246086        6      -0.00419066       0.33859530       0.05544850
In       4.07054034       0.03643123       0.79060916        7       0.00419066       0.33859530      -0.05544850
O        2.09591367       3.11310385       6.51007260        8      -0.02041514       0.11351214       0.21325144
O        0.62868824       0.50130502       5.01913746        9       0.02041514       0.11351214      -0.21325144
O        0.62868824       2.11049381       2.66700258       10       0.02041514      -0.11351214       0.21325144
O        2.09591367       4.72229263       1.17606744       11      -0.02041514      -0.11351214      -0.21325144
O        3.35329014       2.11049381       1.17606744       12       0.02041514      -0.11351214      -0.21325144
O        4.82051557       4.72229263       2.66700258       13      -0.02041514      -0.11351214       0.21325144
O        4.82051557       3.11310385       5.01913746       14      -0.02041514       0.11351214      -0.21325144
O        3.35329014       0.50130502       6.51007260       15       0.02041514       0.11351214       0.21325144
O        5.32096623       3.91769824      -0.00000000       16      -0.13291062       0.00000000      -0.00000000
O        2.85283948       1.30589941       3.84307002       17       0.13291062      -0.00000000      -0.00000000
O        0.12823757       1.30589941      -0.00000000       18       0.13291062      -0.00000000      -0.00000000
O        2.59636433       3.91769824       3.84307002       19      -0.13291062       0.00000000      -0.00000000
20
Lattice="5.422559097962198 1.724785400802646e-58 1.4381978853598406e-42 -3.521898011502607e-58 5.23490490973506 6.7309330923244845e-16 -2.0727474038671907e-42 -9.167478033493351e-16 7.707223817370427" Properties=species:S:1:pos:R:3:spacegroup_kinds:I:1:forces:R:3 spacegroup="P 1" unit_cell=conventional occupancy="_JSON {\"0\": {\"In\": 1}, \"1\": {\"In\": 1}, \"2\": {\"In\": 1}, \"3\": {\"In\": 1}, \"4\": {\"In\": 1}, \"5\": {\"In\": 1}, \"6\": {\"In\": 1}, \"7\": {\"In\": 1}, \"8\": {\"O\": 1}, \"9\": {\"O\": 1}, \"10\": {\"O\": 1}, \"11\": {\"O\": 1}, \"12\": {\"O\": 1}, \"13\": {\"O\": 1}, \"14\": {\"O\": 1}, \"15\": {\"O\": 1}, \"16\": {\"O\": 1}, \"17\": {\"O\": 1}, \"18\": {\"O\": 1}, \"19\": {\"O\": 1}}" n_minim_iter=3 energy=-22575.80571326288 stress="-0.008233624993026094 1.5899612897541383e-14 -2.0823538101695096e-13 1.5899612897541383e-14 0.004616540152045728 -1.0827344135097507e-12 -2.0823538101695096e-13 -1.0827344135097507e-12 0.008677009451570157" free_energy=-22575.80571326288 pbc="T T T"
In       1.37188887       2.65965658       0.79196324        0      -0.10911992       0.19127042      -0.00567549
In       1.33939068       0.04220412       3.06164867        1       0.10911992       0.19127042       0.00567549
In       1.33939068       2.57524833       4.64557515        2       0.10911992      -0.19127042      -0.00567549
In       1.37188887       5.19270079       6.91526058        3      -0.10911992      -0.19127042       0.00567549
In       4.05067023       2.57524833       6.91526058        4       0.10911992      -0.19127042       0.00567549
In       4.08316842       5.19270079       4.64557515        5      -0.10911992      -0.19127042      -0.00567549
In       4.08316842       2.65965658       3.06164867        6      -0.10911992       0.19127042       0.00567549
In       4.05067023       0.04220412       0.79196324        7       0.10911992       0.19127042      -0.00567549
O        2.08530781       3.12173026       6.53143076        8      -0.06325142       0.08450715       0.03920407
O        0.62597174       0.50427780       5.02940497        9       0.06325142       0.08450715      -0.03920407
O        0.62597174       2.11317465       2.67781885       10       0.06325142      -0.08450715       0.03920407
O        2.08530781       4.73062711       1.17579306       11      -0.06325142      -0.08450715      -0.03920407
O        3.33725129       2.11317465       1.17579306       12       0.06325142      -0.08450715      -0.03920407
O        4.79658736       4.73062711       2.67781885       13      -0.06325142      -0.08450715       0.03920407
O        4.79658736       3.12173026       5.02940497       14      -0.06325142       0.08450715      -0.03920407
O        3.33725129       0.50427780       6.53143076       15       0.06325142       0.08450715       0.03920407
O        5.29274545       3.92617868      -0.00000000       16      -0.25719875      -0.00000000      -0.00000000
O        2.84109320       1.30872623       3.85361191       17       0.25719875      -0.00000000       0.00000000
O        0.12981365       1.30872623      -0.00000000       18       0.25719875       0.00000000      -0.00000000
O        2.58146590       3.92617868       3.85361191       19      -0.25719875       0.00000000       0.00000000
20
Lattice="5.438660567427432 1.759168431388482e-58 1.4431525140771517e-42 -3.552872999098367e-58 5.232626920855197 6.938915993992775e-16 -2.059497682756651e-42 -8.831388010069147e-16 7.687751489516019" Properties=species:S:1:pos:R:3:spacegroup_kinds:I:1:forces:R:3 spacegroup="P 1" unit_cell=conventional occupancy="_JSON {\"0\": {\"In\": 1}, \"1\": {\"In\": 1}, \"2\": {\"In\": 1}, \"3\": {\"In\": 1}, \"4\": {\"In\": 1}, \"5\": {\"In\": 1}, \"6\": {\"In\": 1}, \"7\": {\"In\": 1}, \"8\": {\"O\": 1}, \"9\": {\"O\": 1}, \"10\": {\"O\": 1}, \"11\": {\"O\": 1}, \"12\": {\"O\": 1}, \"13\": {\"O\": 1}, \"14\": {\"O\": 1}, \"15\": {\"O\": 1}, \"16\": {\"O\": 1}, \"17\": {\"O\": 1}, \"18\": {\"O\": 1}, \"19\": {\"O\": 1}}" n_minim_iter=4 energy=-22575.81948855283 stress="0.006408167858290261 -5.023513900034e-14 -1.500941147749642e-13 -5.023513900034e-14 0.007128310034895214 -2.999195151453444e-12 -1.500941147749642e-13 -2.999195151453444e-12 0.0069448735271657545" free_energy=-22575.81948855283 pbc="T T T"
In       1.37553359       2.66497507       0.78911011        0      -0.08623645      -0.04285182       0.08443109
In       1.34379670       0.04866160       3.05476564        1       0.08623645      -0.04285182      -0.08443109
In       1.34379670       2.56765186       4.63298585        2       0.08623645       0.04285182       0.08443109
In       1.37553359       5.18396532       6.89864138        3      -0.08623645       0.04285182      -0.08443109
In       4.06312698       2.56765186       6.89864138        4       0.08623645       0.04285182      -0.08443109
In       4.09486387       5.18396532       4.63298585        5      -0.08623645       0.04285182       0.08443109
In       4.09486387       2.66497507       3.05476564        6      -0.08623645      -0.04285182      -0.08443109
In       4.06312698       0.04866160       0.78911011        7       0.08623645      -0.04285182       0.08443109
O        2.09091010       3.12259769       6.51861504        8      -0.02129962       0.03783379      -0.06414428
O        0.62842018       0.50628423       5.01301219        9       0.02129962       0.03783379       0.06414428
O        0.62842018       2.11002923       2.67473930       10       0.02129962      -0.03783379      -0.06414428
O        2.09091010       4.72634269       1.16913645       11      -0.02129962      -0.03783379       0.06414428
O        3.34775046       2.11002923       1.16913645       12       0.02129962      -0.03783379       0.06414428
O        4.81024039       4.72634269       2.67473930       13      -0.02129962      -0.03783379      -0.06414428
O        4.81024039       3.12259769       5.01301219       14      -0.02129962       0.03783379       0.06414428
O        3.34775046       0.50628423       6.51861504       15       0.02129962       0.03783379      -0.06414428
O        5.30529605       3.92447019      -0.00000000       16      -0.28126568       0.00000000       0.00000000
O        2.85269480       1.30815673       3.84387574       17       0.28126568      -0.00000000      -0.00000000
O        0.13336452       1.30815673      -0.00000000       18       0.28126568       0.00000000       0.00000000
O        2.58596577       3.92447019       3.84387574       19      -0.28126568      -0.00000000      -0.00000000
20
Lattice="5.435158247397777 1.790652516880585e-58 1.4294672394594647e-42 -3.5635733443697934e-58 5.232031995344001 6.980847788240461e-16 -2.0543914205635264e-42 -8.775929054426691e-16 7.693580065383148" Properties=species:S:1:pos:R:3:spacegroup_kinds:I:1:forces:R:3 spacegroup="P 1" unit_cell=conventional occupancy="_JSON {\"0\": {\"In\": 1}, \"1\": {\"In\": 1}, \"2\": {\"In\": 1}, \"3\": {\"In\": 1}, \"4\": {\"In\": 1}, \"5\": {\"In\": 1}, \"6\": {\"In\": 1}, \"7\": {\"In\": 1}, \"8\": {\"O\": 1}, \"9\": {\"O\": 1}, \"10\": {\"O\": 1}, \"11\": {\"O\": 1}, \"12\": {\"O\": 1}, \"13\": {\"O\": 1}, \"14\": {\"O\": 1}, \"15\": {\"O\": 1}, \"16\": {\"O\": 1}, \"17\": {\"O\": 1}, \"18\": {\"O\": 1}, \"19\": {\"O\": 1}}" n_minim_iter=5 energy=-22575.832374102527 stress="0.012088748303905964 4.928079484196342e-14 -1.1391133584530882e-12 4.928079484196342e-14 0.008691366074133957 -3.3895847943183954e-12 -1.1391133584530882e-12 -3.3895847943183954e-12 0.008619873658463652" free_energy=-22575.832374102527 pbc="T T T"
In       1.36994469       2.66761904       0.79360123        0       0.17181980      -0.02771626       0.03828574
In       1.34763443       0.05160304       3.05318880        1      -0.17181980      -0.02771626      -0.03828574
In       1.34763443       2.56441296       4.64039127        2      -0.17181980       0.02771626       0.03828574
In       1.36994469       5.18042896       6.89997883        3       0.17181980       0.02771626      -0.03828574
In       4.06521355       2.56441296       6.89997883        4      -0.17181980       0.02771626      -0.03828574
In       4.08752382       5.18042896       4.64039127        5       0.17181980       0.02771626       0.03828574
In       4.08752382       2.66761904       3.05318880        6       0.17181980      -0.02771626      -0.03828574
In       4.06521355       0.05160304       0.79360123        7      -0.17181980      -0.02771626       0.03828574
O        2.08807385       3.12610931       6.52333367        8       0.01081791       0.01920996       0.09508868
O        0.62950527       0.51009331       5.01703643        9      -0.01081791       0.01920996      -0.09508868
O        0.62950527       2.10592268       2.67654364       10      -0.01081791      -0.01920996       0.09508868
O        2.08807385       4.72193868       1.17024640       11       0.01081791      -0.01920996      -0.09508868
O        3.34708440       2.10592268       1.17024640       12      -0.01081791      -0.01920996      -0.09508868
O        4.80565297       4.72193868       2.67654364       13       0.01081791      -0.01920996       0.09508868
O        4.80565297       3.12610931       5.01703643       14       0.01081791       0.01920996      -0.09508868
O        3.34708440       0.51009331       6.52333367       15      -0.01081791       0.01920996       0.09508868
O        5.28447268       3.92402400      -0.00000000       16      -0.06963042      -0.00000000       0.00000000
O        2.86826469       1.30800800       3.84679003       17       0.06963042      -0.00000000      -0.00000000
O        0.15068557       1.30800800      -0.00000000       18       0.06963042       0.00000000       0.00000000
O        2.56689356       3.92402400       3.84679003       19      -0.06963042      -0.00000000       0.00000000
20
Lattice="5.423570000027087 1.765313862731376e-58 1.418942383426122e-42 -3.5844349245890515e-58 5.237811566635061 6.82679848700954e-16 -2.0176690421634905e-42 -9.02462340434444e-16 7.701511035250781" Properties=species:S:1:pos:R:3:spacegroup_kinds:I:1:forces:R:3 spacegroup="P 1" unit_cell=conventional occupancy="_JSON {\"0\": {\"In\": 1}, \"1\": {\"In\": 1}, \"2\": {\"In\": 1}, \"3\": {\"In\": 1}, \"4\": {\"In\": 1}, \"5\": {\"In\": 1}, \"6\": {\"In\": 1}, \"7\": {\"In\": 1}, \"8\": {\"O\": 1}, \"9\": {\"O\": 1}, \"10\": {\"O\": 1}, \"11\": {\"O\": 1}, \"12\": {\"O\": 1}, \"13\": {\"O\": 1}, \"14\": {\"O\": 1}, \"15\": {\"O\": 1}, \"16\": {\"O\": 1}, \"17\": {\"O\": 1}, \"18\": {\"O\": 1}, \"19\": {\"O\": 1}}" n_minim_iter=6 energy=-22575.83962488793 stress="0.011322886249637605 2.9806889420467255e-13 8.721669575381988e-13 2.9806889420467255e-13 0.01471795174427795 9.131910312408516e-13 8.721669575381988e-13 9.131910312408516e-13 0.015244863328236824" free_energy=-22575.83962488793 pbc="T T T"
In       1.37049125       2.67315700       0.79780482        0       0.02110869      -0.04866957       0.04510469
In       1.34129375       0.05425122       3.05295070        1      -0.02110869      -0.04866957      -0.04510469
In       1.34129375       2.56465457       4.64856034        2      -0.02110869       0.04866957       0.04510469
In       1.37049125       5.18356035       6.90370621        3       0.02110869       0.04866957      -0.04510469
In       4.05307875       2.56465457       6.90370621        4      -0.02110869       0.04866957      -0.04510469
In       4.08227625       5.18356035       4.64856034        5       0.02110869       0.04866957       0.04510469
In       4.08227625       2.67315700       3.05295070        6       0.02110869      -0.04866957      -0.04510469
In       4.05307875       0.05425122       0.79780482        7      -0.02110869      -0.04866957       0.04510469
O        2.08272932       3.13330624       6.53446534        8      -0.06575766       0.00545392       0.00967078
O        0.62905568       0.51440045       5.01780122        9       0.06575766       0.00545392      -0.00967078
O        0.62905568       2.10450533       2.68370982       10       0.06575766      -0.00545392       0.00967078
O        2.08272932       4.72341111       1.16704570       11      -0.06575766      -0.00545392      -0.00967078
O        3.34084068       2.10450533       1.16704570       12       0.06575766      -0.00545392      -0.00967078
O        4.79451432       4.72341111       2.68370982       13      -0.06575766      -0.00545392       0.00967078
O        4.79451432       3.13330624       5.01780122       14      -0.06575766       0.00545392      -0.00967078
O        3.34084068       0.51440045       6.53446534       15       0.06575766       0.00545392       0.00967078
O        5.25892689       3.92835867      -0.00000000       16       0.00730329       0.00000000      -0.00000000
O        2.87642811       1.30945289       3.85075552       17      -0.00730329      -0.00000000       0.00000000
O        0.16464311       1.30945289      -0.00000000       18      -0.00730329       0.00000000      -0.00000000
O        2.54714189       3.92835867       3.85075552       19       0.00730329       0.00000000      -0.00000000
20
Lattice="5.434893464308763 1.79978994454578e-58 1.4230057589506258e-42 -3.488263726174667e-58 5.231161668938083 6.907210611646455e-16 -1.9158704188907838e-42 -8.885683709726924e-16 7.695234959445155" Properties=species:S:1:pos:R:3:spacegroup_kinds:I:1:forces:R:3 spacegroup="P 1" unit_cell=conventional occupancy="_JSON {\"0\": {\"In\": 1}, \"1\": {\"In\": 1}, \"2\": {\"In\": 1}, \"3\": {\"In\": 1}, \"4\": {\"In\": 1}, \"5\": {\"In\": 1}, \"6\": {\"In\": 1}, \"7\": {\"In\": 1}, \"8\": {\"O\": 1}, \"9\": {\"O\": 1}, \"10\": {\"O\": 1}, \"11\": {\"O\": 1}, \"12\": {\"O\": 1}, \"13\": {\"O\": 1}, \"14\": {\"O\": 1}, \"15\": {\"O\": 1}, \"16\": {\"O\": 1}, \"17\": {\"O\": 1}, \"18\": {\"O\": 1}, \"19\": {\"O\": 1}}" n_minim_iter=7 energy=-22575.84213344232 stress="0.01405026392722392 4.247592976544981e-12 2.261248124457361e-12 4.247592976544981e-12 0.01329002758241437 3.4328211376608016e-12 2.261248124457361e-12 3.4328211376608016e-12 0.011958875635059776" free_energy=-22575.84213344232 pbc="T T T"
In       1.37590399       2.66691494       0.79953794        0      -0.02436145       0.00293705       0.01469811
In       1.34154274       0.05133411       3.04807954        1       0.02436145       0.00293705      -0.01469811
In       1.34154274       2.56424673       4.64715542        2       0.02436144      -0.00293705       0.01469811
In       1.37590399       5.17982756       6.89569702        3      -0.02436144      -0.00293705      -0.01469811
In       4.05898947       2.56424673       6.89569702        4       0.02436145      -0.00293705      -0.01469811
In       4.09335072       5.17982756       4.64715542        5      -0.02436144      -0.00293705       0.01469811
In       4.09335072       2.66691494       3.04807954        6      -0.02436145       0.00293705      -0.01469811
In       4.05898947       0.05133411       0.79953794        7       0.02436145       0.00293705       0.01469811
O        2.08530023       3.12963887       6.53003790        8      -0.05462966       0.00605700       0.02946450
O        0.63214650       0.51405804       5.01281454        9       0.05462966       0.00605700      -0.02946450
O        0.63214650       2.10152279       2.68242042       10       0.05462966      -0.00605700       0.02946450
O        2.08530023       4.71710363       1.16519706       11      -0.05462966      -0.00605700      -0.02946450
O        3.34959323       2.10152279       1.16519706       12       0.05462966      -0.00605700      -0.02946450
O        4.80274697       4.71710363       2.68242042       13      -0.05462966      -0.00605700       0.02946450
O        4.80274697       3.12963887       5.01281454       14      -0.05462966       0.00605700      -0.02946450
O        3.34959323       0.51405804       6.53003790       15       0.05462966       0.00605700       0.02946450
O        5.26860977       3.92337125      -0.00000000       16       0.02630417       0.00000000       0.00000000
O        2.88373043       1.30779042       3.84761748       17      -0.02630417      -0.00000000       0.00000000
O        0.16628369       1.30779042      -0.00000000       18      -0.02630417       0.00000000      -0.00000000
O        2.55116304       3.92337125       3.84761748       19       0.02630417      -0.00000000      -0.00000000
20
Lattice="5.432497391001596 1.5167838657811735e-58 1.2817822138366955e-42 -3.847307284212484e-58 5.228968252687199 6.970969103951451e-16 -2.0506177105563323e-42 -8.796287337427661e-16 7.701858417203276" Properties=species:S:1:pos:R:3:spacegroup_kinds:I:1:forces:R:3 spacegroup="P 1" unit_cell=conventional occupancy="_JSON {\"0\": {\"In\": 1}, \"1\": {\"In\": 1}, \"2\": {\"In\": 1}, \"3\": {\"In\": 1}, \"4\": {\"In\": 1}, \"5\": {\"In\": 1}, \"6\": {\"In\": 1}, \"7\": {\"In\": 1}, \"8\": {\"O\": 1}, \"9\": {\"O\": 1}, \"10\": {\"O\": 1}, \"11\": {\"O\": 1}, \"12\": {\"O\": 1}, \"13\": {\"O\": 1}, \"14\": {\"O\": 1}, \"15\": {\"O\": 1}, \"16\": {\"O\": 1}, \"17\": {\"O\": 1}, \"18\": {\"O\": 1}, \"19\": {\"O\": 1}}" n_minim_iter=8 energy=-22575.843327827853 stress="0.013920066516503345 -3.860114855225484e-12 1.7855629644262706e-12 -3.860114855225484e-12 0.01274430561725187 -6.044922071399697e-12 1.7855629644262706e-12 -6.044922071399697e-12 0.01433894231222577" free_energy=-22575.843327827853 pbc="T T T"
In       1.37533609       2.66578649       0.80256870        0      -0.00505523      -0.00225118       0.00253289
In       1.34091261       0.05130236       3.04836051        1       0.00505523      -0.00225118      -0.00253289
In       1.34091261       2.56318177       4.65349791        2       0.00505523       0.00225118       0.00253289
In       1.37533609       5.17766589       6.89928971        3      -0.00505523       0.00225118      -0.00253289
In       4.05716131       2.56318177       6.89928971        4       0.00505523       0.00225118      -0.00253289
In       4.09158478       5.17766589       4.65349791        5      -0.00505523       0.00225118       0.00253289
In       4.09158478       2.66578649       3.04836051        6      -0.00505523      -0.00225118      -0.00253289
In       4.05716131       0.05130236       0.80256870        7       0.00505523      -0.00225118       0.00253289
O        2.08092310       3.12962692       6.53789369        8      -0.01279766      -0.01897798       0.00125280
O        0.63532559       0.51514279       5.01489393        9       0.01279766      -0.01897798      -0.00125280
O        0.63532559       2.09934134       2.68696448       10       0.01279766       0.01897798       0.00125280
O        2.08092310       4.71382546       1.16396472       11      -0.01279766       0.01897798      -0.00125280
O        3.35157429       2.09934134       1.16396472       12       0.01279766       0.01897798      -0.00125280
O        4.79717180       4.71382546       2.68696448       13      -0.01279766       0.01897798       0.00125281
O        4.79717180       3.12962692       5.01489393       14      -0.01279766      -0.01897798      -0.00125280
O        3.35157429       0.51514279       6.53789369       15       0.01279766      -0.01897798       0.00125280
O        5.26346963       3.92172619      -0.00000000       16       0.00482366       0.00000000       0.00000000
O        2.88527645       1.30724206       3.85092921       17      -0.00482366       0.00000000      -0.00000000
O        0.16902776       1.30724206      -0.00000000       18      -0.00482366       0.00000000       0.00000000
O        2.54722094       3.92172619       3.85092921       19       0.00482366      -0.00000000      -0.00000000
20
Lattice="5.431772551199483 1.593893047738416e-58 1.374850993537755e-42 -3.861029753410409e-58 5.230463868963612 6.972746083712119e-16 -1.9843177066230112e-42 -8.79462584355093e-16 7.70068359836719" Properties=species:S:1:pos:R:3:spacegroup_kinds:I:1:forces:R:3 spacegroup="P 1" unit_cell=conventional occupancy="_JSON {\"0\": {\"In\": 1}, \"1\": {\"In\": 1}, \"2\": {\"In\": 1}, \"3\": {\"In\": 1}, \"4\": {\"In\": 1}, \"5\": {\"In\": 1}, \"6\": {\"In\": 1}, \"7\": {\"In\": 1}, \"8\": {\"O\": 1}, \"9\": {\"O\": 1}, \"10\": {\"O\": 1}, \"11\": {\"O\": 1}, \"12\": {\"O\": 1}, \"13\": {\"O\": 1}, \"14\": {\"O\": 1}, \"15\": {\"O\": 1}, \"16\": {\"O\": 1}, \"17\": {\"O\": 1}, \"18\": {\"O\": 1}, \"19\": {\"O\": 1}}" n_minim_iter=9 energy=-22575.84346016546 stress="0.013557805308199576 -2.6569857544092765e-12 3.077801337183039e-12 -2.6569857544092765e-12 0.013386397048538357 -3.972958268874465e-12 3.077801337183039e-12 -3.972958268874465e-12 0.013738369940866782" free_energy=-22575.84346016546 pbc="T T T"
In       1.37497459       2.66640336       0.80230108        0      -0.00043608       0.00278345      -0.00043240
In       1.34091168       0.05117142       3.04804072        1       0.00043608       0.00278345       0.00043240
In       1.34091168       2.56406051       4.65264288        2       0.00043608      -0.00278345      -0.00043240
In       1.37497459       5.17929245       6.89838252        3      -0.00043608      -0.00278345       0.00043240
In       4.05679796       2.56406051       6.89838252        4       0.00043608      -0.00278345       0.00043240
In       4.09086087       5.17929245       4.65264288        5      -0.00043608      -0.00278345      -0.00043240
In       4.09086087       2.66640336       3.04804072        6      -0.00043608       0.00278345       0.00043240
In       4.05679796       0.05117142       0.80230108        7       0.00043608       0.00278345      -0.00043240
O        2.08035530       3.13010532       6.53689084        8      -0.00536470      -0.01621522       0.00072232
O        0.63553097       0.51487339       5.01413456        9       0.00536470      -0.01621522      -0.00072232
O        0.63553097       2.10035855       2.68654904       10       0.00536470       0.01621522       0.00072232
O        2.08035530       4.71559048       1.16379276       11      -0.00536470       0.01621522      -0.00072232
O        3.35141725       2.10035855       1.16379276       12       0.00536470       0.01621522      -0.00072232
O        4.79624158       4.71559048       2.68654904       13      -0.00536470       0.01621522       0.00072232
O        4.79624158       3.13010532       5.01413456       14      -0.00536470      -0.01621522      -0.00072232
O        3.35141725       0.51487339       6.53689084       15       0.00536470      -0.01621522       0.00072232
O        5.26362771       3.92284790      -0.00000000       16      -0.00592317      -0.00000000       0.00000000
O        2.88403111       1.30761597       3.85034180       17       0.00592317       0.00000000      -0.00000000
O        0.16814484       1.30761597      -0.00000000       18       0.00592317      -0.00000000      -0.00000000
O        2.54774144       3.92284790       3.85034180       19      -0.00592317       0.00000000      -0.00000000
20