20
Lattice="5.241370656994072 2.6888411152545703e-58 2.221716847873097e-42 -3.902666707209907e-58 5.3955405461738435 2.338921456427514e-16 -7.559015909442803e-43 -1.404143591888673e-15 6.826114461872181" Properties=species:S:1:pos:R:3:spacegroup_kinds:I:1:forces:R:3 spacegroup="P 1" unit_cell=conventional occupancy="_JSON {\"0\": {\"In\": 1}, \"1\": {\"In\": 1}, \"2\": {\"In\": 1}, \"3\": {\"In\": 1}, \"4\": {\"In\": 1}, \"5\": {\"In\": 1}, \"6\": {\"In\": 1}, \"7\": {\"In\": 1}, \"8\": {\"O\": 1}, \"9\": {\"O\": 1}, \"10\": {\"O\": 1}, \"11\": {\"O\": 1}, \"12\": {\"O\": 1}, \"13\": {\"O\": 1}, \"14\": {\"O\": 1}, \"15\": {\"O\": 1}, \"16\": {\"O\": 1}, \"17\": {\"O\": 1}, \"18\": {\"O\": 1}, \"19\": {\"O\": 1}}" n_minim_iter=11 energy=-22576.52509914869 stress="0.1747710173420901 3.0244603156819663e-12 6.020939435536788e-12 3.0244603156819663e-12 0.17442885093275598 2.881148225406295e-12 6.020939435536788e-12 2.881148225406295e-12 0.17511248204320853" free_energy=-22576.52509914869 pbc="T T T"
In       1.29302336       2.98288497       0.78533607        0      -0.00015749       0.00139407      -0.00964688
In       1.32766197       0.28511469       2.62772116        1       0.00015749       0.00139407       0.00964689
In       1.32766197       2.41265558       4.19839330        2       0.00015749      -0.00139407      -0.00964689
In       1.29302336       5.11042585       6.04077839        3      -0.00015749      -0.00139407       0.00964689
In       3.94834730       2.41265558       6.04077839        4       0.00015749      -0.00139407       0.00964689
In       3.91370869       5.11042585       4.19839330        5      -0.00015749      -0.00139407      -0.00964689
In       3.91370869       2.98288497       2.62772116        6      -0.00015749       0.00139407       0.00964689
In       3.94834730       0.28511469       0.78533607        7       0.00015749       0.00139407      -0.00964689
O        2.13685562       3.17874624       5.87616845        8       0.00643728       0.00162178      -0.00152003
O        0.48382971       0.48097597       4.36300324        9      -0.00643728       0.00162178       0.00152003
O        0.48382971       2.21679431       2.46311122       10      -0.00643728      -0.00162178      -0.00152003
O        2.13685562       4.91456458       0.94994601       11       0.00643728      -0.00162178       0.00152003
O        3.10451504       2.21679431       0.94994601       12      -0.00643728      -0.00162178       0.00152003
O        4.75754095       4.91456458       2.46311122       13       0.00643728      -0.00162178      -0.00152003
O        4.75754095       3.17874624       4.36300324       14       0.00643728       0.00162178       0.00152003
O        3.10451504       0.48097597       5.87616845       15      -0.00643728       0.00162178      -0.00152003
O        4.88862089       4.04665541      -0.00000000       16      -0.00189796      -0.00000000      -0.00000000
O        2.97343510       1.34888514       3.41305723       17       0.00189796       0.00000000      -0.00000000
O        0.35274977       1.34888514      -0.00000000       18       0.00189796      -0.00000000      -0.00000000
O        2.26793556       4.04665541       3.41305723       19      -0.00189796       0.00000000      -0.00000000
