20
Lattice="5.456224166427427 2.00193649369455e-58 1.257548112972901e-42 -2.861828532274661e-58 5.201318264237697 8.080371211029726e-16 -2.0564679086064565e-42 -9.525817903314774e-16 7.709131054882523" Properties=species:S:1:pos:R:3:spacegroup_kinds:I:1:forces:R:3 spacegroup="P 1" unit_cell=conventional occupancy="_JSON {\"0\": {\"In\": 1}, \"1\": {\"In\": 1}, \"2\": {\"In\": 1}, \"3\": {\"In\": 1}, \"4\": {\"In\": 1}, \"5\": {\"In\": 1}, \"6\": {\"In\": 1}, \"7\": {\"In\": 1}, \"8\": {\"O\": 1}, \"9\": {\"O\": 1}, \"10\": {\"O\": 1}, \"11\": {\"O\": 1}, \"12\": {\"O\": 1}, \"13\": {\"O\": 1}, \"14\": {\"O\": 1}, \"15\": {\"O\": 1}, \"16\": {\"O\": 1}, \"17\": {\"O\": 1}, \"18\": {\"O\": 1}, \"19\": {\"O\": 1}}" n_minim_iter=9 energy=-22575.716882382367 stress="0.023244673883394986 1.1454725644731954e-12 1.6750511720660266e-12 1.1454725644731954e-12 0.023360124881743424 3.020555636507567e-12 1.6750511720660266e-12 3.020555636507567e-12 0.02328559898665997" free_energy=-22575.716882382367 pbc="T T T"
In       1.38040831       2.63637181       0.79295413        0      -0.00174023       0.00027359       0.00579168
In       1.34770377       0.03571268       3.06161140        1       0.00174023       0.00027359      -0.00579168
In       1.34770377       2.56494645       4.64751965        2       0.00174023      -0.00027359       0.00579168
In       1.38040831       5.16560558       6.91617693        3      -0.00174023      -0.00027359      -0.00579168
In       4.07581585       2.56494645       6.91617693        4       0.00174023      -0.00027359      -0.00579168
In       4.10852040       5.16560558       4.64751965        5      -0.00174023      -0.00027359       0.00579168
In       4.10852040       2.63637181       3.06161140        6      -0.00174023       0.00027359      -0.00579168
In       4.07581585       0.03571268       0.79295413        7       0.00174023       0.00027359       0.00579168
O        2.09866951       3.09965966       6.52923194        8       0.00193339      -0.00647834       0.00667229
O        0.62944257       0.49900053       5.03446464        9      -0.00193339      -0.00647834      -0.00667229
O        0.62944257       2.10165861       2.67466641       10      -0.00193339       0.00647834       0.00667229
O        2.09866951       4.70231774       1.17989912       11       0.00193339       0.00647834      -0.00667229
O        3.35755465       2.10165861       1.17989912       12      -0.00193339       0.00647834      -0.00667229
O        4.82678160       4.70231774       2.67466641       13       0.00193339       0.00647834       0.00667229
O        4.82678160       3.09965966       5.03446464       14       0.00193339      -0.00647834      -0.00667229
O        3.35755465       0.49900053       6.52923194       15      -0.00193339      -0.00647834       0.00667229
O        5.32805008       3.90098870      -0.00000000       16      -0.00947348      -0.00000000       0.00000000
O        2.85628617       1.30032957       3.85456553       17       0.00947348      -0.00000000       0.00000000
O        0.12817409       1.30032957      -0.00000000       18       0.00947348       0.00000000      -0.00000000
O        2.59993800       3.90098870       3.85456553       19      -0.00947348      -0.00000000      -0.00000000
