20
Lattice="5.588944547835015 -4.386444230575174e-61 3.874292273764875e-43 -5.30814149502652e-62 5.692956315526845 7.211259310796983e-18 -5.607729602455401e-43 -1.0247023824315387e-17 8.08955225180262" Properties=species:S:1:pos:R:3:spacegroup_kinds:I:1:forces:R:3 spacegroup="P 1" unit_cell=conventional occupancy="_JSON {\"0\": {\"In\": 1}, \"1\": {\"In\": 1}, \"2\": {\"In\": 1}, \"3\": {\"In\": 1}, \"4\": {\"In\": 1}, \"5\": {\"In\": 1}, \"6\": {\"In\": 1}, \"7\": {\"In\": 1}, \"8\": {\"O\": 1}, \"9\": {\"O\": 1}, \"10\": {\"O\": 1}, \"11\": {\"O\": 1}, \"12\": {\"O\": 1}, \"13\": {\"O\": 1}, \"14\": {\"O\": 1}, \"15\": {\"O\": 1}, \"16\": {\"O\": 1}, \"17\": {\"O\": 1}, \"18\": {\"O\": 1}, \"19\": {\"O\": 1}}" n_minim_iter=1 energy=-22574.930438839372 stress="1.5410325692855753e-06 -3.4146148007853897e-13 2.790518228026167e-13 -3.4146148007853897e-13 3.6415105618315126e-06 -9.557940683640372e-14 2.790518228026167e-13 -9.557940683640372e-14 -6.494843206764089e-06" free_energy=-22574.930438839372 pbc="T T T"
In       1.38621593       3.00935343       0.93114986        0       0.00148568       0.00122522      -0.00144563
In       1.40825635       0.16287527       3.11362626        1      -0.00148568       0.00122522       0.00144563
In       1.40825635       2.68360288       4.97592599        2      -0.00148568      -0.00122522      -0.00144563
In       1.38621593       5.53008104       7.15840239        3       0.00148568      -0.00122522       0.00144563
In       4.20272862       2.68360288       7.15840239        4      -0.00148568      -0.00122522       0.00144563
In       4.18068820       5.53008104       4.97592599        5       0.00148568      -0.00122522      -0.00144563
In       4.18068820       3.00935343       3.11362626        6       0.00148568       0.00122522       0.00144563
In       4.20272862       0.16287527       0.93114986        7      -0.00148568       0.00122522      -0.00144563
O        2.17847892       3.43807135       6.87138163        8       0.00179621       0.00027839      -0.00071868
O        0.61599335       0.59159319       5.26294675        9      -0.00179621       0.00027839       0.00071868
O        0.61599335       2.25488497       2.82660550       10      -0.00179621      -0.00027839      -0.00071868
O        2.17847892       5.10136313       1.21817062       11       0.00179621      -0.00027839       0.00071868
O        3.41046563       2.25488497       1.21817062       12      -0.00179621      -0.00027839       0.00071868
O        4.97295120       5.10136313       2.82660550       13       0.00179621      -0.00027839      -0.00071868
O        4.97295120       3.43807135       5.26294675       14       0.00179621       0.00027839       0.00071868
O        3.41046563       0.59159319       6.87138163       15      -0.00179621       0.00027839      -0.00071868
O        5.35122472       4.26971724       0.00000000       16       0.00056640       0.00000000      -0.00000000
O        3.03219211       1.42323908       4.04477613       17      -0.00056640       0.00000000       0.00000000
O        0.23771983       1.42323908       0.00000000       18      -0.00056640      -0.00000000       0.00000000
O        2.55675244       4.26971724       4.04477613       19       0.00056640      -0.00000000       0.00000000
