20
Lattice="5.1751925947958295 1.0642554686826796e-57 -6.519364590461957e-45 -1.21125413989158e-57 6.207574530221027 2.8910001791863328e-15 7.005042529405838e-44 -5.004014151610409e-15 10.015063108219524" Properties=species:S:1:pos:R:3:spacegroup_kinds:I:1:forces:R:3 spacegroup="P 1" unit_cell=conventional occupancy="_JSON {\"0\": {\"In\": 1}, \"1\": {\"In\": 1}, \"2\": {\"In\": 1}, \"3\": {\"In\": 1}, \"4\": {\"In\": 1}, \"5\": {\"In\": 1}, \"6\": {\"In\": 1}, \"7\": {\"In\": 1}, \"8\": {\"O\": 1}, \"9\": {\"O\": 1}, \"10\": {\"O\": 1}, \"11\": {\"O\": 1}, \"12\": {\"O\": 1}, \"13\": {\"O\": 1}, \"14\": {\"O\": 1}, \"15\": {\"O\": 1}, \"16\": {\"O\": 1}, \"17\": {\"O\": 1}, \"18\": {\"O\": 1}, \"19\": {\"O\": 1}}" n_minim_iter=7 energy=-22574.67303182623 stress="0.08446479545390333 -1.8506375862302944e-12 -8.821718725554685e-13 -1.8506375862302944e-12 0.08478816705042914 -4.3422921783770674e-14 -8.821718725554685e-13 -4.3422921783770674e-14 0.08453872505920834" free_energy=-22574.67303182623 pbc="T T T"
In       0.96613625       3.28658794       1.28586855        0      -0.00352765       0.00370226      -0.00341786
In       1.62146005       0.18280068       3.72166301        1       0.00352765       0.00370226       0.00341786
In       1.62146005       2.92098659       6.29340010        2       0.00352765      -0.00370226      -0.00341786
In       0.96613625       6.02477385       8.72919456        3      -0.00352765      -0.00370226       0.00341786
In       4.20905634       2.92098659       8.72919456        4       0.00352765      -0.00370226       0.00341786
In       3.55373255       6.02477385       6.29340010        5      -0.00352765      -0.00370226      -0.00341786
In       3.55373255       3.28658794       3.72166301        6      -0.00352765       0.00370226       0.00341786
In       4.20905634       0.18280068       1.28586855        7       0.00352765       0.00370226      -0.00341786
O        2.08584325       3.26818248       8.37015448        8      -0.00064168      -0.00081636       0.00186616
O        0.50175304       0.16439521       6.65244018        9       0.00064168      -0.00081636      -0.00186616
O        0.50175304       2.93939205       3.36262292       10       0.00064168       0.00081636       0.00186616
O        2.08584325       6.04317932       1.64490863       11      -0.00064168       0.00081636      -0.00186616
O        3.08934934       2.93939205       1.64490863       12       0.00064168       0.00081636      -0.00186616
O        4.67343955       6.04317932       3.36262292       13      -0.00064168       0.00081636       0.00186616
O        4.67343955       3.26818248       6.65244018       14      -0.00064168      -0.00081636      -0.00186616
O        3.08934934       0.16439521       8.37015448       15       0.00064168      -0.00081636       0.00186616
O        5.05687622       4.65568090      -0.00000000       16      -0.00590399       0.00000000       0.00000000
O        2.70591268       1.55189363       5.00753155       17       0.00590399       0.00000000       0.00000000
O        0.11831638       1.55189363      -0.00000000       18       0.00590399       0.00000000       0.00000000
O        2.46927992       4.65568090       5.00753155       19      -0.00590399       0.00000000       0.00000000
