20
Lattice="5.377405946853932 1.5595606724971108e-58 1.4305456030545654e-42 -3.0661450812496872e-58 5.178431546289903 5.880154111169576e-16 -2.0286349620176806e-42 -8.658955168152282e-16 7.6256175863647595" Properties=species:S:1:pos:R:3:spacegroup_kinds:I:1:forces:R:3 spacegroup="P 1" unit_cell=conventional occupancy="_JSON {\"0\": {\"In\": 1}, \"1\": {\"In\": 1}, \"2\": {\"In\": 1}, \"3\": {\"In\": 1}, \"4\": {\"In\": 1}, \"5\": {\"In\": 1}, \"6\": {\"In\": 1}, \"7\": {\"In\": 1}, \"8\": {\"O\": 1}, \"9\": {\"O\": 1}, \"10\": {\"O\": 1}, \"11\": {\"O\": 1}, \"12\": {\"O\": 1}, \"13\": {\"O\": 1}, \"14\": {\"O\": 1}, \"15\": {\"O\": 1}, \"16\": {\"O\": 1}, \"17\": {\"O\": 1}, \"18\": {\"O\": 1}, \"19\": {\"O\": 1}}" n_minim_iter=1 energy=-22575.779606131182 stress="-0.040990651782941846 -8.285161045907723e-13 -5.783927786983088e-13 -8.285161045907723e-13 -0.03873644581772943 3.598636679985094e-12 -5.783927786983088e-13 3.598636679985094e-12 -0.030771351865904874" free_energy=-22575.779606131182 pbc="T T T"
In       1.36142361       2.64045010       0.79474849        0       0.02672992       0.56234956       0.04452172
In       1.32727936       0.05123433       3.01806030        1      -0.02672992       0.56234956      -0.04452172
In       1.32727936       2.53798145       4.60755728        2      -0.02672992      -0.56234956       0.04452172
In       1.36142361       5.12719722       6.83086910        3       0.02672992      -0.56234956      -0.04452172
In       4.01598233       2.53798145       6.83086910        4      -0.02672992      -0.56234956      -0.04452172
In       4.05012659       5.12719722       4.60755728        5       0.02672992      -0.56234956       0.04452172
In       4.05012659       2.64045010       3.01806030        6       0.02672992       0.56234956      -0.04452172
In       4.01598233       0.05123433       0.79474849        7      -0.02672992       0.56234956       0.04452172
O        2.05813390       3.09610086       6.47357487        8       0.06244136       0.16663883       0.12688797
O        0.63056908       0.50688509       4.96485151        9      -0.06244136       0.16663883      -0.12688797
O        0.63056908       2.08233069       2.66076608       10      -0.06244136      -0.16663883       0.12688797
O        2.05813390       4.67154646       1.15204271       11       0.06244136      -0.16663883      -0.12688797
O        3.31927205       2.08233069       1.15204271       12      -0.06244136      -0.16663883      -0.12688797
O        4.74683687       4.67154646       2.66076608       13       0.06244136      -0.16663883       0.12688797
O        4.74683687       3.09610086       4.96485151       14       0.06244136       0.16663883      -0.12688797
O        3.31927205       0.50688509       6.47357487       15      -0.06244136       0.16663883       0.12688797
O        5.20991580       3.88382366      -0.00000000       16      -0.06414453      -0.00000000      -0.00000000
O        2.85619312       1.29460789       3.81280879       17       0.06414453      -0.00000000      -0.00000000
O        0.16749015       1.29460789      -0.00000000       18       0.06414453       0.00000000      -0.00000000
O        2.52121282       3.88382366       3.81280879       19      -0.06414453      -0.00000000       0.00000000
20
Lattice="5.39270607911421 1.4429208599046625e-58 1.472308072992195e-42 -3.1596371728195976e-58 5.185172185771733 6.121048146397937e-16 -2.0339080121766835e-42 -8.288996274363003e-16 7.594097206473" Properties=species:S:1:pos:R:3:spacegroup_kinds:I:1:forces:R:3 spacegroup="P 1" unit_cell=conventional occupancy="_JSON {\"0\": {\"In\": 1}, \"1\": {\"In\": 1}, \"2\": {\"In\": 1}, \"3\": {\"In\": 1}, \"4\": {\"In\": 1}, \"5\": {\"In\": 1}, \"6\": {\"In\": 1}, \"7\": {\"In\": 1}, \"8\": {\"O\": 1}, \"9\": {\"O\": 1}, \"10\": {\"O\": 1}, \"11\": {\"O\": 1}, \"12\": {\"O\": 1}, \"13\": {\"O\": 1}, \"14\": {\"O\": 1}, \"15\": {\"O\": 1}, \"16\": {\"O\": 1}, \"17\": {\"O\": 1}, \"18\": {\"O\": 1}, \"19\": {\"O\": 1}}" n_minim_iter=2 energy=-22575.78856428146 stress="-0.029769128112992184 1.4409491211259747e-12 4.34777943739189e-12 1.4409491211259747e-12 -0.03189652568048765 7.933593577252883e-13 4.34777943739189e-12 7.933593577252883e-13 -0.04011930830732527" free_energy=-22575.78856428146 pbc="T T T"
In       1.36538348       2.64569913       0.79160609        0       0.04551054       0.48201846       0.00790644
In       1.33096956       0.05311304       3.00544252        1      -0.04551054       0.48201846      -0.00790644
In       1.33096956       2.53947305       4.58865469        2      -0.04551054      -0.48201846       0.00790644
In       1.36538348       5.13205915       6.80249112        3       0.04551054      -0.48201846      -0.00790644
In       4.02732260       2.53947305       6.80249112        4      -0.04551054      -0.48201846      -0.00790644
In       4.06173652       5.13205915       4.58865469        5       0.04551054      -0.48201846       0.00790644
In       4.06173652       2.64569913       3.00544252        6       0.04551054       0.48201846      -0.00790644
In       4.02732260       0.05311304       0.79160609        7      -0.04551054       0.48201846       0.00790644
O        2.06419134       3.10066793       6.44722309        8       0.10537010       0.17461114       0.18030422
O        0.63216170       0.50808184       4.94392272        9      -0.10537010       0.17461114      -0.18030422
O        0.63216170       2.08450426       2.65017448       10      -0.10537010      -0.17461114       0.18030422
O        2.06419134       4.67709035       1.14687412       11       0.10537010      -0.17461114      -0.18030422
O        3.32851474       2.08450426       1.14687412       12      -0.10537010      -0.17461114      -0.18030422
O        4.76054438       4.67709035       2.65017448       13       0.10537010      -0.17461114       0.18030422
O        4.76054438       3.10066793       4.94392272       14       0.10537010       0.17461114      -0.18030422
O        3.32851474       0.50808184       6.44722309       15      -0.10537010       0.17461114       0.18030422
O        5.22453237       3.88887914      -0.00000000       16      -0.05409890       0.00000000       0.00000000
O        2.86452675       1.29629305       3.79704860       17       0.05409890      -0.00000000      -0.00000000
O        0.16817371       1.29629305      -0.00000000       18       0.05409890      -0.00000000       0.00000000
O        2.52817933       3.88887914       3.79704860       19      -0.05409890      -0.00000000       0.00000000
20
Lattice="5.388161489315013 1.5961022387593762e-58 1.3750691429051116e-42 -3.435791825169396e-58 5.181158948117273 6.147765975368385e-16 -2.440255231260684e-42 -8.257957439524209e-16 7.606389590178379" Properties=species:S:1:pos:R:3:spacegroup_kinds:I:1:forces:R:3 spacegroup="P 1" unit_cell=conventional occupancy="_JSON {\"0\": {\"In\": 1}, \"1\": {\"In\": 1}, \"2\": {\"In\": 1}, \"3\": {\"In\": 1}, \"4\": {\"In\": 1}, \"5\": {\"In\": 1}, \"6\": {\"In\": 1}, \"7\": {\"In\": 1}, \"8\": {\"O\": 1}, \"9\": {\"O\": 1}, \"10\": {\"O\": 1}, \"11\": {\"O\": 1}, \"12\": {\"O\": 1}, \"13\": {\"O\": 1}, \"14\": {\"O\": 1}, \"15\": {\"O\": 1}, \"16\": {\"O\": 1}, \"17\": {\"O\": 1}, \"18\": {\"O\": 1}, \"19\": {\"O\": 1}}" n_minim_iter=3 energy=-22575.82382553287 stress="-0.01580493620155592 1.8097464358447544e-12 -1.652990610533174e-12 1.8097464358447544e-12 -0.024527266281211754 -2.813702275595321e-12 -1.652990610533174e-12 -2.813702275595321e-12 -0.01861884646411195" free_energy=-22575.82382553287 pbc="T T T"
In       1.36524699       2.65810622       0.79359452        0      -0.16435865      -0.05343909       0.11157531
In       1.32883375       0.06752675       3.00960028        1       0.16435865      -0.05343909      -0.11157531
In       1.32883375       2.52305273       4.59678931        2       0.16435865       0.05343909       0.11157531
In       1.36524699       5.11363220       6.81279507        3      -0.16435865       0.05343909      -0.11157531
In       4.02291450       2.52305273       6.81279507        4       0.16435865       0.05343909      -0.11157531
In       4.05932774       5.11363220       4.59678931        5      -0.16435865       0.05343909       0.11157531
In       4.05932774       2.65810622       3.00960028        6      -0.16435865      -0.05343909      -0.11157531
In       4.02291450       0.06752675       0.79359452        7       0.16435865      -0.05343909       0.11157531
O        2.06480728       3.10300780       6.46192108        8       0.08694722       0.04262672      -0.06883258
O        0.62927346       0.51242832       4.94766331        9      -0.08694722       0.04262672       0.06883258
O        0.62927346       2.07815115       2.65872628       10      -0.08694722      -0.04262672      -0.06883258
O        2.06480728       4.66873062       1.14446851       11       0.08694722      -0.04262672       0.06883258
O        3.32335421       2.07815115       1.14446851       12      -0.08694722      -0.04262672       0.06883258
O        4.75888803       4.66873062       2.65872628       13       0.08694722      -0.04262672      -0.06883258
O        4.75888803       3.10300780       4.94766331       14       0.08694722       0.04262672       0.06883258
O        3.32335421       0.51242832       6.46192108       15      -0.08694722       0.04262672      -0.06883258
O        5.21848978       3.88586921      -0.00000000       16      -0.28975672       0.00000000       0.00000000
O        2.86375246       1.29528974       3.80319480       17       0.28975672       0.00000000      -0.00000000
O        0.16967171       1.29528974      -0.00000000       18       0.28975672      -0.00000000      -0.00000000
O        2.52440903       3.88586921       3.80319480       19      -0.28975672       0.00000000       0.00000000
20
Lattice="5.375455452424796 1.569504680174006e-58 1.3734774959077183e-42 -3.504510434350068e-58 5.195653371440758 6.336076302942887e-16 -2.439016916553584e-42 -8.001204176659712e-16 7.60309905423498" Properties=species:S:1:pos:R:3:spacegroup_kinds:I:1:forces:R:3 spacegroup="P 1" unit_cell=conventional occupancy="_JSON {\"0\": {\"In\": 1}, \"1\": {\"In\": 1}, \"2\": {\"In\": 1}, \"3\": {\"In\": 1}, \"4\": {\"In\": 1}, \"5\": {\"In\": 1}, \"6\": {\"In\": 1}, \"7\": {\"In\": 1}, \"8\": {\"O\": 1}, \"9\": {\"O\": 1}, \"10\": {\"O\": 1}, \"11\": {\"O\": 1}, \"12\": {\"O\": 1}, \"13\": {\"O\": 1}, \"14\": {\"O\": 1}, \"15\": {\"O\": 1}, \"16\": {\"O\": 1}, \"17\": {\"O\": 1}, \"18\": {\"O\": 1}, \"19\": {\"O\": 1}}" n_minim_iter=4 energy=-22575.827314875678 stress="-0.021012879430215733 -1.3881115035276118e-12 -1.0224121374587584e-12 -1.3881115035276118e-12 -0.017777395876892168 2.519264952732078e-12 -1.0224121374587584e-12 2.519264952732078e-12 -0.01990726851882863" free_energy=-22575.827314875678 pbc="T T T"
In       1.36165611       2.66660553       0.79361744        0      -0.19239469      -0.04479883       0.09720873
In       1.32607162       0.06877884       3.00793209        1       0.19239469      -0.04479883      -0.09720873
In       1.32607162       2.52904784       4.59516696        2       0.19239469       0.04479883       0.09720873
In       1.36165611       5.12687453       6.80948162        3      -0.19239469       0.04479883      -0.09720873
In       4.01379934       2.52904784       6.80948162        4       0.19239469       0.04479883      -0.09720873
In       4.04938383       5.12687453       4.59516696        5      -0.19239469       0.04479883       0.09720873
In       4.04938383       2.66660553       3.00793209        6      -0.19239469      -0.04479883      -0.09720873
In       4.01379934       0.06877884       0.79361744        7       0.19239469      -0.04479883       0.09720873
O        2.06037693       3.11220508       6.45929319        8       0.07409409       0.05634006      -0.06392656
O        0.62735079       0.51437839       4.94535539        9      -0.07409409       0.05634006       0.06392656
O        0.62735079       2.08344830       2.65774366       10      -0.07409409      -0.05634006      -0.06392656
O        2.06037693       4.68127498       1.14380587       11       0.07409409      -0.05634006       0.06392656
O        3.31507852       2.08344830       1.14380587       12      -0.07409409      -0.05634006       0.06392656
O        4.74810466       4.68127498       2.65774366       13       0.07409409      -0.05634006      -0.06392656
O        4.74810466       3.11220508       4.94535539       14       0.07409409       0.05634006       0.06392656
O        3.31507852       0.51437839       6.45929319       15      -0.07409409       0.05634006      -0.06392656
O        5.20524248       3.89674003      -0.00000000       16      -0.29331081      -0.00000000      -0.00000000
O        2.85794070       1.29891334       3.80154953       17       0.29331081      -0.00000000       0.00000000
O        0.17021297       1.29891334      -0.00000000       18       0.29331081       0.00000000       0.00000000
O        2.51751476       3.89674003       3.80154953       19      -0.29331081      -0.00000000      -0.00000000
20
Lattice="5.367981242833658 1.9257984792340493e-58 1.2045927031098224e-42 -3.5774444124745604e-58 5.197688543734355 6.408950661811459e-16 -2.3768660495022462e-42 -7.906322487553551e-16 7.610704208212943" Properties=species:S:1:pos:R:3:spacegroup_kinds:I:1:forces:R:3 spacegroup="P 1" unit_cell=conventional occupancy="_JSON {\"0\": {\"In\": 1}, \"1\": {\"In\": 1}, \"2\": {\"In\": 1}, \"3\": {\"In\": 1}, \"4\": {\"In\": 1}, \"5\": {\"In\": 1}, \"6\": {\"In\": 1}, \"7\": {\"In\": 1}, \"8\": {\"O\": 1}, \"9\": {\"O\": 1}, \"10\": {\"O\": 1}, \"11\": {\"O\": 1}, \"12\": {\"O\": 1}, \"13\": {\"O\": 1}, \"14\": {\"O\": 1}, \"15\": {\"O\": 1}, \"16\": {\"O\": 1}, \"17\": {\"O\": 1}, \"18\": {\"O\": 1}, \"19\": {\"O\": 1}}" n_minim_iter=5 energy=-22575.84403589144 stress="-0.016585429299024238 3.3310891157246154e-12 -1.1418038397364208e-12 3.3310891157246154e-12 -0.015547735043998685 2.476342340777707e-12 -1.1418038397364208e-12 2.476342340777707e-12 -0.016357953643855734" free_energy=-22575.84403589144 pbc="T T T"
In       1.35230053       2.67108067       0.79896451        0       0.12441143      -0.00936094       0.04253681
In       1.33169009       0.07223640       3.00638759        1      -0.12441143      -0.00936094      -0.04253681
In       1.33169009       2.52660787       4.60431662        2      -0.12441143       0.00936094       0.04253681
In       1.35230053       5.12545214       6.81173969        3       0.12441143       0.00936094      -0.04253681
In       4.01568072       2.52660787       6.81173969        4      -0.12441143       0.00936094      -0.04253681
In       4.03629115       5.12545214       4.60431662        5       0.12441143       0.00936094       0.04253681
In       4.03629115       2.67108067       3.00638759        6       0.12441143      -0.00936094      -0.04253681
In       4.01568072       0.07223640       0.79896451        7      -0.12441143      -0.00936094       0.04253681
O        2.06172289       3.11747463       6.46461207        8       0.07008193       0.04590149       0.13892340
O        0.62226773       0.51863036       4.95144425        9      -0.07008193       0.04590149      -0.13892340
O        0.62226773       2.08021391       2.65925996       10      -0.07008193      -0.04590149       0.13892340
O        2.06172289       4.67905818       1.14609214       11       0.07008193      -0.04590149      -0.13892340
O        3.30625835       2.08021391       1.14609214       12      -0.07008193      -0.04590149      -0.13892340
O        4.74571351       4.67905818       2.65925996       13       0.07008193      -0.04590149       0.13892340
O        4.74571351       3.11747463       4.95144425       14       0.07008193       0.04590149      -0.13892340
O        3.30625835       0.51863036       6.46461207       15      -0.07008193       0.04590149       0.13892340
O        5.18494773       3.89826641      -0.00000000       16      -0.07080270       0.00000000      -0.00000000
O        2.86702414       1.29942214       3.80535210       17       0.07080270      -0.00000000       0.00000000
O        0.18303352       1.29942214      -0.00000000       18       0.07080270      -0.00000000       0.00000000
O        2.50095710       3.89826641       3.80535210       19      -0.07080270       0.00000000      -0.00000000
20
Lattice="5.3703717362307595 1.9288334623311397e-58 1.2067586715368024e-42 -3.6023475821530345e-58 5.198474758396903 6.435849386657719e-16 -2.340473863946094e-42 -7.862352292754087e-16 7.606165957385815" Properties=species:S:1:pos:R:3:spacegroup_kinds:I:1:forces:R:3 spacegroup="P 1" unit_cell=conventional occupancy="_JSON {\"0\": {\"In\": 1}, \"1\": {\"In\": 1}, \"2\": {\"In\": 1}, \"3\": {\"In\": 1}, \"4\": {\"In\": 1}, \"5\": {\"In\": 1}, \"6\": {\"In\": 1}, \"7\": {\"In\": 1}, \"8\": {\"O\": 1}, \"9\": {\"O\": 1}, \"10\": {\"O\": 1}, \"11\": {\"O\": 1}, \"12\": {\"O\": 1}, \"13\": {\"O\": 1}, \"14\": {\"O\": 1}, \"15\": {\"O\": 1}, \"16\": {\"O\": 1}, \"17\": {\"O\": 1}, \"18\": {\"O\": 1}, \"19\": {\"O\": 1}}" n_minim_iter=6 energy=-22575.85347152823 stress="-0.00886820367597995 7.899410141590749e-13 -1.4386348444188679e-12 7.899410141590749e-13 -0.010587665559361185 -2.578664167604153e-12 -1.4386348444188679e-12 -2.578664167604153e-12 -0.00770647702660501" free_energy=-22575.85347152823 pbc="T T T"
In       1.35390862       2.67571146       0.80371022        0      -0.00156595      -0.11163976       0.09791385
In       1.33127725       0.07647408       2.99937276        1       0.00156594      -0.11163976      -0.09791385
In       1.33127725       2.52276330       4.60679320        2       0.00156594       0.11163976       0.09791385
In       1.35390862       5.12200067       6.80245574        3      -0.00156594       0.11163976      -0.09791385
In       4.01646312       2.52276330       6.80245574        4       0.00156595       0.11163976      -0.09791385
In       4.03909449       5.12200067       4.60679320        5      -0.00156594       0.11163976       0.09791385
In       4.03909449       2.67571146       2.99937276        6      -0.00156594      -0.11163976      -0.09791385
In       4.01646312       0.07647408       0.80371022        7       0.00156594      -0.11163976       0.09791385
O        2.06910200       3.12351628       6.46703747        8      -0.04290645       0.03679927       0.02611767
O        0.61608387       0.52427890       4.94221146        9       0.04290645       0.03679927      -0.02611767
O        0.61608387       2.07495848       2.66395450       10       0.04290645      -0.03679927       0.02611767
O        2.06910200       4.67419586       1.13912848       11      -0.04290645      -0.03679927      -0.02611767
O        3.30126973       2.07495848       1.13912848       12       0.04290645      -0.03679927      -0.02611767
O        4.75428787       4.67419586       2.66395450       13      -0.04290645      -0.03679927       0.02611767
O        4.75428787       3.12351628       4.94221146       14      -0.04290645       0.03679927      -0.02611767
O        3.30126973       0.52427890       6.46703747       15       0.04290645       0.03679927       0.02611767
O        5.17495048       3.89885607      -0.00000000       16       0.01310813       0.00000000       0.00000000
O        2.88060713       1.29961869       3.80308298       17      -0.01310813      -0.00000000      -0.00000000
O        0.19542126       1.29961869      -0.00000000       18      -0.01310813      -0.00000000      -0.00000000
O        2.48976461       3.89885607       3.80308298       19       0.01310813      -0.00000000       0.00000000
20
Lattice="5.374474939431303 2.104685862390996e-58 1.1173167852021465e-42 -3.725417048630686e-58 5.201879607331658 6.450587182013619e-16 -2.199815642179378e-42 -7.832492653617083e-16 7.595384190121655" Properties=species:S:1:pos:R:3:spacegroup_kinds:I:1:forces:R:3 spacegroup="P 1" unit_cell=conventional occupancy="_JSON {\"0\": {\"In\": 1}, \"1\": {\"In\": 1}, \"2\": {\"In\": 1}, \"3\": {\"In\": 1}, \"4\": {\"In\": 1}, \"5\": {\"In\": 1}, \"6\": {\"In\": 1}, \"7\": {\"In\": 1}, \"8\": {\"O\": 1}, \"9\": {\"O\": 1}, \"10\": {\"O\": 1}, \"11\": {\"O\": 1}, \"12\": {\"O\": 1}, \"13\": {\"O\": 1}, \"14\": {\"O\": 1}, \"15\": {\"O\": 1}, \"16\": {\"O\": 1}, \"17\": {\"O\": 1}, \"18\": {\"O\": 1}, \"19\": {\"O\": 1}}" n_minim_iter=7 energy=-22575.858801281185 stress="-0.011057692631150149 -1.8213614325079e-12 -9.824437848185914e-13 -1.8213614325079e-12 -0.00917971393461019 6.362476239953735e-14 -9.824437848185914e-13 6.362476239953735e-14 -0.011199288846683444" free_energy=-22575.858801281185 pbc="T T T"
In       1.35622023       2.67279929       0.80859937        0      -0.04341025       0.04128315       0.03287599
In       1.33101724       0.07185948       2.98909272        1       0.04341025       0.04128315      -0.03287599
In       1.33101724       2.52908032       4.60629147        2       0.04341025      -0.04128315       0.03287599
In       1.35622023       5.13002012       6.78678482        3      -0.04341025      -0.04128315      -0.03287599
In       4.01825471       2.52908032       6.78678482        4       0.04341025      -0.04128315      -0.03287599
In       4.04345770       5.13002012       4.60629147        5      -0.04341025      -0.04128315       0.03287599
In       4.04345770       2.67279929       2.98909272        6      -0.04341025       0.04128315      -0.03287599
In       4.01825471       0.07185948       0.80859937        7       0.04341025       0.04128315       0.03287599
O        2.07214969       3.12925679       6.46242203        8      -0.07502205       0.06886192       0.03387598
O        0.61508778       0.52831699       4.93065425        9       0.07502205       0.06886192      -0.03387598
O        0.61508778       2.07262282       2.66472994       10       0.07502205      -0.06886192       0.03387598
O        2.07214969       4.67356262       1.13296216       11      -0.07502205      -0.06886192      -0.03387598
O        3.30232525       2.07262282       1.13296216       12       0.07502205      -0.06886192      -0.03387598
O        4.75938716       4.67356262       2.66472994       13      -0.07502205      -0.06886192       0.03387598
O        4.75938716       3.12925679       4.93065425       14      -0.07502205       0.06886192      -0.03387598
O        3.30232525       0.52831699       6.46242203       15       0.07502205       0.06886192       0.03387598
O        5.17381850       3.90140971      -0.00000000       16       0.08314416      -0.00000000       0.00000000
O        2.88789391       1.30046990       3.79769210       17      -0.08314416       0.00000000      -0.00000000
O        0.20065644       1.30046990      -0.00000000       18      -0.08314416       0.00000000       0.00000000
O        2.48658103       3.90140971       3.79769210       19       0.08314416       0.00000000       0.00000000
20
Lattice="5.376751670873854 1.9462212736863536e-58 1.1895919014220259e-42 -3.7871028542972536e-58 5.200477639279595 6.421723651929988e-16 -2.0980261443531712e-42 -7.871408797251022e-16 7.594214731693586" Properties=species:S:1:pos:R:3:spacegroup_kinds:I:1:forces:R:3 spacegroup="P 1" unit_cell=conventional occupancy="_JSON {\"0\": {\"In\": 1}, \"1\": {\"In\": 1}, \"2\": {\"In\": 1}, \"3\": {\"In\": 1}, \"4\": {\"In\": 1}, \"5\": {\"In\": 1}, \"6\": {\"In\": 1}, \"7\": {\"In\": 1}, \"8\": {\"O\": 1}, \"9\": {\"O\": 1}, \"10\": {\"O\": 1}, \"11\": {\"O\": 1}, \"12\": {\"O\": 1}, \"13\": {\"O\": 1}, \"14\": {\"O\": 1}, \"15\": {\"O\": 1}, \"16\": {\"O\": 1}, \"17\": {\"O\": 1}, \"18\": {\"O\": 1}, \"19\": {\"O\": 1}}" n_minim_iter=8 energy=-22575.862002746147 stress="-0.008868854552984301 -2.527542680338389e-12 -5.222877352903669e-13 -2.527542680338389e-12 -0.010075516168700787 7.887803741512246e-13 -5.222877352903669e-13 7.887803741512246e-13 -0.009244419909505223" free_energy=-22575.862002746147 pbc="T T T"
In       1.35588323       2.67196307       0.81299445        0      -0.01068816      -0.00322999      -0.01511611
In       1.33249261       0.07172425       2.98411291        1       0.01068816      -0.00322999       0.01511611
In       1.33249261       2.52851456       4.61010182        2       0.01068816       0.00322999      -0.01511611
In       1.35588323       5.12875338       6.78122028        3      -0.01068816       0.00322999       0.01511611
In       4.02086844       2.52851456       6.78122028        4       0.01068816       0.00322999       0.01511611
In       4.04425906       5.12875338       4.61010182        5      -0.01068816       0.00322999      -0.01511611
In       4.04425906       2.67196307       2.98411291        6      -0.01068816      -0.00323000       0.01511611
In       4.02086844       0.07172425       0.81299445        7       0.01068816      -0.00322999      -0.01511611
O        2.07103943       3.13301912       6.46498738        8      -0.00258691       0.01524554      -0.00222244
O        0.61733641       0.53278030       4.92633471        9       0.00258691       0.01524554       0.00222244
O        0.61733641       2.06745852       2.66788002       10       0.00258691      -0.01524554      -0.00222244
O        2.07103943       4.66769734       1.12922735       11      -0.00258691      -0.01524554       0.00222244
O        3.30571224       2.06745852       1.12922735       12       0.00258691      -0.01524554       0.00222244
O        4.75941526       4.66769734       2.66788002       13      -0.00258691      -0.01524554      -0.00222244
O        4.75941526       3.13301912       4.92633471       14      -0.00258691       0.01524554       0.00222244
O        3.30571224       0.53278030       6.46498738       15       0.00258691       0.01524554      -0.00222244
O        5.17647459       3.90035823      -0.00000000       16      -0.01623625       0.00000000      -0.00000000
O        2.88865291       1.30011941       3.79710737       17       0.01623625       0.00000000      -0.00000000
O        0.20027708       1.30011941      -0.00000000       18       0.01623625       0.00000000       0.00000000
O        2.48809876       3.90035823       3.79710737       19      -0.01623625      -0.00000000      -0.00000000
20
Lattice="5.375105712439171 1.990626635481113e-58 1.2132200530354712e-42 -3.800639079630776e-58 5.2024199764442285 6.290046684493383e-16 -2.080437409979347e-42 -8.0676834370714e-16 7.593704034786909" Properties=species:S:1:pos:R:3:spacegroup_kinds:I:1:forces:R:3 spacegroup="P 1" unit_cell=conventional occupancy="_JSON {\"0\": {\"In\": 1}, \"1\": {\"In\": 1}, \"2\": {\"In\": 1}, \"3\": {\"In\": 1}, \"4\": {\"In\": 1}, \"5\": {\"In\": 1}, \"6\": {\"In\": 1}, \"7\": {\"In\": 1}, \"8\": {\"O\": 1}, \"9\": {\"O\": 1}, \"10\": {\"O\": 1}, \"11\": {\"O\": 1}, \"12\": {\"O\": 1}, \"13\": {\"O\": 1}, \"14\": {\"O\": 1}, \"15\": {\"O\": 1}, \"16\": {\"O\": 1}, \"17\": {\"O\": 1}, \"18\": {\"O\": 1}, \"19\": {\"O\": 1}}" n_minim_iter=9 energy=-22575.86215429443 stress="-0.008842307339337626 9.315392222571525e-13 -1.8155125720844194e-12 9.315392222571525e-13 -0.009085540779672796 9.416174139211548e-13 -1.8155125720844194e-12 9.416174139211548e-13 -0.008860213511861503" free_energy=-22575.86215429443 pbc="T T T"
In       1.35505122       2.67329549       0.81318108        0       0.00112774      -0.00344610      -0.01184883
In       1.33250164       0.07208550       2.98367094        1      -0.00112774      -0.00344610       0.01184883
In       1.33250164       2.52912448       4.61003309        2      -0.00112774       0.00344610      -0.01184883
In       1.35505122       5.13033447       6.78052296        3       0.00112774       0.00344610       0.01184883
In       4.02005449       2.52912448       6.78052296        4      -0.00112774       0.00344610       0.01184883
In       4.04260408       5.13033447       4.61003309        5       0.00112774       0.00344610      -0.01184883
In       4.04260408       2.67329549       2.98367094        6       0.00112774      -0.00344610       0.01184883
In       4.02005449       0.07208550       0.81318108        7      -0.00112774      -0.00344610      -0.01184883
O        2.07061800       3.13492916       6.46484020        8      -0.00162467       0.01247663      -0.00098551
O        0.61693486       0.53371917       4.92571585        9       0.00162467       0.01247663       0.00098551
O        0.61693486       2.06749082       2.66798819       10       0.00162467      -0.01247663      -0.00098551
O        2.07061800       4.66870080       1.12886383       11      -0.00162467      -0.01247663       0.00098551
O        3.30448771       2.06749082       1.12886383       12       0.00162467      -0.01247663       0.00098551
O        4.75817085       4.66870080       2.66798819       13      -0.00162467      -0.01247663      -0.00098551
O        4.75817085       3.13492916       4.92571585       14      -0.00162467       0.01247663       0.00098551
O        3.30448771       0.53371917       6.46484020       15       0.00162467       0.01247663      -0.00098551
O        5.17389773       3.90181498      -0.00000000       16      -0.00452694       0.00000000      -0.00000000
O        2.88876084       1.30060499       3.79685202       17       0.00452694      -0.00000000      -0.00000000
O        0.20120799       1.30060499      -0.00000000       18       0.00452694       0.00000000       0.00000000
O        2.48634487       3.90181498       3.79685202       19      -0.00452694       0.00000000       0.00000000
20