1
Lattice="3.887676420087222 -0.06566799154337995 -2.4842616918100914e-10 0.20355472821042184 3.8828991366038244 -7.806812980410244e-10 -2.045615573967268 -1.9086155719968507 2.7001821705746516" Properties=species:S:1:pos:R:3:spacegroup_kinds:I:1:forces:R:3 spacegroup="P 1" unit_cell=conventional occupancy="_JSON {\"0\": {\"In\": 1}}" n_minim_iter=1 energy=-1968.3626961910502 stress="0.00840478508629336 -0.00016921486221376926 4.5623517741557855e-14 -0.00016921486221376926 0.008428264034896273 4.256004090841325e-14 4.5623517741557855e-14 4.256004090841325e-14 0.008586146153709904" pbc="T T T"
In       0.00000000       0.00000000       0.00000000        0       0.00000000       0.00000000       0.00000000
