1
Lattice="3.5150416247415843 -0.0593736974855993 -2.2461317760045333e-10 0.1840439546037498 3.5107222451217757 -7.058515600774983e-10 -1.8495427895085161 -1.725674273335841 2.441369007696898" Properties=species:S:1:pos:R:3:spacegroup_kinds:I:1:forces:R:3 spacegroup="P 1" unit_cell=conventional occupancy="_JSON {\"0\": {\"In\": 1}}" n_minim_iter=1 energy=-1968.3104263838638 stress="-0.02420129797596523 0.002905240195100881 -7.832324391157789e-13 0.002905240195100881 -0.024604406688329833 -7.307577060448533e-13 -7.832324391157789e-13 -7.307577060448533e-13 -0.02731507566659935" pbc="T T T"
In       0.00000000       0.00000000       0.00000000        0       0.00000000       0.00000000       0.00000000
