1
Lattice="3.771556314453664 -0.06370656952909977 -2.410059639891888e-10 0.19747479922768416 3.766921722543018 -7.57362255047362e-10 -1.9845155566645436 -1.8516075759895194 2.619531055359167" Properties=species:S:1:pos:R:3:spacegroup_kinds:I:1:forces:R:3 spacegroup="P 1" unit_cell=conventional occupancy="_JSON {\"0\": {\"In\": 1}}" n_minim_iter=1 energy=-1968.3803868573325 stress="0.002358645518204633 0.00041539234210965316 -1.119872689179477e-13 0.00041539234210965316 0.0023010088820200223 -1.0448805088314479e-13 -1.119872689179477e-13 -1.0448805088314479e-13 0.0019134364060966432" pbc="T T T"
In       0.00000000       0.00000000       0.00000000        0       0.00000000       0.00000000       0.00000000
