1
Lattice="3.9972456142657764 -0.0675187600074317 -2.554283741748253e-10 0.209291658224971 3.9923336891494148 -8.026851940096434e-10 -2.1032686360587034 -1.9624074640225873 2.7762833561148126" Properties=species:S:1:pos:R:3:spacegroup_kinds:I:1:forces:R:3 spacegroup="P 1" unit_cell=conventional occupancy="_JSON {\"0\": {\"In\": 1}}" n_minim_iter=1 energy=-1968.3370920455413 stress="0.011289304199813487 -0.00047266971734691434 1.2743639111303928e-13 -0.00047266971734691434 0.011354888202628373 1.1889708146418617e-13 1.2743639111303928e-13 1.1889708146418617e-13 0.011795902044423734" pbc="T T T"
In       0.00000000       0.00000000       0.00000000        0       0.00000000       0.00000000       0.00000000
