1
Lattice="3.582655093785093 -0.060515778315790913 -2.2893398414468938e-10 0.18758412611684278 3.578252628878853 -7.194298502902686e-10 -1.8851196097836596 -1.7588684247900077 2.4883298819761133" Properties=species:S:1:pos:R:3:spacegroup_kinds:I:1:forces:R:3 spacegroup="P 1" unit_cell=conventional occupancy="_JSON {\"0\": {\"In\": 1}}" n_minim_iter=1 energy=-1968.3471799866254 stress="-0.015019227882490814 0.0020546959435149823 -5.539424523884987e-13 0.0020546959435149823 -0.015304321637385099 -5.168283890542245e-13 -5.539424523884987e-13 -5.168283890542245e-13 -0.0172214094441883" pbc="T T T"
In       0.00000000       0.00000000       0.00000000        0       0.00000000       0.00000000       0.00000000
