1
Lattice="3.371407522305914 -0.056947527710937584 -2.1543429566270387e-10 0.17652342112211414 3.3672646442132574 -6.770068536153537e-10 -1.773965471556571 -1.6551585577886214 2.3416080706807993" Properties=species:S:1:pos:R:3:spacegroup_kinds:I:1:forces:R:3 spacegroup="P 1" unit_cell=conventional occupancy="_JSON {\"0\": {\"In\": 1}}" n_minim_iter=1 energy=-1968.173584405255 stress="-0.04948059670238444 0.00564644262612843 -1.5221978942335726e-12 0.00564644262612843 -0.05026405351270164 -1.4203358081693738e-12 -1.5221978942335726e-12 -1.4203358081693738e-12 -0.05553233972533056" pbc="T T T"
In       0.00000000       0.00000000       0.00000000        0       0.00000000       0.00000000       0.00000000
