40
Lattice="9.423263473281004 7.38570993663872e-10 8.63415608282433e-15 -3.1410878251233316 8.88433800357314 -1.2792655186742422e-09 -3.1410878240788453 -4.442169001047982 7.6940624077546955" Properties=species:S:1:pos:R:3:spacegroup_kinds:I:1:forces:R:3 spacegroup="P 1" unit_cell=conventional occupancy="_JSON {\"0\": {\"In\": 1}, \"1\": {\"In\": 1}, \"2\": {\"In\": 1}, \"3\": {\"In\": 1}, \"4\": {\"In\": 1}, \"5\": {\"In\": 1}, \"6\": {\"In\": 1}, \"7\": {\"In\": 1}, \"8\": {\"In\": 1}, \"9\": {\"In\": 1}, \"10\": {\"In\": 1}, \"11\": {\"In\": 1}, \"12\": {\"In\": 1}, \"13\": {\"In\": 1}, \"14\": {\"In\": 1}, \"15\": {\"In\": 1}, \"16\": {\"O\": 1}, \"17\": {\"O\": 1}, \"18\": {\"O\": 1}, \"19\": {\"O\": 1}, \"20\": {\"O\": 1}, \"21\": {\"O\": 1}, \"22\": {\"O\": 1}, \"23\": {\"O\": 1}, \"24\": {\"O\": 1}, \"25\": {\"O\": 1}, \"26\": {\"O\": 1}, \"27\": {\"O\": 1}, \"28\": {\"O\": 1}, \"29\": {\"O\": 1}, \"30\": {\"O\": 1}, \"31\": {\"O\": 1}, \"32\": {\"O\": 1}, \"33\": {\"O\": 1}, \"34\": {\"O\": 1}, \"35\": {\"O\": 1}, \"36\": {\"O\": 1}, \"37\": {\"O\": 1}, \"38\": {\"O\": 1}, \"39\": {\"O\": 1}}" n_minim_iter=1 energy=-45145.33230865516 stress="0.11759271444884052 -6.699129249375262e-14 -2.4686974656636757e-13 -6.699129249375262e-14 0.11759271444874606 -2.9365818625991873e-13 -2.4686974656636757e-13 -2.9365818625991873e-13 0.1175927144486522" free_energy=-45145.33230865516 pbc="T T T"
In      -4.46735752       3.15889880       6.06972040        0       0.04183583      -0.02958240       0.05123822
In       7.60844534       1.28327021       1.62434200        1      -0.04183583       0.02958240      -0.05123822
In       1.32626969      -0.93781429       5.47137321        2      -0.04183583       0.02958240      -0.05123822
In      -1.57054391      -2.22108450       3.84703120        3       0.00000000       0.00000000       0.00000000
In      -1.32626970       4.26944105       3.54785760        4       0.04183583      -0.02958240      -0.05123822
In       4.95590595      -2.98617084       5.77054680        5       0.04183583       0.05916480       0.00000000
In      -1.32626970       1.45599816       5.77054680        6       0.04183583       0.05916480      -0.00000000
In      -1.81481813       7.42833984       1.92351560        7      -0.04183583      -0.05916480      -0.00000000
In       4.46735752       0.17272796       4.14620480        8      -0.04183583       0.02958240       0.05123822
In      -1.57054391       4.44216900      -0.00000000        9      -0.00000000       0.00000000       0.00000000
In       4.46735752       6.83598146       0.29917359       10      -0.04183583       0.02958240       0.05123822
In      -1.32626970      -2.39381245       7.39488881       11       0.04183583      -0.02958240      -0.05123822
In       4.46735752       2.98617084       1.92351560       12      -0.04183583      -0.05916480      -0.00000000
In       1.81481813       5.37998330       2.22268919       13       0.04183583      -0.02958240       0.05123822
In       4.71163174       0.00000000      -0.00000000       14       0.00000000      -0.00000000      -0.00000000
In       1.57054391       2.22108450       3.84703120       15       0.00000000       0.00000000       0.00000000
O        1.02953810       4.45834209       4.15476995       16       0.04010756       0.00752527      -0.06184715
O       -2.11154972       3.59004978       5.60267112       17       0.04010756      -0.05732383       0.02440650
O       -0.44495820       2.41159162      -0.05024187       18      -0.03358135      -0.00521790      -0.06584362
O       -1.02953811      -0.83594613       2.06337867       19      -0.04010756      -0.04979857      -0.03744065
O        4.08858130       5.24910798       2.11362054       20      -0.06741461       0.01178374       0.02840297
O        2.19359435       3.01518941       1.75563992       21       0.06741461      -0.01870583       0.02440650
O        2.19359435       6.67608757       0.35798062       22       0.06741461       0.03048956       0.00399647
O       -2.42198979       6.27890025       3.79678933       23      -0.00627430       0.03340010      -0.06584362
O        3.58604603       2.03057739       7.74430428       24       0.03358135       0.00521790       0.06584362
O        5.56307761      -1.83673124       3.89727307       25       0.00627430      -0.03340010       0.06584362
O        6.72713385       3.38336958       1.73341066       26       0.03358135      -0.05963120      -0.02840297
O        3.86018586       2.36975039       4.20501182       27      -0.00627430      -0.07372230       0.00399647
O        0.71909804       4.67785637       7.38632366       28      -0.00627430       0.04032219       0.06184715
O        2.42198978      -0.23568736       0.30773875       29       0.00627430      -0.04032219      -0.06184715
O       -3.58604603       1.05879943       5.96065174       30      -0.03358135       0.05963120       0.02840297
O        5.25263754       0.85211922       2.09139128       31      -0.04010756       0.05732383      -0.02440650
O        0.94749347       1.42697960       5.93842248       32      -0.06741461       0.01870583      -0.02440650
O        3.58604603      -0.97177795       5.91040987       33       0.03358135       0.05441329      -0.03744065
O        2.11154972      -0.01617309       3.53929245       34      -0.04010756      -0.00752527       0.06184715
O        0.94749347      -2.23391857       7.33608179       35      -0.06741461      -0.03048956      -0.00399647
O       -0.71909804       2.07241861       3.48905058       36       0.00627430       0.07372230      -0.00399647
O       -0.94749348      -0.80693897       5.58044186       37       0.06741461      -0.01178374      -0.02840297
O       -0.44495820       5.41394696       1.78365253       38      -0.03358135      -0.05441329       0.03744065
O        4.17062593       5.27811514       5.63068373       39       0.04010756       0.04979857       0.03744065
40
Lattice="9.423263473281024 7.385709936638733e-10 8.634156082824341e-15 -3.141087825123339 8.884338003573154 -1.279265518674245e-09 -3.141087824078853 -4.442169001047989 7.6940624077547115" Properties=species:S:1:pos:R:3:spacegroup_kinds:I:1:forces:R:3 spacegroup="P 1" unit_cell=conventional occupancy="_JSON {\"0\": {\"In\": 1}, \"1\": {\"In\": 1}, \"2\": {\"In\": 1}, \"3\": {\"In\": 1}, \"4\": {\"In\": 1}, \"5\": {\"In\": 1}, \"6\": {\"In\": 1}, \"7\": {\"In\": 1}, \"8\": {\"In\": 1}, \"9\": {\"In\": 1}, \"10\": {\"In\": 1}, \"11\": {\"In\": 1}, \"12\": {\"In\": 1}, \"13\": {\"In\": 1}, \"14\": {\"In\": 1}, \"15\": {\"In\": 1}, \"16\": {\"O\": 1}, \"17\": {\"O\": 1}, \"18\": {\"O\": 1}, \"19\": {\"O\": 1}, \"20\": {\"O\": 1}, \"21\": {\"O\": 1}, \"22\": {\"O\": 1}, \"23\": {\"O\": 1}, \"24\": {\"O\": 1}, \"25\": {\"O\": 1}, \"26\": {\"O\": 1}, \"27\": {\"O\": 1}, \"28\": {\"O\": 1}, \"29\": {\"O\": 1}, \"30\": {\"O\": 1}, \"31\": {\"O\": 1}, \"32\": {\"O\": 1}, \"33\": {\"O\": 1}, \"34\": {\"O\": 1}, \"35\": {\"O\": 1}, \"36\": {\"O\": 1}, \"37\": {\"O\": 1}, \"38\": {\"O\": 1}, \"39\": {\"O\": 1}}" n_minim_iter=2 energy=-45145.345595725 stress="0.11551545644492187 4.623615718600709e-13 -3.290242471907693e-13 4.623615718600709e-13 0.11551545644430458 -1.4625354031624803e-13 -3.290242471907693e-13 -1.4625354031624803e-13 0.11551545644471505" free_energy=-45145.345595725 pbc="T T T"
In      -4.46162654       3.15484638       6.07673939        0      -0.00449419       0.00317788      -0.00550424
In       7.60271436       1.28732263       1.61732301        1       0.00449419      -0.00317788       0.00550424
In       1.32053871      -0.93376188       5.46435422        2       0.00449419      -0.00317788       0.00550424
In      -1.57054391      -2.22108450       3.84703120        3       0.00000000       0.00000000       0.00000000
In      -1.32053871       4.26538863       3.54083861        4      -0.00449419       0.00317788       0.00550424
In       4.96163694      -2.97806600       5.77054680        5      -0.00449419      -0.00635575      -0.00000000
In      -1.32053871       1.46410300       5.77054680        6      -0.00449419      -0.00635575       0.00000000
In      -1.82054911       7.42023501       1.92351560        7       0.00449419       0.00635575      -0.00000000
In       4.46162654       0.17678037       4.15322379        8       0.00449419      -0.00317788      -0.00550424
In      -1.57054391       4.44216900      -0.00000000        9       0.00000000      -0.00000000      -0.00000000
In       4.46162653       6.84003388       0.30619258       10       0.00449419      -0.00317788      -0.00550424
In      -1.32053871      -2.39786487       7.38786982       11      -0.00449419       0.00317788       0.00550424
In       4.46162653       2.97806601       1.92351560       12       0.00449419       0.00635575       0.00000000
In       1.82054911       5.37593088       2.22970818       13      -0.00449419       0.00317788      -0.00550424
In       4.71163174       0.00000000      -0.00000000       14       0.00000000      -0.00000000      -0.00000000
In       1.57054391       2.22108450       3.84703120       15       0.00000000       0.00000000       0.00000000
O        1.03503234       4.45937296       4.14629767       16       0.03483869      -0.00883642       0.01930318
O       -2.10605549       3.58219714       5.60601450       17       0.03483869       0.02113525      -0.00199903
O       -0.44955843       2.41087683      -0.05926162       18       0.02320835       0.02935914      -0.01624323
O       -1.03503234      -0.84276791       2.05824977       19      -0.03483869       0.01229883       0.01730415
O        4.07934634       5.25072220       2.11751139       20       0.00831361      -0.02167686       0.03354738
O        2.20282930       3.01262695       1.75898330       21      -0.00831361      -0.03989131      -0.00199903
O        2.20282930       6.68026426       0.35852808       22      -0.00831361       0.01821445       0.03554640
O       -2.42284928       6.28347564       3.78776958       23      -0.01994395      -0.03166742      -0.01624323
O        3.59064625       2.03129217       7.75332402       24      -0.02320835      -0.02935914       0.01624323
O        5.56393711      -1.84130664       3.90629282       25       0.01994395       0.03166742       0.01624323
O        6.73173407       3.37520085       1.72951981       26      -0.02320835       0.00061252      -0.03354738
O        3.85932636       2.35965137       4.20555929       27      -0.01994395       0.00176666       0.03554640
O        0.71823854       4.68338000       7.39479594       28      -0.01994395       0.02990076      -0.01930318
O        2.42284928      -0.24121100       0.29926647       29       0.01994395      -0.02990076       0.01930318
O       -3.59064625       1.06696815       5.96454259       30       0.02320835      -0.00061252       0.03354738
O        5.24714331       0.85997187       2.08804790       31      -0.03483869      -0.02113525       0.00199903
O        0.93825852       1.42954206       5.93507910       32       0.00831361       0.03989131       0.00199903
O        3.59064625      -0.96432402       5.90528097       33      -0.02320835       0.02874662       0.01730415
O        2.10605549      -0.01720395       3.54776473       34      -0.03483869       0.00883642      -0.01930318
O        0.93825852      -2.23809525       7.33553432       35       0.00831361      -0.01821445      -0.03554640
O       -0.71823854       2.08251764       3.48850311       36       0.01994395      -0.00176666      -0.03554640
O       -0.93825852      -0.80855319       5.57655101       37      -0.00831361       0.02167686      -0.03354738
O       -0.44955843       5.40649302       1.78878143       38       0.02320835      -0.02874662      -0.01730415
O        4.17612016       5.28493691       5.63581263       39       0.03483869      -0.01229883      -0.01730415
40
Lattice="9.423263473281013 7.385709936638726e-10 8.63415608282439e-15 -3.1410878251233365 8.884338003573145 -1.2792655186742433e-09 -3.1410878240788502 -4.442169001047985 7.6940624077547035" Properties=species:S:1:pos:R:3:spacegroup_kinds:I:1:forces:R:3 spacegroup="P 1" unit_cell=conventional occupancy="_JSON {\"0\": {\"In\": 1}, \"1\": {\"In\": 1}, \"2\": {\"In\": 1}, \"3\": {\"In\": 1}, \"4\": {\"In\": 1}, \"5\": {\"In\": 1}, \"6\": {\"In\": 1}, \"7\": {\"In\": 1}, \"8\": {\"In\": 1}, \"9\": {\"In\": 1}, \"10\": {\"In\": 1}, \"11\": {\"In\": 1}, \"12\": {\"In\": 1}, \"13\": {\"In\": 1}, \"14\": {\"In\": 1}, \"15\": {\"In\": 1}, \"16\": {\"O\": 1}, \"17\": {\"O\": 1}, \"18\": {\"O\": 1}, \"19\": {\"O\": 1}, \"20\": {\"O\": 1}, \"21\": {\"O\": 1}, \"22\": {\"O\": 1}, \"23\": {\"O\": 1}, \"24\": {\"O\": 1}, \"25\": {\"O\": 1}, \"26\": {\"O\": 1}, \"27\": {\"O\": 1}, \"28\": {\"O\": 1}, \"29\": {\"O\": 1}, \"30\": {\"O\": 1}, \"31\": {\"O\": 1}, \"32\": {\"O\": 1}, \"33\": {\"O\": 1}, \"34\": {\"O\": 1}, \"35\": {\"O\": 1}, \"36\": {\"O\": 1}, \"37\": {\"O\": 1}, \"38\": {\"O\": 1}, \"39\": {\"O\": 1}}" n_minim_iter=3 energy=-45145.35114438293 stress="0.11529359118492834 -2.1243378691087772e-13 6.785629034241974e-13 -2.1243378691087772e-13 0.11529359118409618 5.749984715405626e-14 6.785629034241974e-13 5.749984715405626e-14 0.11529359118492329" free_energy=-45145.35114438293 pbc="T T T"
In      -4.46227033       3.15530161       6.07595091        0       0.00288889      -0.00204276       0.00353816
In       7.60335815       1.28686740       1.61811149        1      -0.00288889       0.00204276      -0.00353816
In       1.32118250      -0.93421710       5.46514269        2      -0.00288889       0.00204276      -0.00353816
In      -1.57054391      -2.22108450       3.84703120        3      -0.00000000      -0.00000000       0.00000000
In      -1.32118250       4.26584386       3.54162709        4       0.00288889      -0.00204276      -0.00353816
In       4.96099315      -2.97897646       5.77054680        5       0.00288889       0.00408551      -0.00000000
In      -1.32118250       1.46319254       5.77054680        6       0.00288889       0.00408551      -0.00000000
In      -1.81990533       7.42114546       1.92351560        7      -0.00288889      -0.00408551       0.00000000
In       4.46227032       0.17632515       4.15243531        8      -0.00288889       0.00204276       0.00353816
In      -1.57054391       4.44216900      -0.00000000        9      -0.00000000       0.00000000       0.00000000
In       4.46227032       6.83957865       0.30540411       10      -0.00288889       0.00204276       0.00353816
In      -1.32118250      -2.39740964       7.38865829       11       0.00288889      -0.00204276      -0.00353816
In       4.46227032       2.97897646       1.92351560       12      -0.00288889      -0.00408551       0.00000000
In       1.81990532       5.37638611       2.22891971       13       0.00288889      -0.00204276       0.00353816
In       4.71163174       0.00000000      -0.00000000       14       0.00000000       0.00000000      -0.00000000
In       1.57054391       2.22108450       3.84703120       15       0.00000000       0.00000000      -0.00000000
O        1.04514893       4.45705596       4.15072045       16       0.01839023       0.03136510      -0.02510325
O       -2.09593890       3.58718588       5.60580970       17       0.01839023      -0.03742261      -0.01461135
O       -0.44366729       2.41885342      -0.06464153       18       0.00041901      -0.02471503      -0.03662151
O       -1.04514893      -0.84009617       2.06246775       19      -0.01839023      -0.00605751      -0.03971460
O        4.08067758       5.24494437       2.12710927       20      -0.04141245      -0.01508593      -0.00309309
O        2.20149807       3.00142602       1.75877850       21       0.04141245      -0.00486427      -0.01461135
O        2.20149807       6.68568736       0.36833077       22       0.04141245      -0.01022166       0.01151826
O       -2.42840598       6.27526256       3.78238967       23       0.02344122       0.00784330      -0.03662151
O        3.58475511       2.02331558       7.75870393       24      -0.00041901       0.02471503       0.03662151
O        5.56949380      -1.83309356       3.91167273       25      -0.02344122      -0.00784330       0.03662151
O        6.72584294       3.37453001       1.71992193       26      -0.00041901      -0.04407268       0.00309309
O        3.85376967       2.35909877       4.21536198       27       0.02344122      -0.03563681       0.01151826
O        0.71268185       4.69214568       7.39037316       28       0.02344122       0.02779351       0.02510325
O        2.42840597      -0.24997667       0.30368924       29      -0.02344122      -0.02779351      -0.02510325
O       -3.58475512       1.06763900       5.97414048       30       0.00041901       0.04407268      -0.00309309
O        5.23702672       0.85498313       2.08825270       31      -0.01839023       0.03742261       0.01461135
O        0.93958975       1.44074299       5.93528390       32      -0.04141245       0.00486427       0.01461135
O        3.58475511      -0.95567658       5.90949895       33      -0.00041901       0.01935765      -0.03971460
O        2.09593890      -0.01488695       3.54334195       34      -0.01839023      -0.03136510       0.02510325
O        0.93958975      -2.24351835       7.32573163       35      -0.04141245       0.01022166      -0.01151826
O       -0.71268185       2.08307024       3.47870043       36      -0.02344122       0.03563681      -0.01151826
O       -0.93958976      -0.80277537       5.56695313       37       0.04141245       0.01508593       0.00309309
O       -0.44366729       5.39784559       1.78456345       38       0.00041901      -0.01935765       0.03971460
O        4.18623675       5.28226518       5.63159466       39       0.01839023       0.00605751       0.03971460
40
Lattice="9.423263473281013 7.385709936638726e-10 8.63415608282439e-15 -3.1410878251233365 8.884338003573145 -1.2792655186742433e-09 -3.1410878240788502 -4.442169001047985 7.6940624077547035" Properties=species:S:1:pos:R:3:spacegroup_kinds:I:1:forces:R:3 spacegroup="P 1" unit_cell=conventional occupancy="_JSON {\"0\": {\"In\": 1}, \"1\": {\"In\": 1}, \"2\": {\"In\": 1}, \"3\": {\"In\": 1}, \"4\": {\"In\": 1}, \"5\": {\"In\": 1}, \"6\": {\"In\": 1}, \"7\": {\"In\": 1}, \"8\": {\"In\": 1}, \"9\": {\"In\": 1}, \"10\": {\"In\": 1}, \"11\": {\"In\": 1}, \"12\": {\"In\": 1}, \"13\": {\"In\": 1}, \"14\": {\"In\": 1}, \"15\": {\"In\": 1}, \"16\": {\"O\": 1}, \"17\": {\"O\": 1}, \"18\": {\"O\": 1}, \"19\": {\"O\": 1}, \"20\": {\"O\": 1}, \"21\": {\"O\": 1}, \"22\": {\"O\": 1}, \"23\": {\"O\": 1}, \"24\": {\"O\": 1}, \"25\": {\"O\": 1}, \"26\": {\"O\": 1}, \"27\": {\"O\": 1}, \"28\": {\"O\": 1}, \"29\": {\"O\": 1}, \"30\": {\"O\": 1}, \"31\": {\"O\": 1}, \"32\": {\"O\": 1}, \"33\": {\"O\": 1}, \"34\": {\"O\": 1}, \"35\": {\"O\": 1}, \"36\": {\"O\": 1}, \"37\": {\"O\": 1}, \"38\": {\"O\": 1}, \"39\": {\"O\": 1}}" n_minim_iter=4 energy=-45145.35340788441 stress="0.11445766580205624 3.0054015147471544e-13 -6.916828662106845e-14 3.0054015147471544e-13 0.11445766580256174 1.867573384117691e-13 -6.916828662106845e-14 1.867573384117691e-13 0.11445766580222479" free_energy=-45145.35340788441 pbc="T T T"
In      -4.46072756       3.15421071       6.07784041        0      -0.01039263       0.00734870      -0.01272832
In       7.60181538       1.28795830       1.61622200        1       0.01039263      -0.00734870       0.01272832
In       1.31963973      -0.93312620       5.46325320        2       0.01039263      -0.00734870       0.01272832
In      -1.57054391      -2.22108450       3.84703120        3       0.00000000      -0.00000000       0.00000000
In      -1.31963974       4.26475296       3.53973760        4      -0.01039263       0.00734870       0.01272832
In       4.96253591      -2.97679466       5.77054680        5      -0.01039263      -0.01469740       0.00000000
In      -1.31963974       1.46537434       5.77054680        6      -0.01039263      -0.01469740       0.00000000
In      -1.82144809       7.41896367       1.92351560        7       0.01039263       0.01469740       0.00000000
In       4.46072756       0.17741605       4.15432480        8       0.01039263      -0.00734870      -0.01272832
In      -1.57054391       4.44216900      -0.00000000        9      -0.00000000       0.00000000       0.00000000
In       4.46072756       6.84066955       0.30729360       10       0.01039263      -0.00734870      -0.01272832
In      -1.31963974      -2.39850054       7.38676880       11      -0.01039263       0.00734870       0.01272832
In       4.46072756       2.97679466       1.92351560       12       0.01039263       0.01469740      -0.00000000
In       1.82144809       5.37529521       2.23080920       13      -0.01039263       0.00734870      -0.01272832
In       4.71163174       0.00000000      -0.00000000       14       0.00000000       0.00000000      -0.00000000
In       1.57054391       2.22108450       3.84703120       15      -0.00000000      -0.00000000       0.00000000
O        1.05023053       4.45708062       4.14923530       16       0.01132669       0.03287798      -0.01048053
O       -2.09085730       3.58588738       5.60653091       17       0.01132669      -0.02551539      -0.02323290
O       -0.44317441       2.42079964      -0.06954033       18       0.01071708      -0.02508433      -0.02397952
O       -1.05023053      -0.84137001       2.06170381       19      -0.01132669       0.00736259      -0.03371343
O        4.07775947       5.24338989       2.13124414       20      -0.02783171      -0.02120717      -0.00973391
O        2.20441618       2.99706787       1.75949971       21       0.02783171      -0.00217378      -0.02323290
O        2.20441618       6.68849102       0.37174443       22       0.02783171      -0.01903340       0.01349900
O       -2.43007659       6.27414914       3.77749087       23       0.02722209      -0.00174271      -0.02397952
O        3.58426223       2.02136937       7.76360274       24      -0.01071708       0.02508433       0.02397952
O        5.57116441      -1.83198013       3.91657153       25      -0.02722209       0.00174271       0.02397952
O        6.72535006       3.37126063       1.71578705       26      -0.01071708      -0.03330904       0.00973391
O        3.85209906       2.35541299       4.21877563       27       0.02722209      -0.01989552       0.01349900
O        0.71101124       4.69694488       7.39185830       28       0.02722209       0.02163823       0.01048053
O        2.43007659      -0.25477588       0.30220410       29      -0.02722209      -0.02163823      -0.01048053
O       -3.58426224       1.07090838       5.97827535       30       0.01071708       0.03330904      -0.00973391
O        5.23194512       0.85628163       2.08753149       31      -0.01132669       0.02551539       0.02323290
O        0.93667164       1.44510113       5.93456269       32      -0.02783171       0.00217378       0.02323290
O        3.58426223      -0.95046099       5.90873502       33      -0.01071708       0.00822471      -0.03371343
O        2.09085729      -0.01491161       3.54482710       34      -0.01132669      -0.03287798       0.01048053
O        0.93667164      -2.24632201       7.32231797       35      -0.02783171       0.01903340      -0.01349900
O       -0.71101124       2.08675601       3.47528677       36      -0.02722209       0.01989552      -0.01349900
O       -0.93667165      -0.80122088       5.56281826       37       0.02783171       0.02120717       0.00973391
O       -0.44317441       5.39262999       1.78532739       38       0.01071708      -0.00822471       0.03371343
O        4.19131835       5.28353902       5.63235859       39       0.01132669      -0.00736259       0.03371343
40
Lattice="9.423263473281015 7.385709936638724e-10 8.63415608282439e-15 -3.1410878251233365 8.884338003573141 -1.279265518674243e-09 -3.1410878240788502 -4.442169001047983 7.694062407754703" Properties=species:S:1:pos:R:3:spacegroup_kinds:I:1:forces:R:3 spacegroup="P 1" unit_cell=conventional occupancy="_JSON {\"0\": {\"In\": 1}, \"1\": {\"In\": 1}, \"2\": {\"In\": 1}, \"3\": {\"In\": 1}, \"4\": {\"In\": 1}, \"5\": {\"In\": 1}, \"6\": {\"In\": 1}, \"7\": {\"In\": 1}, \"8\": {\"In\": 1}, \"9\": {\"In\": 1}, \"10\": {\"In\": 1}, \"11\": {\"In\": 1}, \"12\": {\"In\": 1}, \"13\": {\"In\": 1}, \"14\": {\"In\": 1}, \"15\": {\"In\": 1}, \"16\": {\"O\": 1}, \"17\": {\"O\": 1}, \"18\": {\"O\": 1}, \"19\": {\"O\": 1}, \"20\": {\"O\": 1}, \"21\": {\"O\": 1}, \"22\": {\"O\": 1}, \"23\": {\"O\": 1}, \"24\": {\"O\": 1}, \"25\": {\"O\": 1}, \"26\": {\"O\": 1}, \"27\": {\"O\": 1}, \"28\": {\"O\": 1}, \"29\": {\"O\": 1}, \"30\": {\"O\": 1}, \"31\": {\"O\": 1}, \"32\": {\"O\": 1}, \"33\": {\"O\": 1}, \"34\": {\"O\": 1}, \"35\": {\"O\": 1}, \"36\": {\"O\": 1}, \"37\": {\"O\": 1}, \"38\": {\"O\": 1}, \"39\": {\"O\": 1}}" n_minim_iter=5 energy=-45145.354343966224 stress="0.11391966167359328 5.109000566416805e-13 -2.423082408698343e-13 5.109000566416805e-13 0.11391966167344124 -4.1036666777597513e-13 -2.423082408698343e-13 -4.1036666777597513e-13 0.11391966167343436" free_energy=-45145.354343966224 pbc="T T T"
In      -4.46007655       3.15375037       6.07863773        0      -0.01719776       0.01216065      -0.02106287
In       7.60116437       1.28841863       1.61542467        1       0.01719776      -0.01216065       0.02106287
In       1.31898872      -0.93266587       5.46245587        2       0.01719776      -0.01216065       0.02106287
In      -1.57054391      -2.22108450       3.84703120        3       0.00000000      -0.00000000       0.00000000
In      -1.31898872       4.26429262       3.53894027        4      -0.01719776       0.01216065       0.02106287
In       4.96318693      -2.97587399       5.77054680        5      -0.01719776      -0.02432131       0.00000000
In      -1.31898872       1.46629501       5.77054680        6      -0.01719776      -0.02432131      -0.00000000
In      -1.82209910       7.41804299       1.92351560        7       0.01719776       0.02432131      -0.00000000
In       4.46007655       0.17787638       4.15512213        8       0.01719776      -0.01216065      -0.02106287
In      -1.57054391       4.44216900      -0.00000000        9      -0.00000000      -0.00000000      -0.00000000
In       4.46007654       6.84112989       0.30809093       10       0.01719776      -0.01216065      -0.02106287
In      -1.31898872      -2.39896088       7.38597148       11      -0.01719776       0.01216065       0.02106287
In       4.46007654       2.97587399       1.92351560       12       0.01719776       0.02432131      -0.00000000
In       1.82209910       5.37483487       2.23160653       13      -0.01719776       0.01216065      -0.02106287
In       4.71163174       0.00000000      -0.00000000       14       0.00000000       0.00000000      -0.00000000
In       1.57054391       2.22108450       3.84703120       15      -0.00000000      -0.00000000      -0.00000000
O        1.05399025       4.45752690       4.14848084       16       0.00648463       0.02913703      -0.00301671
O       -2.08709757       3.58501085       5.60652165       17       0.00648463      -0.01718107      -0.02372505
O       -0.44232681       2.42198229      -0.07311620       18       0.01343374      -0.02209483      -0.01521417
O       -1.05399025      -0.84180025       2.06094009       19      -0.00648463       0.01195597      -0.02674177
O        4.07567983       5.24175560       2.13405628       20      -0.01836001      -0.02073987      -0.01152760
O        2.20649581       2.99381535       1.75949045       21       0.01836001      -0.00038674      -0.02372505
O        2.20649581       6.69010926       0.37456583       22       0.01836001      -0.02035313       0.01219746
O       -2.43090907       6.27295579       3.77391501       23       0.02530912      -0.00530050      -0.01521417
O        3.58341463       2.02018672       7.76717860       24      -0.01343374       0.02209483       0.01521417
O        5.57199689      -1.83078678       3.92014739       25      -0.02530912       0.00530050       0.01521417
O        6.72450245       3.36875517       1.71297492       26      -0.01343374      -0.02422327       0.01152760
O        3.85126658       2.35291288       4.22159704       27       0.02530912      -0.01052560       0.01219746
O        0.71017876       4.70063834       7.39261276       28       0.02530912       0.01582611       0.00301671
O        2.43090906      -0.25846934       0.30144964       29      -0.02530912      -0.01582611      -0.00301671
O       -3.58341463       1.07341384       5.98108748       30       0.01343374       0.02422327      -0.01152760
O        5.22818539       0.85715815       2.08754075       31      -0.00648463       0.01718107       0.02372505
O        0.93459201       1.44835366       5.93457196       32      -0.01836001       0.00038674       0.02372505
O        3.58341463      -0.94677287       5.90797129       33      -0.01343374       0.00212844      -0.02674177
O        2.08709757      -0.01535790       3.54558156       34      -0.00648463      -0.02913703       0.00301671
O        0.93459201      -2.24794025       7.31949657       35      -0.01836001       0.02035313      -0.01219746
O       -0.71017876       2.08925612       3.47246537       36      -0.02530912       0.01052560      -0.01219746
O       -0.93459201      -0.79958660       5.56000612       37       0.01836001       0.02073987       0.01152760
O       -0.44232681       5.38894188       1.78609111       38       0.01343374      -0.00212844       0.02674177
O        4.19507807       5.28396926       5.63312231       39       0.00648463      -0.01195597       0.02674177
40