40
Lattice="8.31685062905913 6.518513621886412e-10 -5.28631509528587e-15 -2.772283543634282 7.841201970347139 -1.1290427561092693e-09 -2.77228354271242 -3.920600984521714 6.79068010327791" Properties=species:S:1:pos:R:3:spacegroup_kinds:I:1:forces:R:3 spacegroup="P 1" unit_cell=conventional occupancy="_JSON {\"0\": {\"In\": 1}, \"1\": {\"In\": 1}, \"2\": {\"In\": 1}, \"3\": {\"In\": 1}, \"4\": {\"In\": 1}, \"5\": {\"In\": 1}, \"6\": {\"In\": 1}, \"7\": {\"In\": 1}, \"8\": {\"In\": 1}, \"9\": {\"In\": 1}, \"10\": {\"In\": 1}, \"11\": {\"In\": 1}, \"12\": {\"In\": 1}, \"13\": {\"In\": 1}, \"14\": {\"In\": 1}, \"15\": {\"In\": 1}, \"16\": {\"O\": 1}, \"17\": {\"O\": 1}, \"18\": {\"O\": 1}, \"19\": {\"O\": 1}, \"20\": {\"O\": 1}, \"21\": {\"O\": 1}, \"22\": {\"O\": 1}, \"23\": {\"O\": 1}, \"24\": {\"O\": 1}, \"25\": {\"O\": 1}, \"26\": {\"O\": 1}, \"27\": {\"O\": 1}, \"28\": {\"O\": 1}, \"29\": {\"O\": 1}, \"30\": {\"O\": 1}, \"31\": {\"O\": 1}, \"32\": {\"O\": 1}, \"33\": {\"O\": 1}, \"34\": {\"O\": 1}, \"35\": {\"O\": 1}, \"36\": {\"O\": 1}, \"37\": {\"O\": 1}, \"38\": {\"O\": 1}, \"39\": {\"O\": 1}}" n_minim_iter=5 energy=-45144.50274382801 stress="-0.1924242353929802 -2.9484248621689667e-13 -5.253375178020831e-13 -2.9484248621689667e-13 -0.19242423539287853 1.0140088157730567e-13 -5.253375178020831e-13 1.0140088157730567e-13 -0.19242423539329317" free_energy=-45144.50274382801 pbc="T T T"
In      -3.95345270       2.79551322       5.34404923        0      -0.00039771       0.00028122      -0.00048709
In       6.72573624       1.12508777       1.44663087        1       0.00039771      -0.00028122       0.00048709
In       1.18116916      -0.83521272       4.84197092        2       0.00039771      -0.00028122       0.00048709
In      -1.38614177      -1.96030049       3.39534005        3       0.00000000       0.00000000       0.00000000
In      -1.18116916       3.77566346       3.14430089        4      -0.00039771       0.00028122       0.00048709
In       4.36339793      -2.65057569       5.09301008        5      -0.00039771      -0.00056245      -0.00000000
In      -1.18116916       1.27002530       5.09301007        6      -0.00039771      -0.00056245      -0.00000000
In      -1.59111439       6.57117668       1.69767002        7       0.00039771       0.00056245       0.00000000
In       3.95345270       0.14493753       3.64637921        8       0.00039771      -0.00028122      -0.00048709
In      -1.38614177       3.92060099      -0.00000000        9      -0.00000000       0.00000000      -0.00000000
In       3.95345270       6.02583900       0.25103915       10       0.00039771      -0.00028122      -0.00048709
In      -1.18116916      -2.10523801       6.53964094       11      -0.00039771       0.00028122       0.00048709
In       3.95345270       2.65057569       1.69767002       12       0.00039771       0.00056245       0.00000000
In       1.59111438       4.75581371       1.94870918       13      -0.00039771       0.00028122      -0.00048709
In       4.15842531       0.00000000      -0.00000000       14       0.00000000      -0.00000000       0.00000000
In       1.38614177       1.96030049       3.39534005       15       0.00000000      -0.00000000      -0.00000000
O        0.79047752       3.91065565       3.74796458       16       0.00393741      -0.00062882       0.00170335
O       -1.98180602       3.25080521       4.92531072       17       0.00393741       0.00178955      -0.00030710
O       -0.37737356       2.11630014       0.09965105       18       0.00240682       0.00287184      -0.00218168
O       -0.79047753      -0.67974111       1.88259520       19      -0.00393741       0.00116074       0.00139625
O        3.72549055       4.65787566       1.78294415       20       0.00037474      -0.00242033       0.00357793
O        1.81907653       2.74516339       1.52997067       21      -0.00037474      -0.00430874      -0.00030710
O        1.81907653       5.83331325       0.25297348       22      -0.00037474       0.00188841       0.00388503
O       -2.12105809       5.53125930       3.49499110       23      -0.00190532      -0.00322645      -0.00218168
O        3.14965710       1.80430085       6.69102905       24      -0.00240682      -0.00287184       0.00218168
O        4.89334163      -1.61065831       3.29568900       25       0.00190532       0.00322645       0.00218168
O        5.92194064       3.10475090       1.61239589       26      -0.00240682      -0.00045347      -0.00357793
O        3.42350900       2.22142192       3.64831353       27      -0.00190532      -0.00027617       0.00388503
O        0.65122545       4.00912174       6.43805557       28      -0.00190532       0.00350262      -0.00170335
O        2.12105809      -0.08852075       0.35262453       29       0.00190532      -0.00350262       0.00170335
O       -3.14965710       0.81585009       5.17828420       30       0.00240682       0.00045347       0.00357793
O        4.75408956       0.66979578       1.86536938       31      -0.00393741      -0.00178955       0.00030710
O        0.95320701       1.17543760       5.26070943       32       0.00037474       0.00430874       0.00030710
O        3.14965710      -0.98845076       5.27793525       33      -0.00240682       0.00332531       0.00139625
O        1.98180602       0.00994534       3.04271552       34      -0.00393741       0.00062882      -0.00170335
O        0.95320701      -1.91271226       6.53770662       35       0.00037474      -0.00188841      -0.00388503
O       -0.65122546       1.69917906       3.14236657       36       0.00190532       0.00027617      -0.00388503
O       -0.95320701      -0.73727467       5.00773595       37      -0.00037474       0.00242033      -0.00357793
O       -0.37737356       4.90905175       1.51274484       38       0.00240682      -0.00332531      -0.00139625
O        3.56276107       4.60034210       4.90808490       39       0.00393741      -0.00116074      -0.00139625
