40
Lattice="8.48158339107207 6.647605349055408e-10 -6.98287012640005e-15 -2.8271944643174334 7.996513507813417 -1.1514134935221742e-09 -2.8271944633773107 -3.9982567532419346 6.925183840239443" Properties=species:S:1:pos:R:3:spacegroup_kinds:I:1:forces:R:3 spacegroup="P 1" unit_cell=conventional occupancy="_JSON {\"0\": {\"In\": 1}, \"1\": {\"In\": 1}, \"2\": {\"In\": 1}, \"3\": {\"In\": 1}, \"4\": {\"In\": 1}, \"5\": {\"In\": 1}, \"6\": {\"In\": 1}, \"7\": {\"In\": 1}, \"8\": {\"In\": 1}, \"9\": {\"In\": 1}, \"10\": {\"In\": 1}, \"11\": {\"In\": 1}, \"12\": {\"In\": 1}, \"13\": {\"In\": 1}, \"14\": {\"In\": 1}, \"15\": {\"In\": 1}, \"16\": {\"O\": 1}, \"17\": {\"O\": 1}, \"18\": {\"O\": 1}, \"19\": {\"O\": 1}, \"20\": {\"O\": 1}, \"21\": {\"O\": 1}, \"22\": {\"O\": 1}, \"23\": {\"O\": 1}, \"24\": {\"O\": 1}, \"25\": {\"O\": 1}, \"26\": {\"O\": 1}, \"27\": {\"O\": 1}, \"28\": {\"O\": 1}, \"29\": {\"O\": 1}, \"30\": {\"O\": 1}, \"31\": {\"O\": 1}, \"32\": {\"O\": 1}, \"33\": {\"O\": 1}, \"34\": {\"O\": 1}, \"35\": {\"O\": 1}, \"36\": {\"O\": 1}, \"37\": {\"O\": 1}, \"38\": {\"O\": 1}, \"39\": {\"O\": 1}}" n_minim_iter=1 energy=-45148.488314848095 stress="-0.11600119359385717 -1.7746978302143381e-13 -4.692374547307694e-13 -1.7746978302143381e-13 -0.11600119359369064 8.77980196956542e-13 -4.692374547307694e-13 8.77980196956542e-13 -0.11600119359292055" free_energy=-45148.488314848095 pbc="T T T"
In      -4.04489770       2.86017459       5.43380805        0       0.00082344      -0.00058226       0.00100850
In       6.87209216       1.13808217       1.49137579        1      -0.00082344       0.00058226      -0.00100850
In       1.21770323      -0.86104621       4.95396771        2      -0.00082344       0.00058226      -0.00100850
In      -1.41359723      -1.99912838       3.46259192        3       0.00000000      -0.00000000      -0.00000000
In      -1.21770323       3.85973878       3.22267175        4       0.00082344      -0.00058226      -0.00100850
In       4.43668569      -2.72165661       5.19388788        5       0.00082344       0.00116452      -0.00000000
In      -1.21770323       1.27660014       5.19388788        6       0.00082344       0.00116452      -0.00000000
In      -1.60949123       6.71991337       1.73129596        7      -0.00082344      -0.00116452       0.00000000
In       4.04489769       0.13851798       3.70251209        8      -0.00082344       0.00058226       0.00100850
In      -1.41359723       3.99825676      -0.00000000        9       0.00000000       0.00000000       0.00000000
In       4.04489769       6.13590311       0.23992017       10      -0.00082344       0.00058226       0.00100850
In      -1.21770323      -2.13764635       6.68526367       11       0.00082344      -0.00058226      -0.00100850
In       4.04489769       2.72165662       1.73129596       12      -0.00082344      -0.00116452      -0.00000000
In       1.60949123       4.85930297       1.97121613       13       0.00082344      -0.00058226       0.00100850
In       4.24079169       0.00000000      -0.00000000       14       0.00000000      -0.00000000      -0.00000000
In       1.41359723       1.99912838       3.46259192       15      -0.00000000      -0.00000000       0.00000000
O        0.81129522       3.99151435       3.79719283       16      -0.02971194       0.00185130       0.05172297
O       -2.01589924       3.29183667       5.03242652       17      -0.02971194       0.04386776      -0.02746475
O       -0.40194432       2.15059819       0.08392570       18       0.03320035      -0.00061796       0.04958676
O       -0.81129522      -0.71316250       1.90443551       19       0.02971194       0.04571905       0.02425822
O        3.77553978       4.75987378       1.82050981       20       0.05126290      -0.01709012      -0.02532855
O        1.87884914       2.80245752       1.56983460       21      -0.05126290       0.01339010      -0.02746475
O        1.87884914       5.95567302       0.25067521       22      -0.05126290      -0.03048023       0.00213621
O       -2.16158486       5.65947580       3.54651762       23       0.01164940      -0.03109561       0.04958676
O        3.22913878       1.84765857       6.84125813       24      -0.03320035       0.00061796      -0.04958676
O        4.98877932      -1.66121905       3.37866622       25      -0.01164940       0.03109561      -0.04958676
O        6.05633324       3.14710926       1.64208210       26      -0.03320035       0.04263442       0.02532855
O        3.49280407       2.24076483       3.71326713       27       0.01164940       0.05849120       0.00213621
O        0.66560961       4.09452963       6.59058292       28       0.01164940      -0.02739559      -0.05172297
O        2.16158485      -0.09627287       0.33460091       29      -0.01164940       0.02739559       0.05172297
O       -3.22913878       0.85114749       5.28310173       30       0.03320035      -0.04263442      -0.02532855
O        4.84309370       0.70642009       1.89275732       31       0.02971194      -0.04386776       0.02746475
O        0.94834532       1.19579923       5.35534924       32       0.05126290      -0.01339010       0.02746475
O        3.22913878      -0.99651107       5.36702743       33      -0.03320035      -0.04325237       0.02425822
O        2.01589924       0.00674241       3.12799100       34       0.02971194      -0.00185130      -0.05172297
O        0.94834532      -1.95741626       6.67450863       35       0.05126290       0.03048023      -0.00213621
O       -0.66560961       1.75749192       3.21191670       36      -0.01164940      -0.05849120      -0.00213621
O       -0.94834532      -0.76161703       5.10467402       37      -0.05126290       0.01709012       0.02532855
O       -0.40194432       4.99476783       1.55815640       38       0.03320035       0.04325237      -0.02425822
O        3.63848968       4.71141926       5.02074832       39      -0.02971194      -0.04571905      -0.02425822
40
Lattice="8.481583391072075 6.647605349055412e-10 -6.982870126400053e-15 -2.827194464317435 7.996513507813423 -1.1514134935221748e-09 -2.8271944633773125 -3.9982567532419373 6.925183840239447" Properties=species:S:1:pos:R:3:spacegroup_kinds:I:1:forces:R:3 spacegroup="P 1" unit_cell=conventional occupancy="_JSON {\"0\": {\"In\": 1}, \"1\": {\"In\": 1}, \"2\": {\"In\": 1}, \"3\": {\"In\": 1}, \"4\": {\"In\": 1}, \"5\": {\"In\": 1}, \"6\": {\"In\": 1}, \"7\": {\"In\": 1}, \"8\": {\"In\": 1}, \"9\": {\"In\": 1}, \"10\": {\"In\": 1}, \"11\": {\"In\": 1}, \"12\": {\"In\": 1}, \"13\": {\"In\": 1}, \"14\": {\"In\": 1}, \"15\": {\"In\": 1}, \"16\": {\"O\": 1}, \"17\": {\"O\": 1}, \"18\": {\"O\": 1}, \"19\": {\"O\": 1}, \"20\": {\"O\": 1}, \"21\": {\"O\": 1}, \"22\": {\"O\": 1}, \"23\": {\"O\": 1}, \"24\": {\"O\": 1}, \"25\": {\"O\": 1}, \"26\": {\"O\": 1}, \"27\": {\"O\": 1}, \"28\": {\"O\": 1}, \"29\": {\"O\": 1}, \"30\": {\"O\": 1}, \"31\": {\"O\": 1}, \"32\": {\"O\": 1}, \"33\": {\"O\": 1}, \"34\": {\"O\": 1}, \"35\": {\"O\": 1}, \"36\": {\"O\": 1}, \"37\": {\"O\": 1}, \"38\": {\"O\": 1}, \"39\": {\"O\": 1}}" n_minim_iter=2 energy=-45148.49165933864 stress="-0.1154743852211966 2.7920363800527845e-13 -1.814670003365888e-13 2.7920363800527845e-13 -0.11547438522106135 2.0165849667830172e-13 -1.814670003365888e-13 2.0165849667830172e-13 -0.1154743852209429" free_energy=-45148.49165933864 pbc="T T T"
In      -4.04483888       2.86013300       5.43388008        0       0.02915444      -0.02061530       0.03570675
In       6.87203334       1.13812376       1.49130375        1      -0.02915444       0.02061530      -0.03570675
In       1.21764441      -0.86100462       4.95389567        2      -0.02915444       0.02061530      -0.03570675
In      -1.41359723      -1.99912838       3.46259192        3       0.00000000      -0.00000000      -0.00000000
In      -1.21764442       3.85969719       3.22259971        4       0.02915444      -0.02061530      -0.03570675
In       4.43674451      -2.72157343       5.19388788        5       0.02915444       0.04123060      -0.00000000
In      -1.21764442       1.27668332       5.19388788        6       0.02915444       0.04123060       0.00000000
In      -1.60955005       6.71983019       1.73129596        7      -0.02915444      -0.04123060      -0.00000000
In       4.04483888       0.13855957       3.70258413        8      -0.02915444       0.02061530       0.03570675
In      -1.41359723       3.99825676      -0.00000000        9       0.00000000      -0.00000000      -0.00000000
In       4.04483888       6.13594470       0.23999220       10      -0.02915444       0.02061530       0.03570675
In      -1.21764442      -2.13768794       6.68519163       11       0.02915444      -0.02061530      -0.03570675
In       4.04483888       2.72157344       1.73129596       12      -0.02915444      -0.04123060      -0.00000000
In       1.60955005       4.85926138       1.97128816       13       0.02915444      -0.02061530       0.03570675
In       4.24079169       0.00000000      -0.00000000       14      -0.00000000      -0.00000000      -0.00000000
In       1.41359723       1.99912838       3.46259192       15       0.00000000       0.00000000      -0.00000000
O        0.80917294       3.99164658       3.80088733       16      -0.02752250      -0.02189407      -0.00901545
O       -2.01802153       3.29497008       5.03046475       17      -0.02752250       0.00313942       0.02346855
O       -0.39957286       2.15055405       0.08746761       18      -0.02685622       0.00266829       0.02428458
O       -0.80917294      -0.70989685       1.90616824       19       0.02752250      -0.01875464       0.01445309
O        3.77920142       4.75865306       1.81870063       20       0.01213405       0.03277535      -0.00983148
O        1.87518751       2.80341396       1.56787283       21      -0.01213405       0.02490199       0.02346855
O        1.87518751       5.95349586       0.25082780       22      -0.01213405       0.00787336      -0.03330003
O       -2.16075276       5.65725469       3.55005953       23      -0.01146776       0.02443085       0.02428458
O        3.22676732       1.84770271       6.83771622       24       0.02685622      -0.00266829      -0.02428458
O        4.98794722      -1.65899793       3.37512430       25       0.01146776      -0.02443085      -0.02428458
O        6.05396179       3.15015458       1.64389128       26       0.02685622       0.02236521       0.00983148
O        3.49363617       2.24494278       3.71341972       27      -0.01146776       0.00881563      -0.03330003
O        0.66644171       4.09257280       6.58688842       28      -0.01146776      -0.03324649       0.00901545
O        2.16075275      -0.09431605       0.33829541       29       0.01146776       0.03324649      -0.00901545
O       -3.22676733       0.84810218       5.28129255       30      -0.02685622      -0.02236521      -0.00983148
O        4.84521599       0.70328668       1.89471908       31       0.02752250      -0.00313942      -0.02346855
O        0.95200695       1.19484280       5.35731100       32       0.01213405      -0.02490199      -0.02346855
O        3.22676732      -0.99960053       5.36876016       33       0.02685622      -0.01969692       0.01445309
O        2.01802152       0.00661018       3.12429651       34       0.02752250       0.02189407       0.00901545
O        0.95200695      -1.95523910       6.67435604       35       0.01213405      -0.00787336       0.03330003
O       -0.66644171       1.75331398       3.21176412       36       0.01146776      -0.00881563       0.03330003
O       -0.95200696      -0.76039630       5.10648321       37      -0.01213405      -0.03277535       0.00983148
O       -0.39957286       4.99785728       1.55642367       38      -0.02685622       0.01969692      -0.01445309
O        3.63636740       4.70815361       5.01901559       39      -0.02752250       0.01875464      -0.01445309
40
Lattice="8.481583391072077 6.647605349055416e-10 -6.98287012640006e-15 -2.8271944643174365 7.996513507813426 -1.1514134935221755e-09 -2.827194463377314 -3.998256753241939 6.92518384023945" Properties=species:S:1:pos:R:3:spacegroup_kinds:I:1:forces:R:3 spacegroup="P 1" unit_cell=conventional occupancy="_JSON {\"0\": {\"In\": 1}, \"1\": {\"In\": 1}, \"2\": {\"In\": 1}, \"3\": {\"In\": 1}, \"4\": {\"In\": 1}, \"5\": {\"In\": 1}, \"6\": {\"In\": 1}, \"7\": {\"In\": 1}, \"8\": {\"In\": 1}, \"9\": {\"In\": 1}, \"10\": {\"In\": 1}, \"11\": {\"In\": 1}, \"12\": {\"In\": 1}, \"13\": {\"In\": 1}, \"14\": {\"In\": 1}, \"15\": {\"In\": 1}, \"16\": {\"O\": 1}, \"17\": {\"O\": 1}, \"18\": {\"O\": 1}, \"19\": {\"O\": 1}, \"20\": {\"O\": 1}, \"21\": {\"O\": 1}, \"22\": {\"O\": 1}, \"23\": {\"O\": 1}, \"24\": {\"O\": 1}, \"25\": {\"O\": 1}, \"26\": {\"O\": 1}, \"27\": {\"O\": 1}, \"28\": {\"O\": 1}, \"29\": {\"O\": 1}, \"30\": {\"O\": 1}, \"31\": {\"O\": 1}, \"32\": {\"O\": 1}, \"33\": {\"O\": 1}, \"34\": {\"O\": 1}, \"35\": {\"O\": 1}, \"36\": {\"O\": 1}, \"37\": {\"O\": 1}, \"38\": {\"O\": 1}, \"39\": {\"O\": 1}}" n_minim_iter=3 energy=-45148.49312924136 stress="-0.11511761510611415 3.3809076498883087e-13 3.102393044642185e-13 3.3809076498883087e-13 -0.11511761510627275 3.275335539692407e-13 3.102393044642185e-13 3.275335539692407e-13 -0.11511761510574063" free_energy=-45148.49312924136 pbc="T T T"
In      -4.04360979       2.85926391       5.43538540        0       0.00682728      -0.00482761       0.00836167
In       6.87080425       1.13899285       1.48979843        1      -0.00682728       0.00482761      -0.00836167
In       1.21641533      -0.86013552       4.95239035        2      -0.00682728       0.00482761      -0.00836167
In      -1.41359723      -1.99912838       3.46259192        3      -0.00000000      -0.00000000       0.00000000
In      -1.21641533       3.85882809       3.22109439        4       0.00682728      -0.00482761      -0.00836167
In       4.43797360      -2.71983524       5.19388788        5       0.00682728       0.00965523      -0.00000000
In      -1.21641533       1.27842151       5.19388788        6       0.00682728       0.00965523       0.00000000
In      -1.61077914       6.71809200       1.73129596        7      -0.00682728      -0.00965523      -0.00000000
In       4.04360979       0.13942866       3.70408944        8      -0.00682728       0.00482761       0.00836167
In      -1.41359723       3.99825676      -0.00000000        9      -0.00000000       0.00000000       0.00000000
In       4.04360979       6.13681379       0.24149752       10      -0.00682728       0.00482761       0.00836167
In      -1.21641533      -2.13855704       6.68368631       11       0.00682728      -0.00482761      -0.00836167
In       4.04360979       2.71983524       1.73129596       12      -0.00682728      -0.00965523      -0.00000000
In       1.61077913       4.85839228       1.97279348       13       0.00682728      -0.00482761       0.00836167
In       4.24079169       0.00000000      -0.00000000       14      -0.00000000      -0.00000000       0.00000000
In       1.41359723       1.99912838       3.46259192       15       0.00000000      -0.00000000      -0.00000000
O        0.80661349       3.99084300       3.80302069       16      -0.00316468      -0.00595646      -0.01200342
O       -2.02058098       3.29721941       5.03009399       17      -0.00316468      -0.00741704       0.01116016
O       -0.39906294       2.15063301       0.09085605       18      -0.01366355       0.00000678      -0.00169828
O       -0.80661349      -0.70845110       1.90793085       19       0.00316468      -0.01337350      -0.00084327
O        3.78217526       4.75916363       1.81707479       20      -0.00593796       0.01239299       0.00085502
O        1.87221366       2.80507726       1.56750207       21       0.00593796       0.00545603       0.01116016
O        1.87221366       5.95234313       0.24957272       22       0.00593796       0.00693696      -0.01030514
O       -2.16065723       5.65674761       3.55344797       23      -0.00456091       0.01287985      -0.00169828
O        3.22625741       1.84762374       6.83432779       24       0.01366355      -0.00000678       0.00169828
O        4.98785169      -1.65849085       3.37173587       25       0.00456091      -0.01287985       0.00169828
O        6.05345187       3.15312853       1.64551712       26       0.01366355      -0.00146736      -0.00085502
O        3.49373170       2.24813079       3.71216464       27      -0.00456091      -0.00791068      -0.01030514
O        0.66653723       4.08989187       6.58475507       28      -0.00456091      -0.00496917       0.01200342
O        2.16065723      -0.09163511       0.34042877       29       0.00456091       0.00496917      -0.01200342
O       -3.22625741       0.84512822       5.27966671       30      -0.01366355       0.00146736       0.00085502
O        4.84777544       0.70103735       1.89508984       31       0.00316468       0.00741704      -0.01116016
O        0.95498080       1.19317950       5.35768176       32      -0.00593796      -0.00545603      -0.01116016
O        3.22625741      -1.00249552       5.37052277       33       0.01366355       0.00147415      -0.00084327
O        2.02058097       0.00741376       3.12216315       34       0.00316468       0.00595646       0.01200342
O        0.95498080      -1.95408637       6.67561112       35      -0.00593796      -0.00693696       0.01030514
O       -0.66653723       1.75012597       3.21301920       36       0.00456091       0.00791068       0.01030514
O       -0.95498080      -0.76090687       5.10810904       37       0.00593796      -0.01239299      -0.00085502
O       -0.39906294       5.00075227       1.55466107       38      -0.01366355      -0.00147415       0.00084327
O        3.63380795       4.70670786       5.01725299       39      -0.00316468       0.01337350       0.00084327
40
Lattice="8.481583391072075 6.647605349055417e-10 -6.9828701264000614e-15 -2.827194464317436 7.996513507813427 -1.1514134935221753e-09 -2.8271944633773134 -3.9982567532419395 6.925183840239449" Properties=species:S:1:pos:R:3:spacegroup_kinds:I:1:forces:R:3 spacegroup="P 1" unit_cell=conventional occupancy="_JSON {\"0\": {\"In\": 1}, \"1\": {\"In\": 1}, \"2\": {\"In\": 1}, \"3\": {\"In\": 1}, \"4\": {\"In\": 1}, \"5\": {\"In\": 1}, \"6\": {\"In\": 1}, \"7\": {\"In\": 1}, \"8\": {\"In\": 1}, \"9\": {\"In\": 1}, \"10\": {\"In\": 1}, \"11\": {\"In\": 1}, \"12\": {\"In\": 1}, \"13\": {\"In\": 1}, \"14\": {\"In\": 1}, \"15\": {\"In\": 1}, \"16\": {\"O\": 1}, \"17\": {\"O\": 1}, \"18\": {\"O\": 1}, \"19\": {\"O\": 1}, \"20\": {\"O\": 1}, \"21\": {\"O\": 1}, \"22\": {\"O\": 1}, \"23\": {\"O\": 1}, \"24\": {\"O\": 1}, \"25\": {\"O\": 1}, \"26\": {\"O\": 1}, \"27\": {\"O\": 1}, \"28\": {\"O\": 1}, \"29\": {\"O\": 1}, \"30\": {\"O\": 1}, \"31\": {\"O\": 1}, \"32\": {\"O\": 1}, \"33\": {\"O\": 1}, \"34\": {\"O\": 1}, \"35\": {\"O\": 1}, \"36\": {\"O\": 1}, \"37\": {\"O\": 1}, \"38\": {\"O\": 1}, \"39\": {\"O\": 1}}" n_minim_iter=4 energy=-45148.49321732025 stress="-0.1151753968771699 6.984054956777244e-13 -3.3393529469520117e-13 6.984054956777244e-13 -0.11517539687871511 -1.7978625679148874e-13 -3.3393529469520117e-13 -1.7978625679148874e-13 -0.11517539687850518" free_energy=-45148.49321732025 pbc="T T T"
In      -4.04352224       2.85920200       5.43549263        0       0.00007190      -0.00005084       0.00008806
In       6.87071670       1.13905476       1.48969120        1      -0.00007190       0.00005084      -0.00008806
In       1.21632777      -0.86007361       4.95228312        2      -0.00007190       0.00005084      -0.00008806
In      -1.41359723      -1.99912838       3.46259192        3       0.00000000      -0.00000000       0.00000000
In      -1.21632778       3.85876618       3.22098716        4       0.00007190      -0.00005084      -0.00008806
In       4.43806115      -2.71971142       5.19388788        5       0.00007190       0.00010168      -0.00000000
In      -1.21632778       1.27854533       5.19388788        6       0.00007190       0.00010168       0.00000000
In      -1.61086669       6.71796818       1.73129596        7      -0.00007190      -0.00010168      -0.00000000
In       4.04352224       0.13949057       3.70419667        8      -0.00007190       0.00005084       0.00008806
In      -1.41359723       3.99825676      -0.00000000        9      -0.00000000      -0.00000000       0.00000000
In       4.04352224       6.13687570       0.24160475       10      -0.00007190       0.00005084       0.00008806
In      -1.21632777      -2.13861895       6.68357908       11       0.00007190      -0.00005084      -0.00008806
In       4.04352224       2.71971142       1.73129596       12      -0.00007190      -0.00010168       0.00000000
In       1.61086669       4.85833037       1.97290071       13       0.00007190      -0.00005084       0.00008806
In       4.24079169       0.00000000      -0.00000000       14      -0.00000000      -0.00000000       0.00000000
In       1.41359723       1.99912838       3.46259192       15      -0.00000000      -0.00000000       0.00000000
O        0.80674240       3.99075135       3.80255649       16      -0.00132538      -0.00048030      -0.00183309
O       -2.02045206       3.29686322       5.03040547       17      -0.00132538      -0.00134735       0.00133250
O       -0.39944220       2.15063616       0.09054514       18      -0.00216492      -0.00075371       0.00030428
O       -0.80674241      -0.70889894       1.90777811       19       0.00132538      -0.00182765      -0.00050059
O        3.78179647       4.75943196       1.81723297       20      -0.00082850       0.00200333      -0.00080487
O        1.87259245       2.80507444       1.56781355       21       0.00082850       0.00169870       0.00133250
O        1.87259245       5.95261427       0.24941942       22       0.00082850       0.00030463      -0.00213737
O       -2.16078661       5.65710413       3.55313706       23      -0.00001104       0.00229234       0.00030428
O        3.22663666       1.84762060       6.83463869       24       0.00216492       0.00075371      -0.00030428
O        4.98798107      -1.65884737       3.37204677       25       0.00001104      -0.00229234      -0.00030428
O        6.05383112       3.15286085       1.64535895       26       0.00216492      -0.00011334       0.00080487
O        3.49360232       2.24768328       3.71201134       27      -0.00001104      -0.00088266      -0.00213737
O        0.66640785       4.08998286       6.58521927       28      -0.00001104      -0.00140968       0.00183309
O        2.16078661      -0.09172610       0.33996457       29       0.00001104       0.00140968      -0.00183309
O       -3.22663666       0.84539590       5.27982489       30      -0.00216492       0.00011334      -0.00080487
O        4.84764652       0.70139353       1.89477837       31       0.00132538       0.00134735      -0.00133250
O        0.95460201       1.19318232       5.35737029       32      -0.00082850      -0.00169870      -0.00133250
O        3.22663666      -1.00222469       5.37037003       33       0.00216492      -0.00064036      -0.00050059
O        2.02045206       0.00750541       3.12262735       34       0.00132538       0.00048030       0.00183309
O        0.95460201      -1.95435752       6.67576442       35      -0.00082850      -0.00030463       0.00213737
O       -0.66640786       1.75057348       3.21317250       36       0.00001104       0.00088266       0.00213737
O       -0.95460201      -0.76117520       5.10795087       37       0.00082850      -0.00200333       0.00080487
O       -0.39944220       5.00048145       1.55481380       38      -0.00216492       0.00064036       0.00050059
O        3.63393687       4.70715570       5.01740572       39      -0.00132538       0.00182765       0.00050059
