40
Lattice="9.488253550933555 7.436644719609218e-10 5.386208508718083e-15 -3.1627511843456513 8.945611236395385 -1.2880905802707138e-09 -3.1627511832939565 -4.472805617454006 7.7471265839566446" Properties=species:S:1:pos:R:3:spacegroup_kinds:I:1:forces:R:3 spacegroup="P 1" unit_cell=conventional occupancy="_JSON {\"0\": {\"In\": 1}, \"1\": {\"In\": 1}, \"2\": {\"In\": 1}, \"3\": {\"In\": 1}, \"4\": {\"In\": 1}, \"5\": {\"In\": 1}, \"6\": {\"In\": 1}, \"7\": {\"In\": 1}, \"8\": {\"In\": 1}, \"9\": {\"In\": 1}, \"10\": {\"In\": 1}, \"11\": {\"In\": 1}, \"12\": {\"In\": 1}, \"13\": {\"In\": 1}, \"14\": {\"In\": 1}, \"15\": {\"In\": 1}, \"16\": {\"O\": 1}, \"17\": {\"O\": 1}, \"18\": {\"O\": 1}, \"19\": {\"O\": 1}, \"20\": {\"O\": 1}, \"21\": {\"O\": 1}, \"22\": {\"O\": 1}, \"23\": {\"O\": 1}, \"24\": {\"O\": 1}, \"25\": {\"O\": 1}, \"26\": {\"O\": 1}, \"27\": {\"O\": 1}, \"28\": {\"O\": 1}, \"29\": {\"O\": 1}, \"30\": {\"O\": 1}, \"31\": {\"O\": 1}, \"32\": {\"O\": 1}, \"33\": {\"O\": 1}, \"34\": {\"O\": 1}, \"35\": {\"O\": 1}, \"36\": {\"O\": 1}, \"37\": {\"O\": 1}, \"38\": {\"O\": 1}, \"39\": {\"O\": 1}}" n_minim_iter=1 energy=-45143.74261929768 stress="0.12721678728390046 -1.5978629163379643e-13 -6.786533695759433e-14 -1.5978629163379643e-13 0.12721678728405936 1.0958231546621534e-13 -6.786533695759433e-14 1.0958231546621534e-13 0.1272167872841498" free_energy=-45143.74261929768 pbc="T T T"
In      -4.49375703       3.17756607       6.11698400        0       0.04422609      -0.03127257       0.05416568
In       7.65650821       1.29523956       1.63014257        1      -0.04422609       0.03127257      -0.05416568
In       1.33100584      -0.94116325       5.50370587        2      -0.04422609       0.03127257      -0.05416568
In      -1.58137559      -2.23640281       3.87356329        3      -0.00000000       0.00000000       0.00000000
In      -1.33100584       4.29576747       3.56692422        4       0.04422609      -0.03127257      -0.05416568
In       4.99449653      -3.00052791       5.81034494        5       0.04422609       0.06254514       0.00000000
In      -1.33100584       1.47227771       5.81034493        6       0.04422609       0.06254514      -0.00000000
In      -1.83174535       7.47333353       1.93678164        7      -0.04422609      -0.06254514       0.00000000
In       4.49375702       0.17703815       4.18020236        8      -0.04422609       0.03127257       0.05416568
In      -1.58137559       4.47280562      -0.00000000        9       0.00000000       0.00000000       0.00000000
In       4.49375702       6.88624658       0.30663907       10      -0.04422609       0.03127257       0.05416568
In      -1.33100584      -2.41344096       7.44048751       11       0.04422609      -0.03127257      -0.05416568
In       4.49375702       3.00052792       1.93678164       12      -0.04422609      -0.06254514       0.00000000
In       1.83174534       5.41396888       2.24342071       13       0.04422609      -0.03127257       0.05416568
In       4.74412677       0.00000000      -0.00000000       14      -0.00000000      -0.00000000      -0.00000000
In       1.58137559       2.23640281       3.87356329       15      -0.00000000      -0.00000000      -0.00000000
O        1.06853048       4.49182551       4.17636894       16       0.05782701      -0.00199842      -0.06163342
O       -2.09422070       3.60733166       5.64247040       17       0.05782701      -0.05237690       0.03254739
O       -0.44186773       2.43894166      -0.08094535       18      -0.03198987       0.01113323      -0.07745537
O       -1.06853048      -0.84645407       2.07171276       19      -0.05782701      -0.05437532      -0.02908603
O        4.09909846       5.27252588       2.15265811       20      -0.06865708       0.00965644       0.04836934
O        2.22640390       3.00840914       1.76890711       21       0.06865708      -0.03706086       0.03254739
O        2.22640390       6.73692236       0.38375099       22       0.06865708       0.04671730       0.01582195
O       -2.44674549       6.31282476       3.79261794       23      -0.02115980       0.02644927      -0.07745537
O        3.60461891       2.03386396       7.82807193       24       0.03198987      -0.01113323       0.07745537
O        5.60949667      -1.84001914       3.95450864       25       0.02115980      -0.02644927       0.07745537
O        6.76737009       3.38577291       1.72090518       26       0.03198987      -0.06151170      -0.04836934
O        3.87875687       2.36449392       4.25731429       27      -0.02115980      -0.08030295       0.01582195
O        0.71600569       4.74109818       7.44432093       28      -0.02115980       0.05385368       0.06163342
O        2.44674549      -0.26829256       0.30280565       29       0.02115980      -0.05385368      -0.06163342
O       -3.60461891       1.08703271       6.02622140       30      -0.03198987       0.06151170       0.04836934
O        5.25697188       0.86547397       2.10465618       31      -0.05782701       0.05237690      -0.03254739
O        0.93634728       1.46439648       5.97821947       32      -0.06865708       0.03706086      -0.03254739
O        3.60461891      -0.94683125       5.94527605       33       0.03198987       0.07264493      -0.02908603
O        2.09422070      -0.01901989       3.57075764       34      -0.05782701       0.00199842       0.06163342
O        0.93634728      -2.26411673       7.36337558       35      -0.06865708      -0.04671730      -0.01582195
O       -0.71600569       2.10831171       3.48981229       36       0.02115980       0.08030295      -0.01582195
O       -0.93634728      -0.79972025       5.59446847       37       0.06865708      -0.00965644      -0.04836934
O       -0.44186773       5.41963687       1.80185053       38      -0.03198987      -0.07264493       0.02908603
O        4.23128166       5.31925969       5.67541382       39       0.05782701       0.05437532       0.02908603
40
Lattice="9.488253550933543 7.436644719609208e-10 5.386208508718104e-15 -3.1627511843456477 8.94561123639537 -1.288090580270712e-09 -3.162751183293953 -4.472805617453999 7.747126583956635" Properties=species:S:1:pos:R:3:spacegroup_kinds:I:1:forces:R:3 spacegroup="P 1" unit_cell=conventional occupancy="_JSON {\"0\": {\"In\": 1}, \"1\": {\"In\": 1}, \"2\": {\"In\": 1}, \"3\": {\"In\": 1}, \"4\": {\"In\": 1}, \"5\": {\"In\": 1}, \"6\": {\"In\": 1}, \"7\": {\"In\": 1}, \"8\": {\"In\": 1}, \"9\": {\"In\": 1}, \"10\": {\"In\": 1}, \"11\": {\"In\": 1}, \"12\": {\"In\": 1}, \"13\": {\"In\": 1}, \"14\": {\"In\": 1}, \"15\": {\"In\": 1}, \"16\": {\"O\": 1}, \"17\": {\"O\": 1}, \"18\": {\"O\": 1}, \"19\": {\"O\": 1}, \"20\": {\"O\": 1}, \"21\": {\"O\": 1}, \"22\": {\"O\": 1}, \"23\": {\"O\": 1}, \"24\": {\"O\": 1}, \"25\": {\"O\": 1}, \"26\": {\"O\": 1}, \"27\": {\"O\": 1}, \"28\": {\"O\": 1}, \"29\": {\"O\": 1}, \"30\": {\"O\": 1}, \"31\": {\"O\": 1}, \"32\": {\"O\": 1}, \"33\": {\"O\": 1}, \"34\": {\"O\": 1}, \"35\": {\"O\": 1}, \"36\": {\"O\": 1}, \"37\": {\"O\": 1}, \"38\": {\"O\": 1}, \"39\": {\"O\": 1}}" n_minim_iter=2 energy=-45143.76212659563 stress="0.1241811229315083 3.431664679947544e-13 -3.1795577912604513e-13 3.431664679947544e-13 0.12418112293092019 -3.60815492971005e-13 -3.1795577912604513e-13 -3.60815492971005e-13 0.12418112293147494" free_energy=-45143.76212659563 pbc="T T T"
In      -4.48655128       3.17247084       6.12580920        0      -0.01577300       0.01115320      -0.01931790
In       7.64930246       1.30033479       1.62131738        1       0.01577300      -0.01115320       0.01931790
In       1.32380009      -0.93606802       5.49488067        2       0.01577300      -0.01115320       0.01931790
In      -1.58137559      -2.23640281       3.87356329        3      -0.00000000      -0.00000000      -0.00000000
In      -1.32380010       4.29067224       3.55809902        4      -0.01577300       0.01115320       0.01931790
In       5.00170227      -2.99033745       5.81034494        5      -0.01577300      -0.02230639      -0.00000000
In      -1.32380010       1.48246817       5.81034493        6      -0.01577300      -0.02230639       0.00000000
In      -1.83895109       7.46314307       1.93678164        7       0.01577300       0.02230639      -0.00000000
In       4.48655128       0.18213338       4.18902756        8       0.01577300      -0.01115320      -0.01931790
In      -1.58137559       4.47280562      -0.00000000        9      -0.00000000       0.00000000      -0.00000000
In       4.48655128       6.89134181       0.31546426       10       0.01577300      -0.01115320      -0.01931790
In      -1.32380010      -2.41853619       7.43166231       11      -0.01577300       0.01115320       0.01931790
In       4.48655128       2.99033746       1.93678164       12       0.01577300       0.02230639      -0.00000000
In       1.83895109       5.40887364       2.25224591       13      -0.01577300       0.01115320      -0.01931790
In       4.74412677       0.00000000      -0.00000000       14       0.00000000      -0.00000000       0.00000000
In       1.58137559       2.23640281       3.87356329       15      -0.00000000      -0.00000000      -0.00000000
O        1.07795221       4.49149991       4.16632702       16       0.04648165      -0.01643772       0.03194986
O       -2.08479897       3.59879790       5.64777334       17       0.04648165       0.03588825      -0.00173945
O       -0.44707983       2.44075559      -0.09356513       18       0.03383202       0.04483289      -0.01723202
O       -1.07795222      -0.85531343       2.06697378       19      -0.04648165       0.01945053       0.03021041
O        4.08791219       5.27409920       2.16053891       20       0.01834188      -0.02939944       0.04744243
O        2.23759018       3.00237083       1.77421005       21      -0.01834188      -0.05578607      -0.00173945
O        2.23759018       6.74453399       0.38632886       22      -0.01834188       0.02638663       0.04918188
O       -2.45019305       6.31713413       3.77999816       23      -0.03099151      -0.04684143      -0.01723202
O        3.60983101       2.03205003       7.84069171       24      -0.03383202      -0.04483289       0.01723202
O        5.61294423      -1.84432851       3.96712842       25       0.03099151       0.04684143       0.01723202
O        6.77258219       3.37575083       1.71302438       26      -0.03383202       0.00749307      -0.04744243
O        3.87530932       2.35141018       4.25989215       27      -0.03099151       0.00849735       0.04918188
O        0.71255813       4.74987254       7.45436284       28      -0.03099151       0.03834408      -0.03194986
O        2.45019305      -0.27706692       0.29276373       29       0.03099151      -0.03834408       0.03194986
O       -3.60983101       1.09705479       6.03410220       30       0.03383202      -0.00749307       0.04744243
O        5.24755015       0.87400772       2.09935324       31      -0.04648165      -0.03588825       0.00173945
O        0.92516100       1.47043480       5.97291653       32       0.01834188       0.05578607       0.00173945
O        3.60983101      -0.93499523       5.94053707       33      -0.03383202       0.03733981       0.03021041
O        2.08479897      -0.01869429       3.58079955       34      -0.04648165       0.01643772      -0.03194986
O        0.92516100      -2.27172837       7.36079772       35       0.01834188      -0.02638663      -0.04918188
O       -0.71255814       2.12139544       3.48723443       36       0.03099151      -0.00849735      -0.04918188
O       -0.92516101      -0.80129357       5.58658767       37      -0.01834188       0.02939944      -0.04744243
O       -0.44707983       5.40780086       1.80658950       38       0.03383202      -0.03733981      -0.03021041
O        4.24070340       5.32811905       5.68015280       39       0.04648165      -0.01945053      -0.03021041
40
Lattice="9.48825355093355 7.436644719609213e-10 5.386208508718034e-15 -3.1627511843456504 8.94561123639538 -1.2880905802707134e-09 -3.1627511832939557 -4.472805617454004 7.747126583956642" Properties=species:S:1:pos:R:3:spacegroup_kinds:I:1:forces:R:3 spacegroup="P 1" unit_cell=conventional occupancy="_JSON {\"0\": {\"In\": 1}, \"1\": {\"In\": 1}, \"2\": {\"In\": 1}, \"3\": {\"In\": 1}, \"4\": {\"In\": 1}, \"5\": {\"In\": 1}, \"6\": {\"In\": 1}, \"7\": {\"In\": 1}, \"8\": {\"In\": 1}, \"9\": {\"In\": 1}, \"10\": {\"In\": 1}, \"11\": {\"In\": 1}, \"12\": {\"In\": 1}, \"13\": {\"In\": 1}, \"14\": {\"In\": 1}, \"15\": {\"In\": 1}, \"16\": {\"O\": 1}, \"17\": {\"O\": 1}, \"18\": {\"O\": 1}, \"19\": {\"O\": 1}, \"20\": {\"O\": 1}, \"21\": {\"O\": 1}, \"22\": {\"O\": 1}, \"23\": {\"O\": 1}, \"24\": {\"O\": 1}, \"25\": {\"O\": 1}, \"26\": {\"O\": 1}, \"27\": {\"O\": 1}, \"28\": {\"O\": 1}, \"29\": {\"O\": 1}, \"30\": {\"O\": 1}, \"31\": {\"O\": 1}, \"32\": {\"O\": 1}, \"33\": {\"O\": 1}, \"34\": {\"O\": 1}, \"35\": {\"O\": 1}, \"36\": {\"O\": 1}, \"37\": {\"O\": 1}, \"38\": {\"O\": 1}, \"39\": {\"O\": 1}}" n_minim_iter=3 energy=-45143.771966633576 stress="0.12434564974549839 2.155207011930884e-13 2.12758491945413e-13 2.155207011930884e-13 0.12434564974601485 -2.7979014316262174e-13 2.12758491945413e-13 -2.7979014316262174e-13 0.12434564974596683" free_energy=-45143.771966633576 pbc="T T T"
In      -4.48947933       3.17454128       6.12222310        0       0.00341354      -0.00241374       0.00418071
In       7.65223051       1.29826435       1.62490348        1      -0.00341354       0.00241374      -0.00418071
In       1.32672814      -0.93813846       5.49846677        2      -0.00341354       0.00241374      -0.00418071
In      -1.58137559      -2.23640281       3.87356329        3      -0.00000000      -0.00000000      -0.00000000
In      -1.32672814       4.29274268       3.56168513        4       0.00341354      -0.00241374      -0.00418071
In       4.99877423      -2.99447833       5.81034494        5       0.00341354       0.00482747       0.00000000
In      -1.32672814       1.47832729       5.81034493        6       0.00341354       0.00482747      -0.00000000
In      -1.83602305       7.46728395       1.93678164        7      -0.00341354      -0.00482747       0.00000000
In       4.48947932       0.18006294       4.18544145        8      -0.00341354       0.00241374       0.00418071
In      -1.58137559       4.47280562      -0.00000000        9      -0.00000000      -0.00000000      -0.00000000
In       4.48947932       6.88927137       0.31187816       10      -0.00341354       0.00241374       0.00418071
In      -1.32672814      -2.41646575       7.43524842       11       0.00341354      -0.00241374      -0.00418071
In       4.48947932       2.99447834       1.93678164       12      -0.00341354      -0.00482747      -0.00000000
In       1.83602304       5.41094408       2.24865980       13       0.00341354      -0.00241374       0.00418071
In       4.74412677       0.00000000      -0.00000000       14      -0.00000000       0.00000000      -0.00000000
In       1.58137559       2.23640281       3.87356329       15       0.00000000      -0.00000000       0.00000000
O        1.08927992       4.48775867       4.17265903       16       0.03002977       0.05062056      -0.03687309
O       -2.07347126       3.60615220       5.64784735       17       0.03002977      -0.05724331      -0.02540214
O       -0.43989751       2.45104112      -0.09856816       18       0.00376593      -0.03867197      -0.05756864
O       -1.08927993      -0.85170037       2.07337979       19      -0.03002977      -0.00662275      -0.06227523
O        4.09106998       5.26759764       2.17194795       20      -0.06397943      -0.02661452      -0.00470659
O        2.23443238       2.98923953       1.77428405       21       0.06397943      -0.00923123      -0.02540214
O        2.23443238       6.75116373       0.39766389       22       0.06397943      -0.01738329       0.02069555
O       -2.45749623       6.30693407       3.77499513       23       0.03771560       0.00934010      -0.05756864
O        3.60264869       2.02176450       7.84569474       24      -0.00376593       0.03867197       0.05756864
O        5.62024741      -1.83412844       3.97213145       25      -0.03771560      -0.00934010       0.05756864
O        6.76539987       3.37656084       1.70161534       26      -0.00376593      -0.06919189       0.00470659
O        3.86800614       2.35217747       4.27122718       27       0.03771560      -0.05452596       0.02069555
O        0.70525495       4.75930533       7.44803084       28       0.03771560       0.04518585       0.03687309
O        2.45749623      -0.28649971       0.29909574       29      -0.03771560      -0.04518585      -0.03687309
O       -3.60264869       1.09624478       6.04551124       30       0.00376593       0.06919189      -0.00470659
O        5.23622244       0.86665342       2.09927923       31      -0.03002977       0.05724331       0.02540214
O        0.92831880       1.48356610       5.97284252       32      -0.06397943       0.00923123       0.02540214
O        3.60264869      -0.92551972       5.94694309       33      -0.00376593       0.03051992      -0.06227523
O        2.07347126      -0.01495305       3.57446755       34      -0.03002977      -0.05062056       0.03687309
O        0.92831880      -2.27835811       7.34946269       35      -0.06397943       0.01738329      -0.02069555
O       -0.70525496       2.12062816       3.47589939       36      -0.03771560       0.05452596      -0.02069555
O       -0.92831880      -0.79479202       5.57517863       37       0.06397943       0.02661452       0.00470659
O       -0.43989751       5.39832534       1.80018349       38       0.00376593      -0.03051992       0.06227523
O        4.25203111       5.32450599       5.67374678       39       0.03002977       0.00662275       0.06227523
40
Lattice="9.488253550933548 7.436644719609212e-10 5.38620850871803e-15 -3.16275118434565 8.945611236395377 -1.288090580270713e-09 -3.162751183293955 -4.472805617454003 7.74712658395664" Properties=species:S:1:pos:R:3:spacegroup_kinds:I:1:forces:R:3 spacegroup="P 1" unit_cell=conventional occupancy="_JSON {\"0\": {\"In\": 1}, \"1\": {\"In\": 1}, \"2\": {\"In\": 1}, \"3\": {\"In\": 1}, \"4\": {\"In\": 1}, \"5\": {\"In\": 1}, \"6\": {\"In\": 1}, \"7\": {\"In\": 1}, \"8\": {\"In\": 1}, \"9\": {\"In\": 1}, \"10\": {\"In\": 1}, \"11\": {\"In\": 1}, \"12\": {\"In\": 1}, \"13\": {\"In\": 1}, \"14\": {\"In\": 1}, \"15\": {\"In\": 1}, \"16\": {\"O\": 1}, \"17\": {\"O\": 1}, \"18\": {\"O\": 1}, \"19\": {\"O\": 1}, \"20\": {\"O\": 1}, \"21\": {\"O\": 1}, \"22\": {\"O\": 1}, \"23\": {\"O\": 1}, \"24\": {\"O\": 1}, \"25\": {\"O\": 1}, \"26\": {\"O\": 1}, \"27\": {\"O\": 1}, \"28\": {\"O\": 1}, \"29\": {\"O\": 1}, \"30\": {\"O\": 1}, \"31\": {\"O\": 1}, \"32\": {\"O\": 1}, \"33\": {\"O\": 1}, \"34\": {\"O\": 1}, \"35\": {\"O\": 1}, \"36\": {\"O\": 1}, \"37\": {\"O\": 1}, \"38\": {\"O\": 1}, \"39\": {\"O\": 1}}" n_minim_iter=4 energy=-45143.77589831875 stress="0.12348973451487555 1.1259303490560367e-13 -5.335939079799981e-14 1.1259303490560367e-13 0.12348973451453236 -4.117880357115372e-14 -5.335939079799981e-14 -4.117880357115372e-14 0.12348973451451574" free_energy=-45143.77589831875 pbc="T T T"
In      -4.48769629       3.17328048       6.12440685        0      -0.01479741       0.01046335      -0.01812305
In       7.65044747       1.29952514       1.62271972        1       0.01479741      -0.01046335       0.01812305
In       1.32494511      -0.93687767       5.49628302        2       0.01479741      -0.01046335       0.01812305
In      -1.58137559      -2.23640281       3.87356329        3      -0.00000000      -0.00000000       0.00000000
In      -1.32494511       4.29148189       3.55950137        4      -0.01479741       0.01046335       0.01812305
In       5.00055726      -2.99195674       5.81034494        5      -0.01479741      -0.02092670      -0.00000000
In      -1.32494511       1.48084888       5.81034493        6      -0.01479741      -0.02092670       0.00000000
In      -1.83780608       7.46476237       1.93678164        7       0.01479741       0.02092670      -0.00000000
In       4.48769629       0.18132374       4.18762521        8       0.01479741      -0.01046335      -0.01812305
In      -1.58137559       4.47280562      -0.00000000        9      -0.00000000      -0.00000000       0.00000000
In       4.48769629       6.89053216       0.31406192       10       0.01479741      -0.01046335      -0.01812305
In      -1.32494511      -2.41772654       7.43306466       11      -0.01479741       0.01046335       0.01812305
In       4.48769629       2.99195675       1.93678164       12       0.01479741       0.02092670      -0.00000000
In       1.83780607       5.40968329       2.25084356       13      -0.01479741       0.01046335      -0.01812305
In       4.74412677       0.00000000      -0.00000000       14       0.00000000       0.00000000      -0.00000000
In       1.58137559       2.23640281       3.87356329       15       0.00000000       0.00000000       0.00000000
O        1.09530616       4.48746894       4.17026238       16       0.01493139       0.06088437      -0.01239685
O       -2.06744502       3.60422150       5.64929659       17       0.01493139      -0.04117817      -0.04652899
O       -0.43998220       2.45343150      -0.10460325       18       0.02355631      -0.04727691      -0.03596565
O       -1.09530616      -0.85392080       2.07243238       19      -0.01493139       0.01970620      -0.05892583
O        4.08724096       5.26633371       2.17703563       20      -0.04380028      -0.04047098      -0.02296018
O        2.23826141       2.98420150       1.77573329       21       0.04380028      -0.00035139      -0.04652899
O        2.23826141       6.75493782       0.40130233       22       0.04380028      -0.04011959       0.02356881
O       -2.45977814       6.30621712       3.76896004       23       0.05242520      -0.00645014      -0.03596565
O        3.60273338       2.01937412       7.85172983       24      -0.02355631       0.04727691       0.03596565
O        5.62252932      -1.83341150       3.97816654       25      -0.05242520       0.00645014       0.03596565
O        6.76548456       3.37252949       1.69652766       26      -0.02355631      -0.05478563       0.02296018
O        3.86572423       2.34730940       4.27486562       27       0.05242520      -0.02792210       0.02356881
O        0.70297305       4.76489034       7.45042749       28       0.05242520       0.03437224       0.01239685
O        2.45977813      -0.29208472       0.29669908       29      -0.05242520      -0.03437224      -0.01239685
O       -3.60273338       1.10027613       6.05059892       30       0.02355631       0.05478563      -0.02296018
O        5.23019620       0.86858412       2.09782999       31      -0.01493139       0.04117817       0.04652899
O        0.92448977       1.48860412       5.97139328       32      -0.04380028       0.00035139       0.04652899
O        3.60273338      -0.91909799       5.94599567       33      -0.02355631       0.00750872      -0.05892583
O        2.06744502      -0.01466332       3.57686420       34      -0.01493139      -0.06088437       0.01239685
O        0.92448977      -2.28213220       7.34582425       35      -0.04380028       0.04011959      -0.02356881
O       -0.70297305       2.12549623       3.47226095       36      -0.05242520       0.02792210      -0.02356881
O       -0.92448978      -0.79352808       5.57009095       37       0.04380028       0.04047098       0.02296018
O       -0.43998220       5.39190361       1.80113091       38       0.02355631      -0.00750872       0.05892583
O        4.25805734       5.32672642       5.67469420       39       0.01493139      -0.01970620       0.05892583
40
Lattice="9.488253550933539 7.436644719609206e-10 5.386208508718024e-15 -3.1627511843456477 8.94561123639537 -1.288090580270712e-09 -3.162751183293953 -4.472805617453999 7.747126583956632" Properties=species:S:1:pos:R:3:spacegroup_kinds:I:1:forces:R:3 spacegroup="P 1" unit_cell=conventional occupancy="_JSON {\"0\": {\"In\": 1}, \"1\": {\"In\": 1}, \"2\": {\"In\": 1}, \"3\": {\"In\": 1}, \"4\": {\"In\": 1}, \"5\": {\"In\": 1}, \"6\": {\"In\": 1}, \"7\": {\"In\": 1}, \"8\": {\"In\": 1}, \"9\": {\"In\": 1}, \"10\": {\"In\": 1}, \"11\": {\"In\": 1}, \"12\": {\"In\": 1}, \"13\": {\"In\": 1}, \"14\": {\"In\": 1}, \"15\": {\"In\": 1}, \"16\": {\"O\": 1}, \"17\": {\"O\": 1}, \"18\": {\"O\": 1}, \"19\": {\"O\": 1}, \"20\": {\"O\": 1}, \"21\": {\"O\": 1}, \"22\": {\"O\": 1}, \"23\": {\"O\": 1}, \"24\": {\"O\": 1}, \"25\": {\"O\": 1}, \"26\": {\"O\": 1}, \"27\": {\"O\": 1}, \"28\": {\"O\": 1}, \"29\": {\"O\": 1}, \"30\": {\"O\": 1}, \"31\": {\"O\": 1}, \"32\": {\"O\": 1}, \"33\": {\"O\": 1}, \"34\": {\"O\": 1}, \"35\": {\"O\": 1}, \"36\": {\"O\": 1}, \"37\": {\"O\": 1}, \"38\": {\"O\": 1}, \"39\": {\"O\": 1}}" n_minim_iter=5 energy=-45143.77893072397 stress="0.12247359620595298 -3.3142779625871725e-13 3.3346500999847586e-13 -3.3142779625871725e-13 0.12247359620644598 -1.41245299737168e-13 3.3346500999847586e-13 -1.41245299737168e-13 0.12247359620632782" free_energy=-45143.77893072397 pbc="T T T"
In      -4.48658340       3.17249355       6.12576987        0      -0.03265080       0.02308761      -0.03998890
In       7.64933458       1.30031208       1.62135671        1       0.03265080      -0.02308761       0.03998891
In       1.32383221      -0.93609073       5.49492000        2       0.03265080      -0.02308761       0.03998890
In      -1.58137559      -2.23640281       3.87356329        3       0.00000000      -0.00000000      -0.00000000
In      -1.32383222       4.29069495       3.55813836        4      -0.03265080       0.02308761       0.03998890
In       5.00167015      -2.99038287       5.81034494        5      -0.03265080      -0.04617521       0.00000000
In      -1.32383222       1.48242275       5.81034493        6      -0.03265080      -0.04617521      -0.00000000
In      -1.83891897       7.46318850       1.93678164        7       0.03265080       0.04617521       0.00000000
In       4.48658340       0.18211067       4.18898822        8       0.03265080      -0.02308761      -0.03998890
In      -1.58137559       4.47280562      -0.00000000        9      -0.00000000      -0.00000000      -0.00000000
In       4.48658339       6.89131910       0.31542493       10       0.03265080      -0.02308761      -0.03998890
In      -1.32383221      -2.41851348       7.43170165       11      -0.03265080       0.02308761       0.03998890
In       4.48658340       2.99038288       1.93678164       12       0.03265080       0.04617521      -0.00000000
In       1.83891897       5.40889636       2.25220657       13      -0.03265080       0.02308761      -0.03998890
In       4.74412677       0.00000000      -0.00000000       14      -0.00000000       0.00000000       0.00000000
In       1.58137559       2.23640281       3.87356329       15       0.00000000      -0.00000000      -0.00000000
O        1.10091990       4.49006685       4.16725215       16       0.00584317       0.03065205       0.02062894
O       -2.06183128       3.60031562       5.64855184       17       0.00584317       0.00253916      -0.03685993
O       -0.43934412       2.45304394      -0.11144191       18       0.03324070      -0.01683382      -0.00330495
O       -1.10091990      -0.85522877       2.06867741       19      -0.00584317       0.03319121      -0.01623099
O        4.08168721       5.26369338       2.18011932       20       0.00044622      -0.03509932      -0.01292604
O        2.24381516       2.98021078       1.77498855       21      -0.00044622      -0.00635538      -0.03685993
O        2.24381516       6.75628821       0.40513077       22      -0.00044622      -0.02874394       0.02393389
O       -2.45920005       6.30574472       3.76212138       23       0.02695131      -0.02572836      -0.00330495
O        3.60209530       2.01976168       7.85856849       24      -0.03324070       0.01683382       0.00330495
O        5.62195123      -1.83293910       3.98500520       25      -0.02695131       0.02572836       0.00330495
O        6.76484648       3.36641326       1.69344397       26      -0.03324070      -0.01127908       0.01292604
O        3.86630232       2.34162314       4.27869406       27       0.02695131       0.01000201       0.02393389
O        0.70355114       4.77104900       7.45343771       28       0.02695131       0.01572635      -0.02062894
O        2.45920004      -0.29824338       0.29368886       29      -0.02695131      -0.01572635       0.02062894
O       -3.60209530       1.10639237       6.05368261       30       0.03324070       0.01127908      -0.01292604
O        5.22458246       0.87249000       2.09857474       31      -0.00584317      -0.00253916       0.03685993
O        0.91893602       1.49259484       5.97213803       32       0.00044622       0.00635538       0.03685993
O        3.60209530      -0.91336931       5.94224070       33      -0.03324070      -0.00555474      -0.01623099
O        2.06183128      -0.01726123       3.57987442       34      -0.00584317      -0.03065205      -0.02062894
O        0.91893602      -2.28348259       7.34199581       35       0.00044622       0.02874394      -0.02393389
O       -0.70355114       2.13118248       3.46843251       36      -0.02695131      -0.01000201      -0.02393389
O       -0.91893603      -0.79088775       5.56700726       37      -0.00044622       0.03509932       0.01292604
O       -0.43934412       5.38617494       1.80488587       38       0.03324070       0.00555474       0.01623099
O        4.26367108       5.32803439       5.67844917       39       0.00584317      -0.03319121       0.01623099
40