40
Lattice="9.552365317000616 7.486910928397627e-10 5.574274573441661e-15 -3.184121773039414 9.006056389113525 -1.2967949168498402e-09 -3.1841217719806107 -4.503028193808052 7.799473621751997" Properties=species:S:1:pos:R:3:spacegroup_kinds:I:1:forces:R:3 spacegroup="P 1" unit_cell=conventional occupancy="_JSON {\"0\": {\"In\": 1}, \"1\": {\"In\": 1}, \"2\": {\"In\": 1}, \"3\": {\"In\": 1}, \"4\": {\"In\": 1}, \"5\": {\"In\": 1}, \"6\": {\"In\": 1}, \"7\": {\"In\": 1}, \"8\": {\"In\": 1}, \"9\": {\"In\": 1}, \"10\": {\"In\": 1}, \"11\": {\"In\": 1}, \"12\": {\"In\": 1}, \"13\": {\"In\": 1}, \"14\": {\"In\": 1}, \"15\": {\"In\": 1}, \"16\": {\"O\": 1}, \"17\": {\"O\": 1}, \"18\": {\"O\": 1}, \"19\": {\"O\": 1}, \"20\": {\"O\": 1}, \"21\": {\"O\": 1}, \"22\": {\"O\": 1}, \"23\": {\"O\": 1}, \"24\": {\"O\": 1}, \"25\": {\"O\": 1}, \"26\": {\"O\": 1}, \"27\": {\"O\": 1}, \"28\": {\"O\": 1}, \"29\": {\"O\": 1}, \"30\": {\"O\": 1}, \"31\": {\"O\": 1}, \"32\": {\"O\": 1}, \"33\": {\"O\": 1}, \"34\": {\"O\": 1}, \"35\": {\"O\": 1}, \"36\": {\"O\": 1}, \"37\": {\"O\": 1}, \"38\": {\"O\": 1}, \"39\": {\"O\": 1}}" n_minim_iter=9 energy=-45142.079966257515 stress="0.13042749337208695 -1.943601742346367e-13 3.633753125638609e-14 -1.943601742346367e-13 0.13042749337203305 -2.705773940182433e-13 3.633753125638609e-14 -2.705773940182433e-13 0.13042749337191104" free_energy=-45142.079966257515 pbc="T T T"
In      -4.52509569       3.19972585       6.15712269        0      -0.00006144       0.00004344      -0.00007524
In       7.70921746       1.30330235       1.64235093        1       0.00006144      -0.00004344       0.00007524
In       1.34097392      -0.94821175       5.54208774        2       0.00006144      -0.00004344       0.00007524
In      -1.59206089      -2.25151410       3.89973681        3      -0.00000000       0.00000000       0.00000000
In      -1.34097392       4.32548290       3.59221933        4      -0.00006144       0.00004344       0.00007524
In       5.02726962      -3.02218055       5.84960521        5      -0.00006144      -0.00008688       0.00000000
In      -1.34097392       1.48084764       5.84960521        6      -0.00006144      -0.00008688       0.00000000
In      -1.84314785       7.52520875       1.94986840        7       0.00006144       0.00008688      -0.00000000
In       4.52509569       0.17754530       4.20725428        8       0.00006144      -0.00004344      -0.00007524
In      -1.59206089       4.50302820      -0.00000000        9      -0.00000000      -0.00000000       0.00000000
In       4.52509569       6.93208759       0.30751747       10       0.00006144      -0.00004344      -0.00007524
In      -1.34097392      -2.42905939       7.49195614       11      -0.00006144       0.00004344       0.00007524
In       4.52509569       3.02218056       1.94986840       12       0.00006144       0.00008688       0.00000000
In       1.84314785       5.45123995       2.25738588       13      -0.00006144       0.00004344      -0.00007524
In       4.77618266       0.00000000      -0.00000000       14      -0.00000000       0.00000000      -0.00000000
In       1.59206088       2.25151410       3.89973681       15      -0.00000000      -0.00000000       0.00000000
O        1.16334475       4.53278503       4.19160210       16       0.00011979       0.00029170      -0.00016114
O       -2.02077703       3.61515548       5.67790239       17       0.00011979      -0.00028540      -0.00017205
O       -0.42125783       2.48412461      -0.16256829       18       0.00004587      -0.00023313      -0.00026259
O       -1.16334475      -0.85811587       2.07003087       19      -0.00011979       0.00000630      -0.00033319
O        4.08199361       5.26728523       2.23259916       20      -0.00030901      -0.00015790      -0.00007060
O        2.28624993       2.95166912       1.77816558       21       0.00030901      -0.00001781      -0.00017205
O        2.28624993       6.81864430       0.45443357       22       0.00030901      -0.00014009       0.00010145
O       -2.48247442       6.32366644       3.73716852       23       0.00023508       0.00003446      -0.00026259
O        3.60537960       2.01890359       7.96204191       24      -0.00004587       0.00023313       0.00026259
O        5.66659619      -1.82063824       4.06230510       25      -0.00023508      -0.00003446       0.00026259
O        6.78950137       3.35278814       1.66713765       26      -0.00004587      -0.00034397       0.00007060
O        3.88576913       2.32616376       4.35417038       27       0.00023508      -0.00024464       0.00010145
O        0.70164735       4.85925439       7.50760833       28       0.00023508       0.00021018       0.00016114
O        2.48247442      -0.35622619       0.29186529       29      -0.00023508      -0.00021018      -0.00016114
O       -3.60537960       1.15024006       6.13233597       30       0.00004587       0.00034397      -0.00007060
O        5.20489880       0.88787272       2.12157122       31      -0.00011979       0.00028540       0.00017205
O        0.89787184       1.55135908       6.02130803       32      -0.00030901       0.00001781       0.00017205
O        3.60537960      -0.86866352       5.96976768       33      -0.00004587       0.00011084      -0.00033319
O        2.02077702      -0.02975683       3.60787152       34      -0.00011979      -0.00029170       0.00016114
O        0.89787184      -2.31561610       7.34504004       35      -0.00030901       0.00014009      -0.00010145
O       -0.70164736       2.17686444       3.44530323       36      -0.00023508       0.00024464      -0.00010145
O       -0.89787185      -0.76425703       5.56687446       37       0.00030901       0.00015790       0.00007060
O       -0.42125783       5.37169172       1.82970593       38       0.00004587      -0.00011084       0.00033319
O        4.34746652       5.36114407       5.72944274       39       0.00011979      -0.00000630       0.00033319
