40
Lattice="9.013027270759611 7.064134602064204e-10 -7.651887201943643e-15 -3.004342424252553 8.497563602662396 -1.2235473069872332e-09 -3.004342423253527 -4.24878180062478 7.3591059509953585" Properties=species:S:1:pos:R:3:spacegroup_kinds:I:1:forces:R:3 spacegroup="P 1" unit_cell=conventional occupancy="_JSON {\"0\": {\"In\": 1}, \"1\": {\"In\": 1}, \"2\": {\"In\": 1}, \"3\": {\"In\": 1}, \"4\": {\"In\": 1}, \"5\": {\"In\": 1}, \"6\": {\"In\": 1}, \"7\": {\"In\": 1}, \"8\": {\"In\": 1}, \"9\": {\"In\": 1}, \"10\": {\"In\": 1}, \"11\": {\"In\": 1}, \"12\": {\"In\": 1}, \"13\": {\"In\": 1}, \"14\": {\"In\": 1}, \"15\": {\"In\": 1}, \"16\": {\"O\": 1}, \"17\": {\"O\": 1}, \"18\": {\"O\": 1}, \"19\": {\"O\": 1}, \"20\": {\"O\": 1}, \"21\": {\"O\": 1}, \"22\": {\"O\": 1}, \"23\": {\"O\": 1}, \"24\": {\"O\": 1}, \"25\": {\"O\": 1}, \"26\": {\"O\": 1}, \"27\": {\"O\": 1}, \"28\": {\"O\": 1}, \"29\": {\"O\": 1}, \"30\": {\"O\": 1}, \"31\": {\"O\": 1}, \"32\": {\"O\": 1}, \"33\": {\"O\": 1}, \"34\": {\"O\": 1}, \"35\": {\"O\": 1}, \"36\": {\"O\": 1}, \"37\": {\"O\": 1}, \"38\": {\"O\": 1}, \"39\": {\"O\": 1}}" n_minim_iter=6 energy=-45151.51149935752 stress="0.03358669998362997 -6.986636564364951e-13 -1.6924805425139146e-13 -6.986636564364951e-13 0.033586699984195015 -4.737342503431757e-13 -1.6924805425139146e-13 -4.737342503431757e-13 0.03358669998426353" free_energy=-45151.51149935752 pbc="T T T"
In      -4.29972934       3.04036777       5.77258747        0       0.00295526      -0.00208969       0.00361945
In       7.30407176       1.20841403       1.58651847        1      -0.00295526       0.00208969      -0.00361945
In       1.29538691      -0.91597687       5.26607145        2      -0.00295526       0.00208969      -0.00361945
In      -1.50217121      -2.12439090       3.67955297        3       0.00000000       0.00000000       0.00000000
In      -1.29538691       4.10256322       3.42629496        4       0.00295526      -0.00208969      -0.00361945
In       4.71329793      -2.89414919       5.51932946        5       0.00295526       0.00417938       0.00000000
In      -1.29538691       1.35463261       5.51932946        6       0.00295526       0.00417938       0.00000000
In      -1.70895551       7.14293099       1.83977648        7      -0.00295526      -0.00417938       0.00000000
In       4.29972933       0.14621858       3.93281098        8      -0.00295526       0.00208969       0.00361945
In      -1.50217121       4.24878180      -0.00000000        9      -0.00000000      -0.00000000      -0.00000000
In       4.29972933       6.51939128       0.25325801       10      -0.00295526       0.00208969       0.00361945
In      -1.29538691      -2.27060948       7.10584794       11       0.00295526      -0.00208969      -0.00361945
In       4.29972933       2.89414919       1.83977648       12      -0.00295526      -0.00417938      -0.00000000
In       1.70895551       5.16475867       2.09303450       13       0.00295526      -0.00208969       0.00361945
In       4.50651363       0.00000000      -0.00000000       14      -0.00000000      -0.00000000      -0.00000000
In       1.50217121       2.12439090       3.67955297       15       0.00000000       0.00000000       0.00000000
O        0.89884826       4.25271561       3.99685745       16       0.00024408      -0.00518785       0.00710987
O       -2.10549416       3.45941319       5.35727045       17       0.00024408       0.00875125       0.00093788
O       -0.44089895       2.28236663       0.03686894       18       0.00344096       0.00649071       0.00485325
O       -0.89884827      -0.78543481       1.99502195       19      -0.00024408       0.00356340       0.00804774
O        3.96339742       5.05550291       1.95815301       20       0.00816940      -0.00076138       0.00319449
O        2.04528743       2.95633210       1.67771747       21      -0.00816940      -0.00314720       0.00093788
O        2.04528743       6.34795261       0.28043553       22      -0.00816940       0.00238582       0.00225662
O       -2.29880221       6.02806735       3.71642191       23      -0.00497251      -0.00540774       0.00485325
O        3.44524137       1.96641518       7.32223700       24      -0.00344096      -0.00649071      -0.00485325
O        5.30314463      -1.77928554       3.64268403       25       0.00497251       0.00540774      -0.00485325
O        6.44958380       3.29750366       1.72139996       26      -0.00344096       0.00744839      -0.00319449
O        3.70988263       2.32887302       3.95998851       27      -0.00497251       0.00690691       0.00225662
O        0.70554021       4.38940504       7.04180147       28      -0.00497251      -0.00149917      -0.00710987
O        2.29880221      -0.14062324       0.31730448       29       0.00497251       0.00149917       0.00710987
O       -3.44524138       0.95127815       5.63770598       30       0.00344096      -0.00744839       0.00319449
O        5.10983658       0.78936862       2.00183550       31      -0.00024408      -0.00875125      -0.00093788
O        0.95905499       1.29244970       5.68138847       32       0.00816940       0.00314720      -0.00093788
O        3.44524137      -1.01513702       5.67457493       33      -0.00344096      -0.00095768       0.00804774
O        2.10549416      -0.00393380       3.36224849       34      -0.00024408       0.00518785      -0.00710987
O        0.95905499      -2.09917080       7.07867041       35       0.00816940      -0.00238582      -0.00225662
O       -0.70554021       1.91990878       3.39911744       36       0.00497251      -0.00690691      -0.00225662
O       -0.95905500      -0.80672110       5.40095294       37      -0.00816940       0.00076138      -0.00319449
O       -0.44089895       5.26391883       1.68453102       38       0.00344096       0.00095768      -0.00804774
O        3.90319069       5.03421661       5.36408399       39       0.00024408      -0.00356340      -0.00804774
