40
Lattice="8.79310901191245 6.891771252424799e-10 -1.2168568155693331e-14 -2.931036337953914 8.290222679818056 -1.1936907457246155e-09 -2.9310363369792594 -4.145111339219844 7.179543444548143" Properties=species:S:1:pos:R:3:spacegroup_kinds:I:1:forces:R:3 spacegroup="P 1" unit_cell=conventional occupancy="_JSON {\"0\": {\"In\": 1}, \"1\": {\"In\": 1}, \"2\": {\"In\": 1}, \"3\": {\"In\": 1}, \"4\": {\"In\": 1}, \"5\": {\"In\": 1}, \"6\": {\"In\": 1}, \"7\": {\"In\": 1}, \"8\": {\"In\": 1}, \"9\": {\"In\": 1}, \"10\": {\"In\": 1}, \"11\": {\"In\": 1}, \"12\": {\"In\": 1}, \"13\": {\"In\": 1}, \"14\": {\"In\": 1}, \"15\": {\"In\": 1}, \"16\": {\"O\": 1}, \"17\": {\"O\": 1}, \"18\": {\"O\": 1}, \"19\": {\"O\": 1}, \"20\": {\"O\": 1}, \"21\": {\"O\": 1}, \"22\": {\"O\": 1}, \"23\": {\"O\": 1}, \"24\": {\"O\": 1}, \"25\": {\"O\": 1}, \"26\": {\"O\": 1}, \"27\": {\"O\": 1}, \"28\": {\"O\": 1}, \"29\": {\"O\": 1}, \"30\": {\"O\": 1}, \"31\": {\"O\": 1}, \"32\": {\"O\": 1}, \"33\": {\"O\": 1}, \"34\": {\"O\": 1}, \"35\": {\"O\": 1}, \"36\": {\"O\": 1}, \"37\": {\"O\": 1}, \"38\": {\"O\": 1}, \"39\": {\"O\": 1}}" n_minim_iter=1 energy=-45151.82981077151 stress="-0.019950444939841435 1.44521871101849e-13 1.828187297542976e-13 1.44521871101849e-13 -0.01995044494019163 -5.469362154825916e-13 1.828187297542976e-13 -5.469362154825916e-13 -0.019950444940451888" free_energy=-45151.82981077151 pbc="T T T"
In      -4.20021499       2.97000050       5.62512340        0      -0.00313432       0.00221630      -0.00383874
In       7.13125132       1.17511084       1.55442004        1       0.00313432      -0.00221630       0.00383874
In       1.26917865      -0.89744483       5.14419176        2       0.00313432      -0.00221630       0.00383874
In      -1.46551817      -2.07255567       3.58977172        3      -0.00000000       0.00000000      -0.00000000
In      -1.26917865       4.00627834       3.34930590        4      -0.00313432       0.00221630       0.00383874
In       4.59289403      -2.83116749       5.38465758        5      -0.00313432      -0.00443259       0.00000000
In      -1.26917865       1.31394385       5.38465758        6      -0.00313432      -0.00443259      -0.00000000
In      -1.66185769       6.97627883       1.79488586        7       0.00313432       0.00443259      -0.00000000
In       4.20021498       0.13883301       3.83023754        8       0.00313432      -0.00221630      -0.00383874
In      -1.46551817       4.14511134      -0.00000000        9      -0.00000000       0.00000000       0.00000000
In       4.20021498       6.35650002       0.24046582       10       0.00313432      -0.00221630      -0.00383874
In      -1.26917865      -2.21138867       6.93907762       11      -0.00313432       0.00221630       0.00383874
In       4.20021498       2.83116749       1.79488586       12       0.00313432       0.00443259      -0.00000000
In       1.66185769       5.04255617       2.03535168       13      -0.00313432       0.00221630      -0.00383874
In       4.39655450       0.00000000      -0.00000000       14       0.00000000      -0.00000000      -0.00000000
In       1.46551817       2.07255567       3.58977172       15       0.00000000      -0.00000000      -0.00000000
O        0.85789991       4.14376794       3.90977788       16      -0.01925239      -0.01283475       0.05923137
O       -2.07313643       3.38663868       5.22581792       17      -0.01925239       0.05771325      -0.01850046
O       -0.43039483       2.22504495       0.05821383       18       0.03589438       0.01871859       0.04904027
O       -0.85789991      -0.75981607       1.95605237       19       0.01925239       0.04487849       0.04073091
O        3.88399904       4.93853719       1.89783853       20       0.06083003      -0.01656508      -0.00830937
O        1.97807363       2.89824788       1.63604620       21      -0.06083003      -0.00108642      -0.01850046
O        1.97807363       6.18540064       0.26179233       22      -0.06083003      -0.01547866       0.01019110
O       -2.24125744       5.88176549       3.64798555       23      -0.00568326      -0.04008108       0.04904027
O        3.36143116       1.92006639       7.12132961       24      -0.03589438      -0.01871859      -0.04904027
O        5.17229377      -1.73665415       3.53155788       25       0.00568326       0.04008108      -0.04904027
O        6.29246750       3.23549281       1.69193319       26      -0.03589438       0.05182941       0.00830937
O        3.62081524       2.29092109       3.85156405       27      -0.00568326       0.06251066       0.01019110
O        0.68977890       4.26264744       6.85953728       28      -0.00568326      -0.02242958      -0.05923137
O        2.24125744      -0.11753610       0.32000616       29       0.00568326       0.02242958       0.05923137
O       -3.36143116       0.90961854       5.48761025       30       0.03589438      -0.05182941      -0.00830937
O        5.00417276       0.75847266       1.95372552       31       0.01925239      -0.05771325       0.01850046
O        0.95296270       1.24686346       5.54349724       32       0.06083003       0.00108642       0.01850046
O        3.36143116      -1.01044785       5.54582409       33      -0.03589438      -0.03311083       0.04073091
O        2.07313643       0.00134341       3.26976555       34       0.01925239       0.01283475      -0.05923137
O        0.95296270      -2.04028930       6.91775111       35       0.06083003       0.01547866      -0.01019110
O       -0.68977890       1.85419025       3.32797939       36       0.00568326      -0.06251066      -0.01019110
O       -0.95296271      -0.79342584       5.28170491       37      -0.06083003       0.01656508       0.00830937
O       -0.43039483       5.15555920       1.63371935       38       0.03589438       0.03311083      -0.04073091
O        3.78893624       4.90492741       5.22349107       39      -0.01925239      -0.04487849      -0.04073091
40
Lattice="8.793109011912453 6.891771252424801e-10 -1.216856815569334e-14 -2.931036337953915 8.290222679818058 -1.193690745724616e-09 -2.9310363369792602 -4.145111339219845 7.179543444548147" Properties=species:S:1:pos:R:3:spacegroup_kinds:I:1:forces:R:3 spacegroup="P 1" unit_cell=conventional occupancy="_JSON {\"0\": {\"In\": 1}, \"1\": {\"In\": 1}, \"2\": {\"In\": 1}, \"3\": {\"In\": 1}, \"4\": {\"In\": 1}, \"5\": {\"In\": 1}, \"6\": {\"In\": 1}, \"7\": {\"In\": 1}, \"8\": {\"In\": 1}, \"9\": {\"In\": 1}, \"10\": {\"In\": 1}, \"11\": {\"In\": 1}, \"12\": {\"In\": 1}, \"13\": {\"In\": 1}, \"14\": {\"In\": 1}, \"15\": {\"In\": 1}, \"16\": {\"O\": 1}, \"17\": {\"O\": 1}, \"18\": {\"O\": 1}, \"19\": {\"O\": 1}, \"20\": {\"O\": 1}, \"21\": {\"O\": 1}, \"22\": {\"O\": 1}, \"23\": {\"O\": 1}, \"24\": {\"O\": 1}, \"25\": {\"O\": 1}, \"26\": {\"O\": 1}, \"27\": {\"O\": 1}, \"28\": {\"O\": 1}, \"29\": {\"O\": 1}, \"30\": {\"O\": 1}, \"31\": {\"O\": 1}, \"32\": {\"O\": 1}, \"33\": {\"O\": 1}, \"34\": {\"O\": 1}, \"35\": {\"O\": 1}, \"36\": {\"O\": 1}, \"37\": {\"O\": 1}, \"38\": {\"O\": 1}, \"39\": {\"O\": 1}}" n_minim_iter=2 energy=-45151.83403038564 stress="-0.01933669358120251 -1.648425644951564e-13 -2.602061893420798e-13 -1.648425644951564e-13 -0.019336693581306984 -1.2984302170015274e-13 -2.602061893420798e-13 -1.2984302170015274e-13 -0.019336693582004728" free_energy=-45151.83403038564 pbc="T T T"
In      -4.20043887       2.97015881       5.62484921        0       0.01904913      -0.01346977       0.02333032
In       7.13147520       1.17495254       1.55469423        1      -0.01904913       0.01346977      -0.02333032
In       1.26940253      -0.89760313       5.14446596        2      -0.01904913       0.01346977      -0.02333032
In      -1.46551817      -2.07255567       3.58977172        3       0.00000000      -0.00000000      -0.00000000
In      -1.26940253       4.00643664       3.34958009        4       0.01904913      -0.01346977      -0.02333032
In       4.59267015      -2.83148410       5.38465758        5       0.01904913       0.02693954       0.00000000
In      -1.26940253       1.31362724       5.38465758        6       0.01904913       0.02693954       0.00000000
In      -1.66163381       6.97659545       1.79488586        7      -0.01904913      -0.02693954       0.00000000
In       4.20043886       0.13867470       3.82996334        8      -0.01904913       0.01346977       0.02333032
In      -1.46551817       4.14511134      -0.00000000        9      -0.00000000      -0.00000000       0.00000000
In       4.20043886       6.35634171       0.24019162       10      -0.01904913       0.01346977       0.02333032
In      -1.26940253      -2.21123037       6.93935182       11       0.01904913      -0.01346977      -0.02333032
In       4.20043886       2.83148411       1.79488586       12      -0.01904913      -0.02693954       0.00000000
In       1.66163381       5.04271448       2.03507748       13       0.01904913      -0.01346977       0.02333032
In       4.39655450       0.00000000      -0.00000000       14      -0.00000000      -0.00000000      -0.00000000
In       1.46551817       2.07255567       3.58977172       15      -0.00000000       0.00000000      -0.00000000
O        0.85652474       4.14285117       3.91400870       16      -0.02379763      -0.01024204       0.00626710
O       -2.07451160       3.39076105       5.22449646       17      -0.02379763       0.01054849       0.00573632
O       -0.42783094       2.22638199       0.06171671       18      -0.00764362      -0.00087412       0.02552086
O       -0.85652474      -0.75661046       1.95896172       19       0.02379763       0.00030645       0.01200342
O        3.88834404       4.93735397       1.89724500       20       0.01787775       0.01442803      -0.01351744
O        1.97372863       2.89817028       1.63472474       21      -0.01787775       0.01892046       0.00573632
O        1.97372863       6.18429503       0.26252026       22      -0.01787775      -0.00449243      -0.01925376
O       -2.24166339       5.87890256       3.65148843       23      -0.00172375       0.00749785       0.02552086
O        3.35886728       1.91872935       7.11782673       24       0.00764362       0.00087412      -0.02552086
O        5.17269972      -1.73379122       3.52805501       25       0.00172375      -0.00749785      -0.02552086
O        6.28990361       3.23919491       1.69252671       26       0.00764362       0.02166465       0.01351744
O        3.62040929       2.29538614       3.85229198       27      -0.00172375       0.01835278      -0.01925376
O        0.68937295       4.26104533       6.85530646       28      -0.00172375      -0.02585063      -0.00626710
O        2.24166338      -0.11593398       0.32423698       29       0.00172375       0.02585063       0.00626710
O       -3.35886728       0.90591644       5.48701673       30      -0.00764362      -0.02166465      -0.01351744
O        5.00554794       0.75435029       1.95504698       31       0.02379763      -0.01054849      -0.00573632
O        0.95730771       1.24694106       5.54481870       32       0.01787775      -0.01892046      -0.00573632
O        3.35886728      -1.01281291       5.54873344       33       0.00764362      -0.02253877       0.01200342
O        2.07451160       0.00226018       3.26553474       34       0.02379763       0.01024204      -0.00626710
O        0.95730771      -2.03918368       6.91702318       35       0.01787775       0.00449243       0.01925376
O       -0.68937295       1.84972520       3.32725145       36       0.00172375      -0.01835278       0.01925376
O       -0.95730771      -0.79224262       5.28229844       37      -0.01787775      -0.01442803       0.01351744
O       -0.42783094       5.15792426       1.63081000       38      -0.00764362       0.02253877      -0.01200342
O        3.78756107       4.90172181       5.22058172       39      -0.02379763      -0.00030645      -0.01200342
40
Lattice="8.793109011912454 6.891771252424804e-10 -1.2168568155693349e-14 -2.9310363379539157 8.29022267981806 -1.1936907457246166e-09 -2.931036336979261 -4.145111339219846 7.179543444548151" Properties=species:S:1:pos:R:3:spacegroup_kinds:I:1:forces:R:3 spacegroup="P 1" unit_cell=conventional occupancy="_JSON {\"0\": {\"In\": 1}, \"1\": {\"In\": 1}, \"2\": {\"In\": 1}, \"3\": {\"In\": 1}, \"4\": {\"In\": 1}, \"5\": {\"In\": 1}, \"6\": {\"In\": 1}, \"7\": {\"In\": 1}, \"8\": {\"In\": 1}, \"9\": {\"In\": 1}, \"10\": {\"In\": 1}, \"11\": {\"In\": 1}, \"12\": {\"In\": 1}, \"13\": {\"In\": 1}, \"14\": {\"In\": 1}, \"15\": {\"In\": 1}, \"16\": {\"O\": 1}, \"17\": {\"O\": 1}, \"18\": {\"O\": 1}, \"19\": {\"O\": 1}, \"20\": {\"O\": 1}, \"21\": {\"O\": 1}, \"22\": {\"O\": 1}, \"23\": {\"O\": 1}, \"24\": {\"O\": 1}, \"25\": {\"O\": 1}, \"26\": {\"O\": 1}, \"27\": {\"O\": 1}, \"28\": {\"O\": 1}, \"29\": {\"O\": 1}, \"30\": {\"O\": 1}, \"31\": {\"O\": 1}, \"32\": {\"O\": 1}, \"33\": {\"O\": 1}, \"34\": {\"O\": 1}, \"35\": {\"O\": 1}, \"36\": {\"O\": 1}, \"37\": {\"O\": 1}, \"38\": {\"O\": 1}, \"39\": {\"O\": 1}}" n_minim_iter=3 energy=-45151.83499587674 stress="-0.018928737308402516 9.010128374676171e-14 -1.4141706439699774e-13 9.010128374676171e-14 -0.018928737308643306 -9.004252337731983e-14 -1.4141706439699774e-13 -9.004252337731983e-14 -0.018928737308474403" free_energy=-45151.83499587674 pbc="T T T"
In      -4.19990162       2.96977892       5.62550719        0       0.02038902      -0.01441721       0.02497135
In       7.13093796       1.17533242       1.55403625        1      -0.02038902       0.01441721      -0.02497135
In       1.26886528      -0.89722325       5.14380797        2      -0.02038902       0.01441721      -0.02497135
In      -1.46551817      -2.07255567       3.58977172        3      -0.00000000      -0.00000000       0.00000000
In      -1.26886529       4.00605675       3.34892211        4       0.02038902      -0.01441721      -0.02497135
In       4.59320739      -2.83072433       5.38465758        5       0.02038902       0.02883443       0.00000000
In      -1.26886529       1.31438701       5.38465758        6       0.02038902       0.02883443       0.00000000
In      -1.66217105       6.97583567       1.79488586        7      -0.02038902      -0.02883443      -0.00000000
In       4.19990162       0.13905459       3.83062133        8      -0.02038902       0.01441721       0.02497135
In      -1.46551817       4.14511134      -0.00000000        9      -0.00000000      -0.00000000       0.00000000
In       4.19990162       6.35672160       0.24084961       10      -0.02038902       0.01441721       0.02497135
In      -1.26886529      -2.21161026       6.93869383       11       0.02038902      -0.01441721      -0.02497135
In       4.19990162       2.83072433       1.79488586       12      -0.02038902      -0.02883443      -0.00000000
In       1.66217105       5.04233459       2.03573547       13       0.02038902      -0.01441721       0.02497135
In       4.39655450       0.00000000      -0.00000000       14      -0.00000000      -0.00000000       0.00000000
In       1.46551817       2.07255567       3.58977172       15       0.00000000      -0.00000000      -0.00000000
O        0.85488293       4.14195399       3.91671018       16      -0.01934997      -0.00095030      -0.01815505
O       -2.07615341       3.39354920       5.22392270       17      -0.01934997      -0.01524758       0.00990051
O       -0.42659539       2.22713554       0.06466697       18      -0.02172150      -0.01357065       0.00699599
O       -0.85488293      -0.75471949       1.96108944       19       0.01934997      -0.01619788      -0.00825454
O        3.89152000       4.93716633       1.89642246       20      -0.00792557       0.02023702      -0.01525052
O        1.97055267       2.89878881       1.63415097       21       0.00792557       0.02332585       0.00990051
O        1.97055267       6.18348887       0.26227149       22       0.00792557      -0.00308883      -0.02515103
O       -2.24196199       5.87748649       3.65443870       23       0.00555403       0.02500278       0.00699599
O        3.35763172       1.91797580       7.11487646       24       0.02172150       0.01357065      -0.00699599
O        5.17299832      -1.73237514       3.52510474       25      -0.00555403      -0.02500278      -0.00699599
O        6.28866806       3.24212669       1.69334925       26       0.02172150      -0.00072662       0.01525052
O        3.62011069       2.29864918       3.85204321       27       0.00555403      -0.00644269      -0.02515103
O        0.68907435       4.25919836       6.85260498       28       0.00555403      -0.01856009       0.01815505
O        2.24196198      -0.11408702       0.32693846       29      -0.00555403       0.01856009      -0.01815505
O       -3.35763173       0.90298466       5.48619419       30      -0.02172150       0.00072662      -0.01525052
O        5.00718974       0.75156214       1.95562074       31       0.01934997       0.01524758      -0.00990051
O        0.96048366       1.24632254       5.54539246       32      -0.00792557      -0.02332585      -0.00990051
O        3.35763172      -1.01499114       5.55086116       33       0.02172150      -0.01284403      -0.00825454
O        2.07615340       0.00315736       3.26283325       34       0.01934997       0.00095030       0.01815505
O        0.96048366      -2.03837753       6.91727195       35      -0.00792557       0.00308883       0.02515103
O       -0.68907435       1.84646216       3.32750023       36      -0.00555403       0.00644269       0.02515103
O       -0.96048367      -0.79205499       5.28312098       37       0.00792557      -0.02023702       0.01525052
O       -0.42659539       5.16010249       1.62868228       38      -0.02172150       0.01284403       0.00825454
O        3.78591927       4.89983084       5.21845400       39      -0.01934997       0.01619788       0.00825454
40
Lattice="8.79310901191246 6.891771252424808e-10 -1.2168568155693368e-14 -2.9310363379539175 8.290222679818063 -1.1936907457246172e-09 -2.931036336979263 -4.145111339219848 7.179543444548156" Properties=species:S:1:pos:R:3:spacegroup_kinds:I:1:forces:R:3 spacegroup="P 1" unit_cell=conventional occupancy="_JSON {\"0\": {\"In\": 1}, \"1\": {\"In\": 1}, \"2\": {\"In\": 1}, \"3\": {\"In\": 1}, \"4\": {\"In\": 1}, \"5\": {\"In\": 1}, \"6\": {\"In\": 1}, \"7\": {\"In\": 1}, \"8\": {\"In\": 1}, \"9\": {\"In\": 1}, \"10\": {\"In\": 1}, \"11\": {\"In\": 1}, \"12\": {\"In\": 1}, \"13\": {\"In\": 1}, \"14\": {\"In\": 1}, \"15\": {\"In\": 1}, \"16\": {\"O\": 1}, \"17\": {\"O\": 1}, \"18\": {\"O\": 1}, \"19\": {\"O\": 1}, \"20\": {\"O\": 1}, \"21\": {\"O\": 1}, \"22\": {\"O\": 1}, \"23\": {\"O\": 1}, \"24\": {\"O\": 1}, \"25\": {\"O\": 1}, \"26\": {\"O\": 1}, \"27\": {\"O\": 1}, \"28\": {\"O\": 1}, \"29\": {\"O\": 1}, \"30\": {\"O\": 1}, \"31\": {\"O\": 1}, \"32\": {\"O\": 1}, \"33\": {\"O\": 1}, \"34\": {\"O\": 1}, \"35\": {\"O\": 1}, \"36\": {\"O\": 1}, \"37\": {\"O\": 1}, \"38\": {\"O\": 1}, \"39\": {\"O\": 1}}" n_minim_iter=4 energy=-45151.83579730938 stress="-0.01890632108009849 -3.056956248045952e-13 2.45867757640245e-13 -3.056956248045952e-13 -0.018906321080867546 -1.5258816369400566e-14 2.45867757640245e-13 -1.5258816369400566e-14 -0.018906321080471092" free_energy=-45151.83579730938 pbc="T T T"
In      -4.19873531       2.96895421       5.62693562        0      -0.00246265       0.00174136      -0.00301612
In       7.12977165       1.17615713       1.55260781        1       0.00246265      -0.00174136       0.00301612
In       1.26769897      -0.89639854       5.14237954        2       0.00246265      -0.00174136       0.00301612
In      -1.46551817      -2.07255567       3.58977172        3       0.00000000       0.00000000       0.00000000
In      -1.26769898       4.00523205       3.34749367        4      -0.00246265       0.00174136       0.00301612
In       4.59437370      -2.82907491       5.38465758        5      -0.00246265      -0.00348271      -0.00000000
In      -1.26769898       1.31603643       5.38465758        6      -0.00246265      -0.00348271      -0.00000000
In      -1.66333737       6.97418626       1.79488586        7       0.00246265       0.00348271      -0.00000000
In       4.19873531       0.13987930       3.83204976        8       0.00246265      -0.00174136      -0.00301612
In      -1.46551817       4.14511134      -0.00000000        9       0.00000000      -0.00000000      -0.00000000
In       4.19873531       6.35754631       0.24227804       10       0.00246265      -0.00174136      -0.00301612
In      -1.26769897      -2.21243496       6.93726540       11      -0.00246265       0.00174136       0.00301612
In       4.19873531       2.82907492       1.79488586       12       0.00246265       0.00348271       0.00000000
In       1.66333736       5.04150988       2.03716390       13      -0.00246265       0.00174136      -0.00301612
In       4.39655450       0.00000000      -0.00000000       14       0.00000000       0.00000000       0.00000000
In       1.46551817       2.07255567       3.58977172       15       0.00000000      -0.00000000      -0.00000000
O        0.85353767       4.14164483       3.91644431       16      -0.00552367       0.00971755       0.00044282
O       -2.07749867       3.39347352       5.22432337       17      -0.00552367      -0.00447528      -0.00863705
O       -0.42740663       2.22668226       0.06572168       18       0.00310123      -0.01057401       0.00192625
O       -0.85353767      -0.75510433       1.96122424       19       0.00552367       0.00524226      -0.00819423
O        3.89189707       4.93816011       1.89550255       20      -0.00237811      -0.00413014      -0.01012048
O        1.97017560       2.90008236       1.63455165       21       0.00237811       0.00669953      -0.00863705
O        1.97017560       6.18318909       0.26095090       22       0.00237811      -0.01082967      -0.00148343
O       -2.24180504       5.87840243       3.65549341       23       0.01100301       0.00060080       0.00192625
O        3.35844297       1.91842909       7.11382175       24      -0.00310123       0.01057401      -0.00192625
O        5.17284138      -1.73329109       3.52405003       25      -0.01100301      -0.00060080      -0.00192625
O        6.28947931       3.24281345       1.69426916       26      -0.00310123      -0.00361882       0.01012048
O        3.62026763       2.29910461       3.85072262       27       0.01100301       0.00136778      -0.00148343
O        0.68923129       4.25782698       6.85287085       28       0.01100301      -0.00196858      -0.00044282
O        2.24180504      -0.11271564       0.32667259       29      -0.01100301       0.00196858       0.00044282
O       -3.35844297       0.90229789       5.48527428       30       0.00310123       0.00361882      -0.01012048
O        5.00853500       0.75163782       1.95522007       31       0.00552367       0.00447528       0.00863705
O        0.96086074       1.24502899       5.54499179       32      -0.00237811      -0.00669953       0.00863705
O        3.35844297      -1.01613119       5.55099596       33      -0.00310123      -0.00695519      -0.00819423
O        2.07749866       0.00346651       3.26309913       34       0.00552367      -0.00971755      -0.00044282
O        0.96086074      -2.03807775       6.91859254       35      -0.00237811       0.01082967       0.00148343
O       -0.68923130       1.84600673       3.32882082       36      -0.01100301      -0.00136778       0.00148343
O       -0.96086074      -0.79304876       5.28404089       37       0.00237811       0.00413014       0.01012048
O       -0.42740663       5.16124253       1.62854748       38       0.00310123       0.00695519       0.00819424
O        3.78457401       4.90021567       5.21831920       39      -0.00552367      -0.00524226       0.00819423
40
Lattice="8.793109011912465 6.891771252424809e-10 -1.2168568155693387e-14 -2.931036337953919 8.290222679818063 -1.1936907457246178e-09 -2.9310363369792642 -4.145111339219848 7.179543444548158" Properties=species:S:1:pos:R:3:spacegroup_kinds:I:1:forces:R:3 spacegroup="P 1" unit_cell=conventional occupancy="_JSON {\"0\": {\"In\": 1}, \"1\": {\"In\": 1}, \"2\": {\"In\": 1}, \"3\": {\"In\": 1}, \"4\": {\"In\": 1}, \"5\": {\"In\": 1}, \"6\": {\"In\": 1}, \"7\": {\"In\": 1}, \"8\": {\"In\": 1}, \"9\": {\"In\": 1}, \"10\": {\"In\": 1}, \"11\": {\"In\": 1}, \"12\": {\"In\": 1}, \"13\": {\"In\": 1}, \"14\": {\"In\": 1}, \"15\": {\"In\": 1}, \"16\": {\"O\": 1}, \"17\": {\"O\": 1}, \"18\": {\"O\": 1}, \"19\": {\"O\": 1}, \"20\": {\"O\": 1}, \"21\": {\"O\": 1}, \"22\": {\"O\": 1}, \"23\": {\"O\": 1}, \"24\": {\"O\": 1}, \"25\": {\"O\": 1}, \"26\": {\"O\": 1}, \"27\": {\"O\": 1}, \"28\": {\"O\": 1}, \"29\": {\"O\": 1}, \"30\": {\"O\": 1}, \"31\": {\"O\": 1}, \"32\": {\"O\": 1}, \"33\": {\"O\": 1}, \"34\": {\"O\": 1}, \"35\": {\"O\": 1}, \"36\": {\"O\": 1}, \"37\": {\"O\": 1}, \"38\": {\"O\": 1}, \"39\": {\"O\": 1}}" n_minim_iter=5 energy=-45151.83591833466 stress="-0.01889077272993818 -4.3669348928901316e-15 -3.070609548689284e-13 -4.3669348928901316e-15 -0.01889077273011496 -2.564754362107635e-13 -3.070609548689284e-13 -2.564754362107635e-13 -0.018890772730061903" free_energy=-45151.83591833466 pbc="T T T"
In      -4.19875255       2.96896640       5.62691451        0      -0.00251222       0.00177640      -0.00307682
In       7.12978889       1.17614494       1.55262893        1       0.00251222      -0.00177640       0.00307682
In       1.26771621      -0.89641073       5.14240065        2       0.00251222      -0.00177640       0.00307682
In      -1.46551817      -2.07255567       3.58977172        3      -0.00000000      -0.00000000      -0.00000000
In      -1.26771622       4.00524424       3.34751479        4      -0.00251222       0.00177640       0.00307682
In       4.59435646      -2.82909930       5.38465758        5      -0.00251222      -0.00355281       0.00000000
In      -1.26771622       1.31601204       5.38465758        6      -0.00251222      -0.00355281       0.00000000
In      -1.66332012       6.97421064       1.79488586        7       0.00251222       0.00355281      -0.00000000
In       4.19875255       0.13986710       3.83202865        8       0.00251222      -0.00177640      -0.00307682
In      -1.46551817       4.14511134      -0.00000000        9       0.00000000      -0.00000000      -0.00000000
In       4.19875255       6.35753411       0.24225692       10       0.00251222      -0.00177640      -0.00307682
In      -1.26771622      -2.21242277       6.93728651       11      -0.00251222       0.00177640       0.00307682
In       4.19875255       2.82909930       1.79488586       12       0.00251222       0.00355281      -0.00000000
In       1.66332012       5.04152207       2.03714279       13      -0.00251222       0.00177640      -0.00307682
In       4.39655450       0.00000000      -0.00000000       14      -0.00000000       0.00000000      -0.00000000
In       1.46551817       2.07255567       3.58977172       15      -0.00000000      -0.00000000       0.00000000
O        0.85294174       4.14228485       3.91648832       16      -0.00262867      -0.00171893      -0.00082624
O       -2.07809460       3.39319163       5.22374709       17      -0.00262867       0.00014392       0.00190175
O       -0.42726763       2.22588069       0.06604551       18      -0.00236115      -0.00004524       0.00222939
O       -0.85294174      -0.75474620       1.96069197       19       0.00262867      -0.00157500       0.00107552
O        3.89182994       4.93798894       1.89464646       20       0.00101191       0.00286214      -0.00115387
O        1.97024273       2.90073817       1.63397537       21      -0.00101191       0.00243036       0.00190175
O        1.97024273       6.18236211       0.26067109       22      -0.00101191       0.00043179      -0.00305563
O       -2.24100298       5.87853857       3.65581723       23      -0.00074440       0.00224119       0.00222939
O        3.35830397       1.91923066       7.11349793       24       0.00236115       0.00004524      -0.00222939
O        5.17203932      -1.73342723       3.52372621       25       0.00074440      -0.00224119      -0.00222939
O        6.28934031       3.24269311       1.69512525       26       0.00236115       0.00190809       0.00115387
O        3.62106969       2.29931698       3.85044281       27      -0.00074440       0.00081011      -0.00305563
O        0.69003335       4.25747847       6.85282684       28      -0.00074440      -0.00305131       0.00082624
O        2.24100298      -0.11236713       0.32671660       29       0.00074440       0.00305131      -0.00082624
O       -3.35830397       0.90241824       5.48441818       30      -0.00236115      -0.00190809      -0.00115387
O        5.00913093       0.75191971       1.95579634       31       0.00262867      -0.00014392      -0.00190175
O        0.96079361       1.24437317       5.54556807       32       0.00101191      -0.00243036      -0.00190175
O        3.35830397      -1.01681242       5.55046370       33       0.00236115      -0.00195333       0.00107552
O        2.07809460       0.00282649       3.26305512       34       0.00262867       0.00171893       0.00082624
O        0.96079361      -2.03725077       6.91887235       35       0.00101191      -0.00043179       0.00305563
O       -0.69003336       1.84579436       3.32910063       36       0.00074440      -0.00081011       0.00305563
O       -0.96079361      -0.79287760       5.28489698       37      -0.00101191      -0.00286214       0.00115387
O       -0.42726763       5.16192376       1.62907974       38      -0.00236115       0.00195333      -0.00107552
O        3.78397808       4.89985755       5.21885146       39      -0.00262867       0.00157500      -0.00107552
