40
Lattice="8.145320039330494 6.384039675906322e-10 -3.2179550575598623e-15 -2.7151066803787245 7.679481379447557 -1.105751641182024e-09 -2.7151066794758814 -3.8397406890853696 6.650625963228317" Properties=species:S:1:pos:R:3:spacegroup_kinds:I:1:forces:R:3 spacegroup="P 1" unit_cell=conventional occupancy="_JSON {\"0\": {\"In\": 1}, \"1\": {\"In\": 1}, \"2\": {\"In\": 1}, \"3\": {\"In\": 1}, \"4\": {\"In\": 1}, \"5\": {\"In\": 1}, \"6\": {\"In\": 1}, \"7\": {\"In\": 1}, \"8\": {\"In\": 1}, \"9\": {\"In\": 1}, \"10\": {\"In\": 1}, \"11\": {\"In\": 1}, \"12\": {\"In\": 1}, \"13\": {\"In\": 1}, \"14\": {\"In\": 1}, \"15\": {\"In\": 1}, \"16\": {\"O\": 1}, \"17\": {\"O\": 1}, \"18\": {\"O\": 1}, \"19\": {\"O\": 1}, \"20\": {\"O\": 1}, \"21\": {\"O\": 1}, \"22\": {\"O\": 1}, \"23\": {\"O\": 1}, \"24\": {\"O\": 1}, \"25\": {\"O\": 1}, \"26\": {\"O\": 1}, \"27\": {\"O\": 1}, \"28\": {\"O\": 1}, \"29\": {\"O\": 1}, \"30\": {\"O\": 1}, \"31\": {\"O\": 1}, \"32\": {\"O\": 1}, \"33\": {\"O\": 1}, \"34\": {\"O\": 1}, \"35\": {\"O\": 1}, \"36\": {\"O\": 1}, \"37\": {\"O\": 1}, \"38\": {\"O\": 1}, \"39\": {\"O\": 1}}" n_minim_iter=1 energy=-45137.18601654904 stress="-0.3807121548256555 2.645743970227557e-13 -2.3901752652981795e-13 2.645743970227557e-13 -0.3807121548255747 -4.1948991476950193e-14 -2.3901752652981795e-13 -4.1948991476950193e-14 -0.3807121548255201" free_energy=-45137.18601654904 pbc="T T T"
In      -3.86684123       2.73426965       5.24004498        0      -0.00564042       0.00398838      -0.00690808
In       6.58194790       1.10547104       1.41058098        1       0.00564042      -0.00398838       0.00690808
In       1.15173454      -0.81439931       4.73589396        2       0.00564042      -0.00398838       0.00690808
In      -1.35755334      -1.91987034       3.32531298        3       0.00000000      -0.00000000       0.00000000
In      -1.15173455       3.69420483       3.07323747        4      -0.00564042       0.00398838       0.00690808
In       4.27847881      -2.58873379       4.98796947        5      -0.00564042      -0.00797676       0.00000000
In      -1.15173455       1.25100690       4.98796947        6      -0.00564042      -0.00797676       0.00000000
In      -1.56337214       6.42847448       1.66265649        7       0.00564042       0.00797676      -0.00000000
In       3.86684122       0.14553587       3.57738849        8       0.00564042      -0.00398838      -0.00690808
In      -1.35755334       3.83974069      -0.00000000        9      -0.00000000      -0.00000000       0.00000000
In       3.86684122       5.90514690       0.25207551       10       0.00564042      -0.00398838      -0.00690808
In      -1.15173455      -2.06540621       6.39855045       11      -0.00564042       0.00398838       0.00690808
In       3.86684122       2.58873379       1.66265649       12       0.00564042       0.00797676      -0.00000000
In       1.56337213       4.65414000       1.91473200       13      -0.00564042       0.00398838      -0.00690808
In       4.07266002       0.00000000      -0.00000000       14      -0.00000000      -0.00000000      -0.00000000
In       1.35755334       1.91987035       3.32531298       15       0.00000000       0.00000000      -0.00000000
O        0.77412659       3.82994093       3.68010019       16       0.00622971       0.04368146       0.17493015
O       -1.94098009       3.19196014       4.81906271       17       0.00622971       0.12965322      -0.12529433
O       -0.36193047       2.07540345       0.10236967       18       0.16549808       0.01703348       0.06976878
O       -0.77412659      -0.65758031       1.84853694       19      -0.00622971       0.17333468       0.04963582
O        3.65640224       4.55642416       1.74616727       20       0.12016166      -0.13305366      -0.02013296
O        1.77381112       2.68585721       1.49374973       21      -0.12016166      -0.04909117      -0.12529433
O        1.77381112       5.71030764       0.25241754       22      -0.12016166      -0.08396249       0.10516136
O       -2.07735262       5.40904121       3.42768265       23       0.03910671      -0.16171091       0.06976878
O        3.07703715       1.76433725       6.54825629       24      -0.16549808      -0.01703348      -0.06976878
O        4.79245930      -1.56930051       3.22294331       25      -0.03910671       0.16171091      -0.06976878
O        5.79214383       3.04622680       1.57914571       26      -0.16549808       0.06893828       0.02013296
O        3.35286074       2.18380999       3.57773052       27       0.03910671       0.14127699       0.10516136
O        0.63775406       3.92637087       6.29583875       28       0.03910671       0.02043392      -0.17493015
O        2.07735262      -0.08663018       0.35478721       29      -0.03910671      -0.02043392       0.17493015
O       -3.07703715       0.79351389       5.07148025       30       0.16549808      -0.06893828      -0.02013296
O        4.65608677       0.64778055       1.83156325       31      -0.00622971      -0.12965322       0.12529433
O        0.94129556       1.15388348       5.15687623       32       0.12016166       0.04909117       0.12529433
O        3.07703715      -0.97082335       5.17384992       33      -0.16549808      -0.05190480       0.04963582
O        1.94098009       0.00979976       2.97052577       34      -0.00622971      -0.04368146      -0.17493015
O        0.94129556      -1.87056695       6.39820842       35       0.12016166       0.08396249      -0.10516136
O       -0.63775406       1.65593070       3.07289544       36      -0.03910671      -0.14127699      -0.10516136
O       -0.94129556      -0.71668347       4.90445869       37      -0.12016166       0.13305366       0.02013296
O       -0.36193047       4.81056405       1.47677604       38       0.16549808       0.05190480      -0.04963582
O        3.48923327       4.49732101       4.80208902       39       0.00622971      -0.17333468      -0.04963582
40
Lattice="8.145320039330493 6.384039675906324e-10 -3.2179550575598635e-15 -2.715106680378725 7.679481379447559 -1.1057516411820238e-09 -2.715106679475882 -3.8397406890853705 6.650625963228317" Properties=species:S:1:pos:R:3:spacegroup_kinds:I:1:forces:R:3 spacegroup="P 1" unit_cell=conventional occupancy="_JSON {\"0\": {\"In\": 1}, \"1\": {\"In\": 1}, \"2\": {\"In\": 1}, \"3\": {\"In\": 1}, \"4\": {\"In\": 1}, \"5\": {\"In\": 1}, \"6\": {\"In\": 1}, \"7\": {\"In\": 1}, \"8\": {\"In\": 1}, \"9\": {\"In\": 1}, \"10\": {\"In\": 1}, \"11\": {\"In\": 1}, \"12\": {\"In\": 1}, \"13\": {\"In\": 1}, \"14\": {\"In\": 1}, \"15\": {\"In\": 1}, \"16\": {\"O\": 1}, \"17\": {\"O\": 1}, \"18\": {\"O\": 1}, \"19\": {\"O\": 1}, \"20\": {\"O\": 1}, \"21\": {\"O\": 1}, \"22\": {\"O\": 1}, \"23\": {\"O\": 1}, \"24\": {\"O\": 1}, \"25\": {\"O\": 1}, \"26\": {\"O\": 1}, \"27\": {\"O\": 1}, \"28\": {\"O\": 1}, \"29\": {\"O\": 1}, \"30\": {\"O\": 1}, \"31\": {\"O\": 1}, \"32\": {\"O\": 1}, \"33\": {\"O\": 1}, \"34\": {\"O\": 1}, \"35\": {\"O\": 1}, \"36\": {\"O\": 1}, \"37\": {\"O\": 1}, \"38\": {\"O\": 1}, \"39\": {\"O\": 1}}" n_minim_iter=2 energy=-45137.19371685854 stress="-0.3796929972136794 1.2567670827125434e-13 6.794077458271872e-13 1.2567670827125434e-13 -0.3796929972141671 4.329009101488595e-13 6.794077458271872e-13 4.329009101488595e-13 -0.37969299721434024" free_energy=-45137.19371685854 pbc="T T T"
In      -3.86692180       2.73432663       5.23994629        0       0.06044642      -0.04274208       0.07403145
In       6.58202848       1.10541406       1.41067966        1      -0.06044642       0.04274208      -0.07403145
In       1.15181512      -0.81445628       4.73599264        2      -0.06044642       0.04274208      -0.07403145
In      -1.35755334      -1.91987034       3.32531298        3      -0.00000000      -0.00000000       0.00000000
In      -1.15181513       3.69426180       3.07333615        4       0.06044642      -0.04274208      -0.07403145
In       4.27839823      -2.58884774       4.98796947        5       0.06044642       0.08548415      -0.00000000
In      -1.15181512       1.25089295       4.98796947        6       0.06044642       0.08548415      -0.00000000
In      -1.56329156       6.42858843       1.66265649        7      -0.06044642      -0.08548415       0.00000000
In       3.86692180       0.14547889       3.57728980        8      -0.06044642       0.04274208       0.07403145
In      -1.35755334       3.83974069      -0.00000000        9      -0.00000000      -0.00000000      -0.00000000
In       3.86692180       5.90508992       0.25197682       10      -0.06044642       0.04274208       0.07403145
In      -1.15181512      -2.06534923       6.39864914       11       0.06044642      -0.04274208      -0.07403145
In       3.86692180       2.58884774       1.66265649       12      -0.06044642      -0.08548415      -0.00000000
In       1.56329155       4.65419698       1.91463331       13       0.06044642      -0.04274208       0.07403145
In       4.07266002       0.00000000      -0.00000000       14       0.00000000      -0.00000000      -0.00000000
In       1.35755334       1.91987035       3.32531298       15       0.00000000       0.00000000       0.00000000
O        0.77421559       3.83056495       3.68259919       16      -0.01666742      -0.01526926       0.07766060
O       -1.94089109       3.19381233       4.81727279       17      -0.01666742       0.07489068      -0.02560673
O       -0.35956621       2.07564678       0.10336636       18       0.05065581       0.02728597       0.05684705
O       -0.77421559      -0.65510410       1.84924602       19       0.01666742       0.05962142       0.05205387
O        3.65811883       4.55452340       1.74587966       20       0.07616342      -0.02680076      -0.00479318
O        1.77209452       2.68515591       1.49195981       21      -0.07616342      -0.00924937      -0.02560673
O        1.77209452       5.70910818       0.25391985       22      -0.07616342      -0.01755139       0.02081355
O       -2.07679396       5.40673105       3.42867934       23      -0.00884019      -0.05685408       0.05684705
O        3.07467289       1.76409391       6.54725960       24      -0.05065581      -0.02728597      -0.05684705
O        4.79190063      -1.56699036       3.22194661       25       0.00884019       0.05685408      -0.05684705
O        5.78977957       3.04721163       1.57943332       26      -0.05065581       0.06287397       0.00479318
O        3.35341940       2.18582824       3.57923283       27      -0.00884019       0.07765803       0.02081355
O        0.63831272       3.92666279       6.29333975       28      -0.00884019      -0.02080395      -0.07766060
O        2.07679395      -0.08692209       0.35728621       29       0.00884019       0.02080395       0.07766060
O       -3.07467289       0.79252906       5.07119264       30       0.05065581      -0.06287397      -0.00479318
O        4.65599777       0.64592837       1.83335317       31       0.01666742      -0.07489068       0.02560673
O        0.94301215       1.15458479       5.15866615       32       0.07616342       0.00924937       0.02560673
O        3.07467289      -0.97156485       5.17455900       33      -0.05065581      -0.03558800       0.05205387
O        1.94089109       0.00917574       2.96802677       34       0.01666742       0.01526926      -0.07766060
O        0.94301215      -1.86936749       6.39670611       35       0.07616342       0.01755139      -0.02081355
O       -0.63831273       1.65391246       3.07139313       36       0.00884019      -0.07765803      -0.02081355
O       -0.94301216      -0.71478270       4.90474630       37      -0.07616342       0.02680076       0.00479318
O       -0.35956621       4.81130554       1.47606696       38       0.05065581       0.03558800      -0.05205387
O        3.48932227       4.49484480       4.80137994       39      -0.01666742      -0.05962142      -0.05205387
40
Lattice="8.145320039330489 6.384039675906324e-10 -3.217955057559854e-15 -2.715106680378725 7.679481379447558 -1.1057516411820234e-09 -2.715106679475882 -3.83974068908537 6.6506259632283165" Properties=species:S:1:pos:R:3:spacegroup_kinds:I:1:forces:R:3 spacegroup="P 1" unit_cell=conventional occupancy="_JSON {\"0\": {\"In\": 1}, \"1\": {\"In\": 1}, \"2\": {\"In\": 1}, \"3\": {\"In\": 1}, \"4\": {\"In\": 1}, \"5\": {\"In\": 1}, \"6\": {\"In\": 1}, \"7\": {\"In\": 1}, \"8\": {\"In\": 1}, \"9\": {\"In\": 1}, \"10\": {\"In\": 1}, \"11\": {\"In\": 1}, \"12\": {\"In\": 1}, \"13\": {\"In\": 1}, \"14\": {\"In\": 1}, \"15\": {\"In\": 1}, \"16\": {\"O\": 1}, \"17\": {\"O\": 1}, \"18\": {\"O\": 1}, \"19\": {\"O\": 1}, \"20\": {\"O\": 1}, \"21\": {\"O\": 1}, \"22\": {\"O\": 1}, \"23\": {\"O\": 1}, \"24\": {\"O\": 1}, \"25\": {\"O\": 1}, \"26\": {\"O\": 1}, \"27\": {\"O\": 1}, \"28\": {\"O\": 1}, \"29\": {\"O\": 1}, \"30\": {\"O\": 1}, \"31\": {\"O\": 1}, \"32\": {\"O\": 1}, \"33\": {\"O\": 1}, \"34\": {\"O\": 1}, \"35\": {\"O\": 1}, \"36\": {\"O\": 1}, \"37\": {\"O\": 1}, \"38\": {\"O\": 1}, \"39\": {\"O\": 1}}" n_minim_iter=3 energy=-45137.20373277066 stress="-0.37729505067064467 4.325870653154972e-13 -5.759989422951653e-13 4.325870653154972e-13 -0.37729505067024555 -1.1710095157459993e-13 -5.759989422951653e-13 -1.1710095157459993e-13 -0.3772950506704517" free_energy=-45137.20373277066 pbc="T T T"
In      -3.86396119       2.73223316       5.24357229        0       0.10016171      -0.07082503       0.12267254
In       6.57906787       1.10750753       1.40705367        1      -0.10016171       0.07082503      -0.12267254
In       1.14885451      -0.81236281       4.73236665        2      -0.10016171       0.07082503      -0.12267254
In      -1.35755334      -1.91987034       3.32531298        3      -0.00000000      -0.00000000      -0.00000000
In      -1.14885451       3.69216834       3.06971016        4       0.10016171      -0.07082503      -0.12267254
In       4.28135885      -2.58466080       4.98796947        5       0.10016171       0.14165005      -0.00000000
In      -1.14885451       1.25507989       4.98796947        6       0.10016171       0.14165005      -0.00000000
In      -1.56625217       6.42440150       1.66265649        7      -0.10016171      -0.14165005       0.00000000
In       3.86396119       0.14757236       3.58091580        8      -0.10016171       0.07082503       0.12267254
In      -1.35755334       3.83974069      -0.00000000        9      -0.00000000       0.00000000      -0.00000000
In       3.86396119       5.90718339       0.25560282       10      -0.10016171       0.07082503       0.12267254
In      -1.14885451      -2.06744270       6.39502314       11       0.10016171      -0.07082503      -0.12267254
In       3.86396119       2.58466081       1.66265649       12      -0.10016171      -0.14165005       0.00000000
In       1.56625217       4.65210351       1.91825931       13       0.10016171      -0.07082503       0.12267254
In       4.07266002       0.00000000      -0.00000000       14      -0.00000000      -0.00000000      -0.00000000
In       1.35755334       1.91987035       3.32531298       15       0.00000000       0.00000000       0.00000000
O        0.77348541       3.83059613       3.68976162       16      -0.01290642      -0.06122081      -0.06312395
O       -1.94162127       3.19999958       4.81366457       17      -0.01290642      -0.02405654       0.08458075
O       -0.35394681       2.07734420       0.10753476       18      -0.08470240       0.02671088      -0.00335100
O       -0.77348541      -0.64888567       1.85280023       19       0.01290642      -0.08527735       0.02145680
O        3.66419562       4.55071159       1.74526547       20      -0.01837858       0.08334265       0.02480781
O        1.76601774       2.68378191       1.48835159       21       0.01837858       0.02018713       0.08458075
O        1.76601774       5.70667037       0.25691387       22       0.01837858       0.06315551      -0.05977295
O       -2.07652116       5.40086722       3.43284774       23      -0.05341739       0.07095456      -0.00335100
O        3.06905349       1.76239649       6.54309120       24       0.08470240      -0.02671088       0.00335100
O        4.79162784      -1.56112653       3.21777822       25       0.05341739      -0.07095456       0.00335100
O        5.78416017       3.05167028       1.58004751       26       0.08470240       0.01045339      -0.02480781
O        3.35369220       2.19237009       3.58222686       27      -0.05341739      -0.03837933      -0.05977295
O        0.63858552       3.92598476       6.28617732       28      -0.05341739      -0.03257522       0.06312395
O        2.07652116      -0.08624407       0.36444863       29       0.05341739       0.03257522      -0.06312395
O       -3.06905349       0.78807041       5.07057845       30      -0.08470240      -0.01045339       0.02480781
O        4.65672795       0.63974112       1.83696139       31       0.01290642       0.02405654      -0.08458075
O        0.94908894       1.15595879       5.16227437       32      -0.01837858      -0.02018713      -0.08458075
O        3.06905349      -0.97432608       5.17811321       33       0.08470240       0.01625750       0.02145680
O        1.94162127       0.00914456       2.96086434       34       0.01290642       0.06122081       0.06312395
O        0.94908894      -1.86692968       6.39371208       35      -0.01837858      -0.06315551       0.05977295
O       -0.63858552       1.64737061       3.06839910       36       0.05341739       0.03837933       0.05977295
O       -0.94908894      -0.71097089       4.90536049       37       0.01837858      -0.08334265      -0.02480781
O       -0.35394681       4.81406677       1.47251275       38      -0.08470240      -0.01625750      -0.02145680
O        3.48859209       4.48862637       4.79782573       39      -0.01290642       0.08527735      -0.02145680
40
Lattice="8.145320039330496 6.38403967590633e-10 -3.2179550575598635e-15 -2.7151066803787276 7.679481379447565 -1.1057516411820238e-09 -2.7151066794758845 -3.8397406890853736 6.650625963228322" Properties=species:S:1:pos:R:3:spacegroup_kinds:I:1:forces:R:3 spacegroup="P 1" unit_cell=conventional occupancy="_JSON {\"0\": {\"In\": 1}, \"1\": {\"In\": 1}, \"2\": {\"In\": 1}, \"3\": {\"In\": 1}, \"4\": {\"In\": 1}, \"5\": {\"In\": 1}, \"6\": {\"In\": 1}, \"7\": {\"In\": 1}, \"8\": {\"In\": 1}, \"9\": {\"In\": 1}, \"10\": {\"In\": 1}, \"11\": {\"In\": 1}, \"12\": {\"In\": 1}, \"13\": {\"In\": 1}, \"14\": {\"In\": 1}, \"15\": {\"In\": 1}, \"16\": {\"O\": 1}, \"17\": {\"O\": 1}, \"18\": {\"O\": 1}, \"19\": {\"O\": 1}, \"20\": {\"O\": 1}, \"21\": {\"O\": 1}, \"22\": {\"O\": 1}, \"23\": {\"O\": 1}, \"24\": {\"O\": 1}, \"25\": {\"O\": 1}, \"26\": {\"O\": 1}, \"27\": {\"O\": 1}, \"28\": {\"O\": 1}, \"29\": {\"O\": 1}, \"30\": {\"O\": 1}, \"31\": {\"O\": 1}, \"32\": {\"O\": 1}, \"33\": {\"O\": 1}, \"34\": {\"O\": 1}, \"35\": {\"O\": 1}, \"36\": {\"O\": 1}, \"37\": {\"O\": 1}, \"38\": {\"O\": 1}, \"39\": {\"O\": 1}}" n_minim_iter=4 energy=-45137.20888059052 stress="-0.3769239618989327 3.977161288304137e-13 1.3456684355098743e-13 3.977161288304137e-13 -0.3769239618967414 1.4480576436457558e-13 1.3456684355098743e-13 1.4480576436457558e-13 -0.37692396189684735" free_energy=-45137.20888059052 pbc="T T T"
In      -3.86087337       2.73004974       5.24735408        0       0.00513145      -0.00362849       0.00628472
In       6.57598005       1.10969095       1.40327188        1      -0.00513145       0.00362849      -0.00628472
In       1.14576669      -0.81017939       4.72858486        2      -0.00513145       0.00362849      -0.00628472
In      -1.35755334      -1.91987034       3.32531298        3      -0.00000000      -0.00000000      -0.00000000
In      -1.14576669       3.68998492       3.06592837        4       0.00513145      -0.00362849      -0.00628472
In       4.28444667      -2.58029396       4.98796947        5       0.00513145       0.00725697       0.00000000
In      -1.14576669       1.25944673       4.98796947        6       0.00513145       0.00725697      -0.00000000
In      -1.56933999       6.42003466       1.66265649        7      -0.00513145      -0.00725697      -0.00000000
In       3.86087337       0.14975578       3.58469759        8      -0.00513145       0.00362849       0.00628472
In      -1.35755334       3.83974069      -0.00000000        9      -0.00000000       0.00000000      -0.00000000
In       3.86087337       5.90936681       0.25938461       10      -0.00513145       0.00362849       0.00628472
In      -1.14576669      -2.06962612       6.39124135       11       0.00513145      -0.00362849      -0.00628472
In       3.86087337       2.58029397       1.66265649       12      -0.00513145      -0.00725697       0.00000000
In       1.56933999       4.64992009       1.92204110       13       0.00513145      -0.00362849       0.00628472
In       4.07266002       0.00000000      -0.00000000       14       0.00000000      -0.00000000       0.00000000
In       1.35755334       1.91987035       3.32531298       15      -0.00000000       0.00000000      -0.00000000
O        0.77313314       3.82952264       3.69141209       16       0.03022433       0.01134675      -0.00056125
O       -1.94197353       3.20196567       4.81376901       17       0.03022433      -0.00615943      -0.00954594
O       -0.35322268       2.07854917       0.10895751       18       0.01496542       0.00463025      -0.02823421
O       -0.77313315      -0.64799307       1.85455513       19      -0.03022433       0.00518731      -0.01010720
O        3.66616669       4.55064041       1.74559762       20      -0.01588194      -0.02148835       0.01812702
O        1.76404666       2.68345866       1.48845603       21       0.01588194      -0.02644263      -0.00954594
O        1.76404666       5.70692244       0.25714159       22       0.01588194       0.00495429       0.02767296
O       -2.07741584       5.39978285       3.43427049       23       0.00062304      -0.01565295      -0.02823421
O        3.06832935       1.76119153       6.54166845       24      -0.01496542      -0.00463025       0.02823421
O        4.79252252      -1.56004215       3.21635547       25      -0.00062304       0.01565295       0.02823421
O        5.78343603       3.05350490       1.57971535       26      -0.01496542      -0.02213642      -0.01812702
O        3.35279752       2.19414441       3.58245458       27       0.00062304      -0.01662507       0.02767296
O        0.63769084       3.92529481       6.28452685       28       0.00062304       0.03227802       0.00056125
O        2.07741584      -0.08555412       0.36609911       29      -0.00062304      -0.03227802      -0.00056125
O       -3.06832936       0.78623579       5.07091060       30       0.01496542       0.02213642       0.01812702
O        4.65708021       0.63777502       1.83685695       31      -0.03022433       0.00615943       0.00954594
O        0.95106002       1.15628203       5.16216993       32      -0.01588194       0.02644263       0.00954594
O        3.06832935      -0.97495573       5.17986812       33      -0.01496542       0.02676667      -0.01010720
O        1.94197353       0.01021805       2.95921387       34      -0.03022433      -0.01134675       0.00056125
O        0.95106002      -1.86718175       6.39348436       35      -0.01588194      -0.00495429      -0.02767296
O       -0.63769084       1.64559628       3.06817138       36      -0.00062304       0.01662507      -0.02767296
O       -0.95106002      -0.71089972       4.90502834       37       0.01588194       0.02148835      -0.01812702
O       -0.35322268       4.81469643       1.47075784       38       0.01496542      -0.02676667       0.01010720
O        3.48823982       4.48773376       4.79607082       39       0.03022433      -0.00518731       0.01010720
40
Lattice="8.145320039330493 6.384039675906329e-10 -3.217955057559876e-15 -2.715106680378727 7.679481379447563 -1.1057516411820238e-09 -2.715106679475884 -3.8397406890853727 6.650625963228319" Properties=species:S:1:pos:R:3:spacegroup_kinds:I:1:forces:R:3 spacegroup="P 1" unit_cell=conventional occupancy="_JSON {\"0\": {\"In\": 1}, \"1\": {\"In\": 1}, \"2\": {\"In\": 1}, \"3\": {\"In\": 1}, \"4\": {\"In\": 1}, \"5\": {\"In\": 1}, \"6\": {\"In\": 1}, \"7\": {\"In\": 1}, \"8\": {\"In\": 1}, \"9\": {\"In\": 1}, \"10\": {\"In\": 1}, \"11\": {\"In\": 1}, \"12\": {\"In\": 1}, \"13\": {\"In\": 1}, \"14\": {\"In\": 1}, \"15\": {\"In\": 1}, \"16\": {\"O\": 1}, \"17\": {\"O\": 1}, \"18\": {\"O\": 1}, \"19\": {\"O\": 1}, \"20\": {\"O\": 1}, \"21\": {\"O\": 1}, \"22\": {\"O\": 1}, \"23\": {\"O\": 1}, \"24\": {\"O\": 1}, \"25\": {\"O\": 1}, \"26\": {\"O\": 1}, \"27\": {\"O\": 1}, \"28\": {\"O\": 1}, \"29\": {\"O\": 1}, \"30\": {\"O\": 1}, \"31\": {\"O\": 1}, \"32\": {\"O\": 1}, \"33\": {\"O\": 1}, \"34\": {\"O\": 1}, \"35\": {\"O\": 1}, \"36\": {\"O\": 1}, \"37\": {\"O\": 1}, \"38\": {\"O\": 1}, \"39\": {\"O\": 1}}" n_minim_iter=5 energy=-45137.20987337686 stress="-0.3768339557653221 -1.2022392116644191e-13 -5.558856517244285e-14 -1.2022392116644191e-13 -0.37683395576390316 2.1332108048598855e-13 -5.558856517244285e-14 2.1332108048598855e-13 -0.37683395576520917" free_energy=-45137.20987337686 pbc="T T T"
In      -3.85988019       2.72934745       5.24857048        0      -0.00064870       0.00045870      -0.00079449
In       6.57498686       1.11039324       1.40205548        1       0.00064870      -0.00045870       0.00079449
In       1.14477350      -0.80947711       4.72736846        2       0.00064870      -0.00045870       0.00079449
In      -1.35755334      -1.91987034       3.32531298        3      -0.00000000       0.00000000       0.00000000
In      -1.14477351       3.68928263       3.06471197        4      -0.00064870       0.00045870       0.00079449
In       4.28543985      -2.57888938       4.98796947        5      -0.00064870      -0.00091740       0.00000000
In      -1.14477351       1.26085130       4.98796947        6      -0.00064870      -0.00091740       0.00000000
In      -1.57033318       6.41863008       1.66265649        7       0.00064870       0.00091740      -0.00000000
In       3.85988018       0.15045807       3.58591399        8       0.00064870      -0.00045870      -0.00079449
In      -1.35755334       3.83974069      -0.00000000        9       0.00000000       0.00000000      -0.00000000
In       3.85988018       5.91006910       0.26060101       10       0.00064870      -0.00045870      -0.00079449
In      -1.14477350      -2.07032841       6.39002495       11      -0.00064870       0.00045870       0.00079449
In       3.85988018       2.57888939       1.66265649       12       0.00064870       0.00091740       0.00000000
In       1.57033317       4.64921780       1.92325750       13      -0.00064870       0.00045870      -0.00079449
In       4.07266002       0.00000000      -0.00000000       14       0.00000000      -0.00000000      -0.00000000
In       1.35755334       1.91987035       3.32531298       15       0.00000000       0.00000000       0.00000000
O        0.77519876       3.83008231       3.69160072       16       0.00340654      -0.00025764       0.00234502
O       -1.93990792       3.20184920       4.81319001       17       0.00340654       0.00215967      -0.00094939
O       -0.35211629       2.07911097       0.10720369       18       0.00292876       0.00249751      -0.00153455
O       -0.77519877      -0.64754988       1.85416476       19      -0.00340654       0.00190203       0.00139563
O        3.66536834       4.54918465       1.74696107       20       0.00090064      -0.00278800       0.00293018
O        1.76484502       2.68155000       1.48787703       21      -0.00090064      -0.00393161      -0.00094939
O        1.76484502       5.70737534       0.25908404       22      -0.00090064       0.00114361       0.00387957
O       -2.07757672       5.39855247       3.43251667       23      -0.00137842      -0.00359377      -0.00153455
O        3.06722297       1.76062972       6.54342227       24      -0.00292876      -0.00249751       0.00153455
O        4.79268340      -1.55881178       3.21810929       25       0.00137842       0.00359377       0.00153455
O        5.78232965       3.05226695       1.57835191       26      -0.00292876      -0.00008020      -0.00293018
O        3.35263664       2.19324075       3.58439702       27      -0.00137842       0.00046793       0.00387957
O        0.63752996       3.92742885       6.28433822       28      -0.00137842       0.00312584      -0.00234502
O        2.07757672      -0.08768816       0.36628774       29       0.00137842      -0.00312584       0.00234502
O       -3.06722297       0.78747374       5.07227405       30       0.00292876       0.00008020       0.00293018
O        4.65501459       0.63789150       1.83743595       31      -0.00340654      -0.00215967       0.00094939
O        0.95026166       1.15819069       5.16274893       32       0.00090064       0.00393161       0.00094939
O        3.06722297      -0.97315598       5.17947774       33      -0.00292876       0.00257771       0.00139563
O        1.93990791       0.00965839       2.95902524       34      -0.00340654       0.00025764      -0.00234502
O        0.95026166      -1.86763465       6.39154192       35       0.00090064      -0.00114361      -0.00387957
O       -0.63752996       1.64649994       3.06622893       36       0.00137842      -0.00046793      -0.00387957
O       -0.95026166      -0.70944396       4.90366489       37      -0.00090064       0.00278800      -0.00293018
O       -0.35211629       4.81289667       1.47114821       38       0.00292876      -0.00257771      -0.00139563
O        3.49030544       4.48729057       4.79646119       39       0.00340654      -0.00190203      -0.00139563
