40
Lattice="8.31685062905912 6.5185136218864e-10 -5.286315095285813e-15 -2.7722835436342774 7.841201970347126 -1.129042756109268e-09 -2.7722835427124157 -3.920600984521707 6.790680103277902" Properties=species:S:1:pos:R:3:spacegroup_kinds:I:1:forces:R:3 spacegroup="P 1" unit_cell=conventional occupancy="_JSON {\"0\": {\"In\": 1}, \"1\": {\"In\": 1}, \"2\": {\"In\": 1}, \"3\": {\"In\": 1}, \"4\": {\"In\": 1}, \"5\": {\"In\": 1}, \"6\": {\"In\": 1}, \"7\": {\"In\": 1}, \"8\": {\"In\": 1}, \"9\": {\"In\": 1}, \"10\": {\"In\": 1}, \"11\": {\"In\": 1}, \"12\": {\"In\": 1}, \"13\": {\"In\": 1}, \"14\": {\"In\": 1}, \"15\": {\"In\": 1}, \"16\": {\"O\": 1}, \"17\": {\"O\": 1}, \"18\": {\"O\": 1}, \"19\": {\"O\": 1}, \"20\": {\"O\": 1}, \"21\": {\"O\": 1}, \"22\": {\"O\": 1}, \"23\": {\"O\": 1}, \"24\": {\"O\": 1}, \"25\": {\"O\": 1}, \"26\": {\"O\": 1}, \"27\": {\"O\": 1}, \"28\": {\"O\": 1}, \"29\": {\"O\": 1}, \"30\": {\"O\": 1}, \"31\": {\"O\": 1}, \"32\": {\"O\": 1}, \"33\": {\"O\": 1}, \"34\": {\"O\": 1}, \"35\": {\"O\": 1}, \"36\": {\"O\": 1}, \"37\": {\"O\": 1}, \"38\": {\"O\": 1}, \"39\": {\"O\": 1}}" n_minim_iter=1 energy=-45144.48955363577 stress="-0.19419097001683874 6.927555201700375e-13 4.946439896482264e-13 6.927555201700375e-13 -0.19419097001853677 -2.142176667902444e-13 4.946439896482264e-13 -2.142176667902444e-13 -0.19419097001753519" free_energy=-45144.48955363577 pbc="T T T"
In      -3.95896478       2.79941084       5.33729835        0       0.01453797      -0.01027990       0.01780530
In       6.73124832       1.12119015       1.45338175        1      -0.01453797       0.01027990      -0.01780530
In       1.18668123      -0.83911034       4.84872180        2      -0.01453797       0.01027990      -0.01780530
In      -1.38614177      -1.96030049       3.39534005        3       0.00000000      -0.00000000       0.00000000
In      -1.18668123       3.77956109       3.15105178        4       0.01453797      -0.01027990      -0.01780530
In       4.35788585      -2.65837094       5.09301008        5       0.01453797       0.02055979      -0.00000000
In      -1.18668123       1.26223005       5.09301007        6       0.01453797       0.02055979      -0.00000000
In      -1.58560231       6.57897193       1.69767002        7      -0.01453797      -0.02055979       0.00000000
In       3.95896477       0.14103990       3.63962832        8      -0.01453797       0.01027990       0.01780530
In      -1.38614177       3.92060099      -0.00000000        9       0.00000000      -0.00000000      -0.00000000
In       3.95896477       6.02194138       0.24428827       10      -0.01453797       0.01027990       0.01780530
In      -1.18668123      -2.10134039       6.54639183       11       0.01453797      -0.01027990      -0.01780530
In       3.95896477       2.65837094       1.69767002       12      -0.01453797      -0.02055979      -0.00000000
In       1.58560231       4.75971133       1.94195829       13       0.01453797      -0.01027990       0.01780530
In       4.15842531       0.00000000      -0.00000000       14      -0.00000000       0.00000000      -0.00000000
In       1.38614177       1.96030049       3.39534005       15       0.00000000       0.00000000      -0.00000000
O        0.78993905       3.91209221       3.73859237       16       0.00676597      -0.01961449       0.09941992
O       -1.98234449       3.24197036       4.92875273       17       0.00676597       0.09590743      -0.03272331
O       -0.38452823       2.11214364       0.09498990       18       0.07418499       0.04823498       0.04984779
O       -0.78993906      -0.68713940       1.87666500       19      -0.00676597       0.07629293       0.06669661
O        3.71734046       4.66258284       1.78167510       20       0.08816707      -0.04751330       0.01684882
O        1.82722662       2.74861602       1.53341268       21      -0.08816707      -0.03834816      -0.03272331
O        1.82722662       5.83456781       0.24826241       22      -0.08816707      -0.00916514       0.04957214
O       -2.11952420       5.53939029       3.49032995       23      -0.02074805      -0.08602061       0.04984779
O        3.15681177       1.80845735       6.69569020       24      -0.07418499      -0.04823498      -0.04984779
O        4.89180774      -1.61878930       3.30035015       25       0.02074805       0.08602061      -0.04984779
O        5.92909531       3.09863599       1.61366495       26      -0.07418499       0.06728694      -0.01684882
O        3.42504289       2.21331976       3.64360247       27      -0.02074805       0.08617975       0.04957214
O        0.65275934       4.00909291       6.44742778       28      -0.02074805      -0.00015915      -0.09941992
O        2.11952420      -0.08849193       0.34325232       29       0.02074805       0.00015915       0.09941992
O       -3.15681177       0.82196500       5.17701515       30       0.07418499      -0.06728694       0.01684882
O        4.75462803       0.67863063       1.86192737       31      -0.00676597      -0.09590743       0.03272331
O        0.94505692       1.17198497       5.25726742       32       0.08816707       0.03834816       0.03272331
O        3.15681177      -0.98649234       5.27200505       33      -0.07418499      -0.01905196       0.06669661
O        1.98234449       0.00850878       3.05208773       34      -0.00676597       0.01961449      -0.09941992
O        0.94505692      -1.91396682       6.54241768       35       0.08816707       0.00916514      -0.04957214
O       -0.65275935       1.70728123       3.14707763       36       0.02074805      -0.08617975      -0.04957214
O       -0.94505692      -0.74198185       5.00900500       37      -0.08816707       0.04751330      -0.01684882
O       -0.38452823       4.90709333       1.51867505       38       0.07418499       0.01905196      -0.06669661
O        3.56222260       4.60774039       4.91401510       39       0.00676597      -0.07629293      -0.06669661
40
Lattice="8.316850629059125 6.518513621886405e-10 -5.286315095285822e-15 -2.7722835436342796 7.841201970347132 -1.1290427561092689e-09 -2.772283542712418 -3.9206009845217102 6.790680103277908" Properties=species:S:1:pos:R:3:spacegroup_kinds:I:1:forces:R:3 spacegroup="P 1" unit_cell=conventional occupancy="_JSON {\"0\": {\"In\": 1}, \"1\": {\"In\": 1}, \"2\": {\"In\": 1}, \"3\": {\"In\": 1}, \"4\": {\"In\": 1}, \"5\": {\"In\": 1}, \"6\": {\"In\": 1}, \"7\": {\"In\": 1}, \"8\": {\"In\": 1}, \"9\": {\"In\": 1}, \"10\": {\"In\": 1}, \"11\": {\"In\": 1}, \"12\": {\"In\": 1}, \"13\": {\"In\": 1}, \"14\": {\"In\": 1}, \"15\": {\"In\": 1}, \"16\": {\"O\": 1}, \"17\": {\"O\": 1}, \"18\": {\"O\": 1}, \"19\": {\"O\": 1}, \"20\": {\"O\": 1}, \"21\": {\"O\": 1}, \"22\": {\"O\": 1}, \"23\": {\"O\": 1}, \"24\": {\"O\": 1}, \"25\": {\"O\": 1}, \"26\": {\"O\": 1}, \"27\": {\"O\": 1}, \"28\": {\"O\": 1}, \"29\": {\"O\": 1}, \"30\": {\"O\": 1}, \"31\": {\"O\": 1}, \"32\": {\"O\": 1}, \"33\": {\"O\": 1}, \"34\": {\"O\": 1}, \"35\": {\"O\": 1}, \"36\": {\"O\": 1}, \"37\": {\"O\": 1}, \"38\": {\"O\": 1}, \"39\": {\"O\": 1}}" n_minim_iter=2 energy=-45144.497085711504 stress="-0.19310077219818125 -1.6563138436770334e-13 -7.733487513180068e-15 -1.6563138436770334e-13 -0.19310077219673688 -6.871613864357272e-13 -7.733487513180068e-15 -6.871613864357272e-13 -0.1931007721974356" free_energy=-45144.497085711504 pbc="T T T"
In      -3.95810401       2.79880219       5.33835257        0       0.07690860      -0.05438259       0.09419341
In       6.73038755       1.12179880       1.45232753        1      -0.07690860       0.05438259      -0.09419341
In       1.18582046      -0.83850169       4.84766758        2      -0.07690860       0.05438259      -0.09419341
In      -1.38614177      -1.96030049       3.39534005        3      -0.00000000       0.00000000      -0.00000000
In      -1.18582047       3.77895243       3.14999756        4       0.07690860      -0.05438259      -0.09419341
In       4.35874662      -2.65715363       5.09301008        5       0.07690860       0.10876519       0.00000000
In      -1.18582047       1.26344736       5.09301007        6       0.07690860       0.10876519      -0.00000000
In      -1.58646308       6.57775462       1.69767002        7      -0.07690860      -0.10876519       0.00000000
In       3.95810401       0.14164856       3.64068254        8      -0.07690860       0.05438259       0.09419341
In      -1.38614177       3.92060099      -0.00000000        9       0.00000000      -0.00000000       0.00000000
In       3.95810401       6.02255003       0.24534249       10      -0.07690860       0.05438259       0.09419341
In      -1.18582047      -2.10194904       6.54533761       11       0.07690860      -0.05438259      -0.09419341
In       3.95810401       2.65715363       1.69767002       12      -0.07690860      -0.10876519       0.00000000
In       1.58646308       4.75910268       1.94301251       13       0.07690860      -0.05438259       0.09419341
In       4.15842531       0.00000000      -0.00000000       14       0.00000000       0.00000000      -0.00000000
In       1.38614177       1.96030049       3.39534005       15      -0.00000000      -0.00000000      -0.00000000
O        0.79033965       3.91093087       3.74447884       16      -0.02635154      -0.03075038      -0.02113276
O       -1.98194389       3.24764886       4.92681524       17      -0.02635154      -0.00292631       0.03719699
O       -0.38013587       2.11499955       0.09794130       18      -0.04053454       0.00710258       0.01982644
O       -0.79033966      -0.68262224       1.88061398       19       0.02635154      -0.03367670       0.01606423
O        3.72256067       4.65976966       1.78267268       20       0.00602489       0.04512349      -0.00376220
O        1.82200641       2.74634549       1.53147519       21      -0.00602489       0.02581991       0.03719699
O        1.82200641       5.83402516       0.25119749       22      -0.00602489       0.01930358      -0.04095919
O       -2.12075265       5.53429716       3.49328135       23      -0.02020789       0.03584880       0.01982644
O        3.15241941       1.80560144       6.69273880       24       0.04053454      -0.00710258      -0.01982644
O        4.89303619      -1.61369617       3.29739875       25       0.02020789      -0.03584880      -0.01982644
O        5.92470295       3.10261992       1.61266736       26       0.04053454       0.02072149       0.00376220
O        3.42381443       2.21842231       3.64653754       27      -0.02020789      -0.00075420      -0.04095919
O        0.65153089       4.00908349       6.44154131       28      -0.02020789      -0.03509460       0.02113276
O        2.12075265      -0.08848250       0.34913879       29       0.02020789       0.03509460      -0.02113276
O       -3.15241941       0.81798107       5.17801274       30      -0.04053454      -0.02072149      -0.00376220
O        4.75422743       0.67295213       1.86386486       31       0.02635154       0.00292631      -0.03719699
O        0.95027713       1.17425550       5.25920491       32       0.00602489      -0.02581991      -0.03719699
O        3.15241941      -0.98762037       5.27595404       33       0.04053454      -0.01361891       0.01606423
O        1.98194389       0.00967012       3.04620126       34       0.02635154       0.03075038       0.02113276
O        0.95027713      -1.91342417       6.53948261       35       0.00602489      -0.01930358       0.04095919
O       -0.65153089       1.70217868       3.14414256       36       0.02020789       0.00075420       0.04095919
O       -0.95027713      -0.73916867       5.00800741       37      -0.00602489      -0.04512349       0.00376220
O       -0.38013587       4.90822136       1.51472606       38      -0.04053454       0.01361891      -0.01606423
O        3.56262320       4.60322323       4.91006611       39      -0.02635154       0.03367670      -0.01606423
40
Lattice="8.316850629059132 6.518513621886412e-10 -5.286315095285846e-15 -2.7722835436342823 7.84120197034714 -1.1290427561092695e-09 -2.7722835427124206 -3.9206009845217142 6.790680103277912" Properties=species:S:1:pos:R:3:spacegroup_kinds:I:1:forces:R:3 spacegroup="P 1" unit_cell=conventional occupancy="_JSON {\"0\": {\"In\": 1}, \"1\": {\"In\": 1}, \"2\": {\"In\": 1}, \"3\": {\"In\": 1}, \"4\": {\"In\": 1}, \"5\": {\"In\": 1}, \"6\": {\"In\": 1}, \"7\": {\"In\": 1}, \"8\": {\"In\": 1}, \"9\": {\"In\": 1}, \"10\": {\"In\": 1}, \"11\": {\"In\": 1}, \"12\": {\"In\": 1}, \"13\": {\"In\": 1}, \"14\": {\"In\": 1}, \"15\": {\"In\": 1}, \"16\": {\"O\": 1}, \"17\": {\"O\": 1}, \"18\": {\"O\": 1}, \"19\": {\"O\": 1}, \"20\": {\"O\": 1}, \"21\": {\"O\": 1}, \"22\": {\"O\": 1}, \"23\": {\"O\": 1}, \"24\": {\"O\": 1}, \"25\": {\"O\": 1}, \"26\": {\"O\": 1}, \"27\": {\"O\": 1}, \"28\": {\"O\": 1}, \"29\": {\"O\": 1}, \"30\": {\"O\": 1}, \"31\": {\"O\": 1}, \"32\": {\"O\": 1}, \"33\": {\"O\": 1}, \"34\": {\"O\": 1}, \"35\": {\"O\": 1}, \"36\": {\"O\": 1}, \"37\": {\"O\": 1}, \"38\": {\"O\": 1}, \"39\": {\"O\": 1}}" n_minim_iter=3 energy=-45144.50178006171 stress="-0.1925361895456155 2.752923501198772e-13 -9.333722134170539e-14 2.752923501198772e-13 -0.19253618954543647 -5.3881330311863096e-14 -9.333722134170539e-14 -5.3881330311863096e-14 -0.1925361895445256" free_energy=-45144.50178006171 pbc="T T T"
In      -3.95482103       2.79648077       5.34237338        0       0.01035944      -0.00732523       0.01268767
In       6.72710457       1.12412022       1.44830672        1      -0.01035944       0.00732523      -0.01268767
In       1.18253749      -0.83618028       4.84364677        2      -0.01035944       0.00732523      -0.01268767
In      -1.38614177      -1.96030049       3.39534005        3       0.00000000       0.00000000      -0.00000000
In      -1.18253749       3.77663102       3.14597675        4       0.01035944      -0.00732523      -0.01268767
In       4.36202960      -2.65251080       5.09301008        5       0.01035944       0.01465046      -0.00000000
In      -1.18253749       1.26809019       5.09301007        6       0.01035944       0.01465046       0.00000000
In      -1.58974606       6.57311179       1.69767002        7      -0.01035944      -0.01465046       0.00000000
In       3.95482103       0.14396997       3.64470335        8      -0.01035944       0.00732523       0.01268767
In      -1.38614177       3.92060099      -0.00000000        9      -0.00000000      -0.00000000      -0.00000000
In       3.95482103       6.02487145       0.24936330       10      -0.01035944       0.00732523       0.01268767
In      -1.18253749      -2.10427046       6.54131680       11       0.01035944      -0.00732523      -0.01268767
In       3.95482103       2.65251080       1.69767002       12      -0.01035944      -0.01465046       0.00000000
In       1.58974605       4.75678126       1.94703332       13       0.01035944      -0.00732523       0.01268767
In       4.15842531       0.00000000      -0.00000000       14      -0.00000000      -0.00000000      -0.00000000
In       1.38614177       1.96030049       3.39534005       15       0.00000000       0.00000000       0.00000000
O        0.78964752       3.90910983       3.74738619       16       0.00386631       0.03304645       0.00407528
O       -1.98263603       3.25107722       4.92693864       17       0.00386631      -0.01299393      -0.03065670
O       -0.37885119       2.11703009       0.10048579       18       0.02019447      -0.02453968      -0.01065888
O       -0.78964752      -0.68101492       1.88364473       19      -0.00386631       0.02005252      -0.02658142
O        3.72602367       4.65963141       1.78315894       20      -0.01353956      -0.02620642      -0.01592255
O        1.81854341       2.74585526       1.53159859       21       0.01353956       0.00068612      -0.03065670
O        1.81854341       5.83437714       0.25156035       22       0.01353956      -0.02689254       0.01473416
O       -2.12223884       5.53240911       3.49582584       23       0.02986772      -0.01085963      -0.01065888
O        3.15113473       1.80357090       6.69019431       24      -0.02019447       0.02453968       0.01065888
O        4.89452238      -1.61180812       3.29485426       25      -0.02986772       0.01085963       0.01065888
O        5.92341827       3.10583878       1.61218111       26      -0.02019447      -0.02150070       0.01592255
O        3.42232825       2.22156993       3.64690040       27       0.02986772      -0.00380104       0.01473416
O        0.65004471       4.00782393       6.43863396       28       0.02986772       0.01466067      -0.00407528
O        2.12223883      -0.08722294       0.35204614       29      -0.02986772      -0.01466067       0.00407528
O       -3.15113473       0.81476220       5.17849899       30       0.02019447       0.02150070      -0.01592255
O        4.75491957       0.66952377       1.86374146       31      -0.00386631       0.01299393       0.03065670
O        0.95374013       1.17474573       5.25908151       32      -0.01353956      -0.00068612       0.03065670
O        3.15113473      -0.98880869       5.27898478       33      -0.02019447      -0.00303898      -0.02658142
O        1.98263602       0.01149116       3.04329391       34      -0.00386631      -0.03304645      -0.00407528
O        0.95374013      -1.91377615       6.53911975       35      -0.01353956       0.02689254      -0.01473416
O       -0.65004471       1.69903106       3.14377970       36      -0.02986772       0.00380104      -0.01473416
O       -0.95374013      -0.73903042       5.00752116       37       0.01353956       0.02620642       0.01592255
O       -0.37885119       4.90940968       1.51169532       38       0.02019447       0.00303898       0.02658142
O        3.56193106       4.60161591       4.90703537       39       0.00386631      -0.02005252       0.02658142
40
Lattice="8.316850629059134 6.518513621886415e-10 -5.286315095285859e-15 -2.772283543634283 7.841201970347143 -1.12904275610927e-09 -2.7722835427124215 -3.9206009845217156 6.790680103277913" Properties=species:S:1:pos:R:3:spacegroup_kinds:I:1:forces:R:3 spacegroup="P 1" unit_cell=conventional occupancy="_JSON {\"0\": {\"In\": 1}, \"1\": {\"In\": 1}, \"2\": {\"In\": 1}, \"3\": {\"In\": 1}, \"4\": {\"In\": 1}, \"5\": {\"In\": 1}, \"6\": {\"In\": 1}, \"7\": {\"In\": 1}, \"8\": {\"In\": 1}, \"9\": {\"In\": 1}, \"10\": {\"In\": 1}, \"11\": {\"In\": 1}, \"12\": {\"In\": 1}, \"13\": {\"In\": 1}, \"14\": {\"In\": 1}, \"15\": {\"In\": 1}, \"16\": {\"O\": 1}, \"17\": {\"O\": 1}, \"18\": {\"O\": 1}, \"19\": {\"O\": 1}, \"20\": {\"O\": 1}, \"21\": {\"O\": 1}, \"22\": {\"O\": 1}, \"23\": {\"O\": 1}, \"24\": {\"O\": 1}, \"25\": {\"O\": 1}, \"26\": {\"O\": 1}, \"27\": {\"O\": 1}, \"28\": {\"O\": 1}, \"29\": {\"O\": 1}, \"30\": {\"O\": 1}, \"31\": {\"O\": 1}, \"32\": {\"O\": 1}, \"33\": {\"O\": 1}, \"34\": {\"O\": 1}, \"35\": {\"O\": 1}, \"36\": {\"O\": 1}, \"37\": {\"O\": 1}, \"38\": {\"O\": 1}, \"39\": {\"O\": 1}}" n_minim_iter=4 energy=-45144.50261336976 stress="-0.19239476349237256 3.0109997380353897e-13 -2.2168967355210622e-13 3.0109997380353897e-13 -0.1923947634928654 -9.271661194584235e-14 -2.2168967355210622e-13 -9.271661194584235e-14 -0.19239476349180515" free_energy=-45144.50261336976 pbc="T T T"
In      -3.95367006       2.79566691       5.34378303        0       0.00188269      -0.00133126       0.00230581
In       6.72595360       1.12493408       1.44689707        1      -0.00188269       0.00133126      -0.00230581
In       1.18138651      -0.83536641       4.84223712        2      -0.00188269       0.00133126      -0.00230581
In      -1.38614177      -1.96030049       3.39534005        3      -0.00000000       0.00000000       0.00000000
In      -1.18138651       3.77581715       3.14456710        4       0.00188269      -0.00133126      -0.00230581
In       4.36318057      -2.65088307       5.09301008        5       0.00188269       0.00266252      -0.00000000
In      -1.18138651       1.26971791       5.09301007        6       0.00188269       0.00266252      -0.00000000
In      -1.59089703       6.57148406       1.69767002        7      -0.00188269      -0.00266252      -0.00000000
In       3.95367005       0.14478383       3.64611300        8      -0.00188269       0.00133126       0.00230581
In      -1.38614177       3.92060099      -0.00000000        9       0.00000000      -0.00000000      -0.00000000
In       3.95367005       6.02568531       0.25077295       10      -0.00188269       0.00133126       0.00230581
In      -1.18138651      -2.10508432       6.53990715       11       0.00188269      -0.00133126      -0.00230581
In       3.95367005       2.65088308       1.69767002       12      -0.00188269      -0.00266252       0.00000000
In       1.59089703       4.75596740       1.94844298       13       0.00188269      -0.00133126       0.00230581
In       4.15842531       0.00000000      -0.00000000       14      -0.00000000       0.00000000      -0.00000000
In       1.38614177       1.96030049       3.39534005       15      -0.00000000       0.00000000      -0.00000000
O        0.78973372       3.91057254       3.74813768       16       0.01023014      -0.00181132      -0.00200648
O       -1.98254983       3.25099667       4.92529615       17       0.01023014      -0.00083200       0.00257189
O       -0.37751934       2.11606873       0.10036890       18       0.00091790       0.00575275      -0.00883323
O       -0.78973372      -0.67963276       1.88275373       19      -0.01023014      -0.00264332       0.00056541
O        3.72591900       4.65818176       1.78238482       20      -0.00419447      -0.00245655       0.00939865
O        1.81864809       2.74580084       1.52995610       21       0.00419447      -0.00936774       0.00257189
O        1.81864809       5.83298191       0.25242872       22       0.00419447       0.00691119       0.00682675
O       -2.12088851       5.53147388       3.49570896       23      -0.00511778      -0.00278299      -0.00883323
O        3.14980288       1.80453226       6.69031119       24      -0.00091790      -0.00575275       0.00883323
O        4.89317205      -1.61087289       3.29497114       25       0.00511778       0.00278299       0.00883323
O        5.92208642       3.10525688       1.61295523       26      -0.00091790      -0.00477343      -0.00939865
O        3.42367857       2.22193632       3.64776877       27      -0.00511778      -0.00625831       0.00682675
O        0.65139503       4.00839276       6.43788247       28      -0.00511778       0.00904130       0.00200648
O        2.12088851      -0.08779177       0.35279763       29       0.00511778      -0.00904130      -0.00200648
O       -3.14980288       0.81534411       5.17772487       30       0.00091790       0.00477343       0.00939865
O        4.75483337       0.66960431       1.86538395       31      -0.01023014       0.00083200      -0.00257189
O        0.95363545       1.17480015       5.26072400       32      -0.00419447       0.00936774      -0.00257189
O        3.14980288      -0.98918815       5.27809378       33      -0.00091790       0.01052618       0.00056541
O        1.98254982       0.01002845       3.04254242       34      -0.01023014       0.00181132       0.00200648
O        0.95363545      -1.91238092       6.53825138       35      -0.00419447      -0.00691119      -0.00682675
O       -0.65139503       1.69866467       3.14291132       36       0.00511778       0.00625831      -0.00682675
O       -0.95363546      -0.73758077       5.00829528       37       0.00419447       0.00245655      -0.00939865
O       -0.37751934       4.90978914       1.51258632       38       0.00091790      -0.01052618      -0.00056541
O        3.56201726       4.60023375       4.90792637       39       0.01023014       0.00264332      -0.00056541
40
Lattice="8.31685062905913 6.518513621886412e-10 -5.28631509528587e-15 -2.772283543634282 7.841201970347139 -1.1290427561092693e-09 -2.77228354271242 -3.920600984521714 6.79068010327791" Properties=species:S:1:pos:R:3:spacegroup_kinds:I:1:forces:R:3 spacegroup="P 1" unit_cell=conventional occupancy="_JSON {\"0\": {\"In\": 1}, \"1\": {\"In\": 1}, \"2\": {\"In\": 1}, \"3\": {\"In\": 1}, \"4\": {\"In\": 1}, \"5\": {\"In\": 1}, \"6\": {\"In\": 1}, \"7\": {\"In\": 1}, \"8\": {\"In\": 1}, \"9\": {\"In\": 1}, \"10\": {\"In\": 1}, \"11\": {\"In\": 1}, \"12\": {\"In\": 1}, \"13\": {\"In\": 1}, \"14\": {\"In\": 1}, \"15\": {\"In\": 1}, \"16\": {\"O\": 1}, \"17\": {\"O\": 1}, \"18\": {\"O\": 1}, \"19\": {\"O\": 1}, \"20\": {\"O\": 1}, \"21\": {\"O\": 1}, \"22\": {\"O\": 1}, \"23\": {\"O\": 1}, \"24\": {\"O\": 1}, \"25\": {\"O\": 1}, \"26\": {\"O\": 1}, \"27\": {\"O\": 1}, \"28\": {\"O\": 1}, \"29\": {\"O\": 1}, \"30\": {\"O\": 1}, \"31\": {\"O\": 1}, \"32\": {\"O\": 1}, \"33\": {\"O\": 1}, \"34\": {\"O\": 1}, \"35\": {\"O\": 1}, \"36\": {\"O\": 1}, \"37\": {\"O\": 1}, \"38\": {\"O\": 1}, \"39\": {\"O\": 1}}" n_minim_iter=5 energy=-45144.50274382801 stress="-0.1924242353929802 -2.9484248621689667e-13 -5.253375178020831e-13 -2.9484248621689667e-13 -0.19242423539287853 1.0140088157730567e-13 -5.253375178020831e-13 1.0140088157730567e-13 -0.19242423539329317" free_energy=-45144.50274382801 pbc="T T T"
In      -3.95345270       2.79551322       5.34404923        0      -0.00039771       0.00028122      -0.00048709
In       6.72573624       1.12508777       1.44663087        1       0.00039771      -0.00028122       0.00048709
In       1.18116916      -0.83521272       4.84197092        2       0.00039771      -0.00028122       0.00048709
In      -1.38614177      -1.96030049       3.39534005        3       0.00000000       0.00000000       0.00000000
In      -1.18116916       3.77566346       3.14430089        4      -0.00039771       0.00028122       0.00048709
In       4.36339793      -2.65057569       5.09301008        5      -0.00039771      -0.00056245      -0.00000000
In      -1.18116916       1.27002530       5.09301007        6      -0.00039771      -0.00056245      -0.00000000
In      -1.59111439       6.57117668       1.69767002        7       0.00039771       0.00056245       0.00000000
In       3.95345270       0.14493753       3.64637921        8       0.00039771      -0.00028122      -0.00048709
In      -1.38614177       3.92060099      -0.00000000        9      -0.00000000       0.00000000      -0.00000000
In       3.95345270       6.02583900       0.25103915       10       0.00039771      -0.00028122      -0.00048709
In      -1.18116916      -2.10523801       6.53964094       11      -0.00039771       0.00028122       0.00048709
In       3.95345270       2.65057569       1.69767002       12       0.00039771       0.00056245       0.00000000
In       1.59111438       4.75581371       1.94870918       13      -0.00039771       0.00028122      -0.00048709
In       4.15842531       0.00000000      -0.00000000       14       0.00000000      -0.00000000       0.00000000
In       1.38614177       1.96030049       3.39534005       15       0.00000000      -0.00000000      -0.00000000
O        0.79047752       3.91065565       3.74796458       16       0.00393741      -0.00062882       0.00170335
O       -1.98180602       3.25080521       4.92531072       17       0.00393741       0.00178955      -0.00030710
O       -0.37737356       2.11630014       0.09965105       18       0.00240682       0.00287184      -0.00218168
O       -0.79047753      -0.67974111       1.88259520       19      -0.00393741       0.00116074       0.00139625
O        3.72549055       4.65787566       1.78294415       20       0.00037474      -0.00242033       0.00357793
O        1.81907653       2.74516339       1.52997067       21      -0.00037474      -0.00430874      -0.00030710
O        1.81907653       5.83331325       0.25297348       22      -0.00037474       0.00188841       0.00388503
O       -2.12105809       5.53125930       3.49499110       23      -0.00190532      -0.00322645      -0.00218168
O        3.14965710       1.80430085       6.69102905       24      -0.00240682      -0.00287184       0.00218168
O        4.89334163      -1.61065831       3.29568900       25       0.00190532       0.00322645       0.00218168
O        5.92194064       3.10475090       1.61239589       26      -0.00240682      -0.00045347      -0.00357793
O        3.42350900       2.22142192       3.64831353       27      -0.00190532      -0.00027617       0.00388503
O        0.65122545       4.00912174       6.43805557       28      -0.00190532       0.00350262      -0.00170335
O        2.12105809      -0.08852075       0.35262453       29       0.00190532      -0.00350262       0.00170335
O       -3.14965710       0.81585009       5.17828420       30       0.00240682       0.00045347       0.00357793
O        4.75408956       0.66979578       1.86536938       31      -0.00393741      -0.00178955       0.00030710
O        0.95320701       1.17543760       5.26070943       32       0.00037474       0.00430874       0.00030710
O        3.14965710      -0.98845076       5.27793525       33      -0.00240682       0.00332531       0.00139625
O        1.98180602       0.00994534       3.04271552       34      -0.00393741       0.00062882      -0.00170335
O        0.95320701      -1.91271226       6.53770662       35       0.00037474      -0.00188841      -0.00388503
O       -0.65122546       1.69917906       3.14236657       36       0.00190532       0.00027617      -0.00388503
O       -0.95320701      -0.73727467       5.00773595       37      -0.00037474       0.00242033      -0.00357793
O       -0.37737356       4.90905175       1.51274484       38       0.00240682      -0.00332531      -0.00139625
O        3.56276107       4.60034210       4.90808490       39       0.00393741      -0.00116074      -0.00139625
