40
Lattice="8.940919963543129 7.007620650201726e-10 -6.647187460531956e-15 -2.9803066551750628 8.429580181456446 -1.2137595895693532e-09 -2.9803066541840266 -4.2147900900274555 7.300230581188298" Properties=species:S:1:pos:R:3:spacegroup_kinds:I:1:forces:R:3 spacegroup="P 1" unit_cell=conventional occupancy="_JSON {\"0\": {\"In\": 1}, \"1\": {\"In\": 1}, \"2\": {\"In\": 1}, \"3\": {\"In\": 1}, \"4\": {\"In\": 1}, \"5\": {\"In\": 1}, \"6\": {\"In\": 1}, \"7\": {\"In\": 1}, \"8\": {\"In\": 1}, \"9\": {\"In\": 1}, \"10\": {\"In\": 1}, \"11\": {\"In\": 1}, \"12\": {\"In\": 1}, \"13\": {\"In\": 1}, \"14\": {\"In\": 1}, \"15\": {\"In\": 1}, \"16\": {\"O\": 1}, \"17\": {\"O\": 1}, \"18\": {\"O\": 1}, \"19\": {\"O\": 1}, \"20\": {\"O\": 1}, \"21\": {\"O\": 1}, \"22\": {\"O\": 1}, \"23\": {\"O\": 1}, \"24\": {\"O\": 1}, \"25\": {\"O\": 1}, \"26\": {\"O\": 1}, \"27\": {\"O\": 1}, \"28\": {\"O\": 1}, \"29\": {\"O\": 1}, \"30\": {\"O\": 1}, \"31\": {\"O\": 1}, \"32\": {\"O\": 1}, \"33\": {\"O\": 1}, \"34\": {\"O\": 1}, \"35\": {\"O\": 1}, \"36\": {\"O\": 1}, \"37\": {\"O\": 1}, \"38\": {\"O\": 1}, \"39\": {\"O\": 1}}" n_minim_iter=1 energy=-45151.8453774253 stress="0.017915238538063167 -3.7062531047053224e-13 1.6533821444598923e-13 -3.7062531047053224e-13 0.01791523853806781 -2.062539413267399e-13 1.6533821444598923e-13 -2.062539413267399e-13 0.01791523853809305" free_energy=-45151.8453774253 pbc="T T T"
In      -4.27082002       3.01992580       5.71968095        0       0.02523421      -0.01784328       0.03090547
In       7.25112667       1.19486430       1.58054962        1      -0.02523421       0.01784328      -0.03090547
In       1.29051337      -0.91253075       5.23066492        2      -0.02523421       0.01784328      -0.03090547
In      -1.49015333      -2.10739504       3.65011529        3       0.00000000      -0.00000000       0.00000000
In      -1.29051337       4.07362332       3.40560727        4       0.02523421      -0.01784328      -0.03090547
In       4.67009994      -2.87875903       5.47517293        5       0.02523421       0.03568657       0.00000000
In      -1.29051337       1.33603106       5.47517293        6       0.02523421       0.03568657      -0.00000000
In      -1.68979329       7.09354912       1.82505764        7      -0.02523421      -0.03568657       0.00000000
In       4.27082002       0.14116677       3.89462331        8      -0.02523421       0.01784328       0.03090547
In      -1.49015333       4.21479009      -0.00000000        9      -0.00000000       0.00000000       0.00000000
In       4.27082002       6.46335191       0.24450801       10      -0.02523421       0.01784328       0.03090547
In      -1.29051337      -2.24856181       7.05572256       11       0.02523421      -0.01784328      -0.03090547
In       4.27082002       2.87875903       1.82505764       12      -0.02523421      -0.03568657       0.00000000
In       1.68979329       5.12732085       2.06956566       13       0.02523421      -0.01784328       0.03090547
In       4.47045998       0.00000000      -0.00000000       14      -0.00000000      -0.00000000       0.00000000
In       1.49015333       2.10739505       3.65011529       15      -0.00000000       0.00000000      -0.00000000
O        0.87232109       4.21342410       3.97550071       16       0.01337663       0.01675109      -0.05184214
O       -2.10798557       3.44356761       5.31366320       17       0.01337663      -0.05327215       0.01141420
O       -0.43762970       2.26244765       0.05919240       18      -0.02997351      -0.02261897      -0.04167867
O       -0.87232109      -0.77258847       1.98893334       19      -0.01337663      -0.03652107      -0.04042793
O        3.94928853       5.02155332       1.92974093       20      -0.05468434       0.01245788       0.00125073
O        2.01132478       2.94696703       1.66354791       21       0.05468434       0.00514577       0.01141420
O        2.01132478       6.28937638       0.26619302       22       0.05468434       0.00731210      -0.01016347
O       -2.27893267       5.98063716       3.70930769       23       0.01133420       0.03579895      -0.04167867
O        3.41793635       1.95234245       7.24103818       24       0.02997351       0.02261897       0.04167867
O        5.25923932      -1.76584707       3.59092289       25      -0.01133420      -0.03579895       0.04167867
O        6.39824301       3.28988100       1.72037435       26       0.02997351      -0.04740427      -0.00125073
O        3.68168064       2.32943116       3.91630831       27       0.01133420      -0.05399426      -0.01016347
O        0.70137399       4.33430196       6.97484515       28       0.01133420       0.01819531       0.05184214
O        2.27893266      -0.11951186       0.32538542       29      -0.01133420      -0.01819531      -0.05184214
O       -3.41793636       0.92490910       5.57985622       30      -0.02997351       0.04740427       0.00125073
O        5.08829222       0.77122249       1.98656737       31      -0.01337663       0.05327215      -0.01141420
O        0.96898187       1.26782306       5.63668266       32      -0.05468434      -0.00514577      -0.01141420
O        3.41793635      -1.02743334       5.63904863       33       0.02997351       0.02478530      -0.04042793
O        2.10798557       0.00136599       3.32472986       34      -0.01337663      -0.01675109       0.05184214
O        0.96898188      -2.07458628       7.03403756       35      -0.05468434      -0.00731210       0.01016347
O       -0.70137399       1.88535893       3.38392226       36      -0.01133420       0.05399426       0.01016347
O       -0.96898188      -0.80676322       5.37048964       37       0.05468434      -0.01245788      -0.00125073
O       -0.43762970       5.24222344       1.66118195       38      -0.02997351      -0.02478530       0.04042793
O        3.85262774       4.98737857       5.31129724       39       0.01337663       0.03652107       0.04042793
40
Lattice="8.94091996354313 7.007620650201729e-10 -6.647187460531953e-15 -2.9803066551750628 8.429580181456448 -1.213759589569353e-09 -2.9803066541840266 -4.214790090027456 7.300230581188298" Properties=species:S:1:pos:R:3:spacegroup_kinds:I:1:forces:R:3 spacegroup="P 1" unit_cell=conventional occupancy="_JSON {\"0\": {\"In\": 1}, \"1\": {\"In\": 1}, \"2\": {\"In\": 1}, \"3\": {\"In\": 1}, \"4\": {\"In\": 1}, \"5\": {\"In\": 1}, \"6\": {\"In\": 1}, \"7\": {\"In\": 1}, \"8\": {\"In\": 1}, \"9\": {\"In\": 1}, \"10\": {\"In\": 1}, \"11\": {\"In\": 1}, \"12\": {\"In\": 1}, \"13\": {\"In\": 1}, \"14\": {\"In\": 1}, \"15\": {\"In\": 1}, \"16\": {\"O\": 1}, \"17\": {\"O\": 1}, \"18\": {\"O\": 1}, \"19\": {\"O\": 1}, \"20\": {\"O\": 1}, \"21\": {\"O\": 1}, \"22\": {\"O\": 1}, \"23\": {\"O\": 1}, \"24\": {\"O\": 1}, \"25\": {\"O\": 1}, \"26\": {\"O\": 1}, \"27\": {\"O\": 1}, \"28\": {\"O\": 1}, \"29\": {\"O\": 1}, \"30\": {\"O\": 1}, \"31\": {\"O\": 1}, \"32\": {\"O\": 1}, \"33\": {\"O\": 1}, \"34\": {\"O\": 1}, \"35\": {\"O\": 1}, \"36\": {\"O\": 1}, \"37\": {\"O\": 1}, \"38\": {\"O\": 1}, \"39\": {\"O\": 1}}" n_minim_iter=2 energy=-45151.849335949395 stress="0.017411457516567443 -1.346900355892367e-13 1.0669803290601416e-14 -1.346900355892367e-13 0.017411457516217508 4.292740678062588e-14 1.0669803290601416e-14 4.292740678062588e-14 0.01741145751578587" free_energy=-45151.849335949395 pbc="T T T"
In      -4.26901758       3.01865128       5.72188848        0      -0.00579616       0.00409851      -0.00709882
In       7.24932423       1.19613882       1.57834209        1       0.00579616      -0.00409851       0.00709882
In       1.28871092      -0.91125623       5.22845738        2       0.00579616      -0.00409851       0.00709882
In      -1.49015333      -2.10739504       3.65011529        3      -0.00000000      -0.00000000       0.00000000
In      -1.28871092       4.07234880       3.40339974        4      -0.00579616       0.00409851       0.00709882
In       4.67190239      -2.87620998       5.47517293        5      -0.00579616      -0.00819701       0.00000000
In      -1.28871092       1.33858011       5.47517293        6      -0.00579616      -0.00819701       0.00000000
In      -1.69159573       7.09100008       1.82505764        7       0.00579616       0.00819701       0.00000000
In       4.26901758       0.14244129       3.89683084        8       0.00579616      -0.00409851      -0.00709882
In      -1.49015333       4.21479009      -0.00000000        9      -0.00000000      -0.00000000      -0.00000000
In       4.26901758       6.46462643       0.24671555       10       0.00579616      -0.00409851      -0.00709882
In      -1.28871092      -2.24983633       7.05351503       11      -0.00579616       0.00409851       0.00709882
In       4.26901758       2.87620999       1.82505764       12       0.00579616       0.00819701      -0.00000000
In       1.69159573       5.12604633       2.07177319       13      -0.00579616       0.00409851      -0.00709882
In       4.47045998       0.00000000      -0.00000000       14       0.00000000       0.00000000      -0.00000000
In       1.49015333       2.10739505       3.65011529       15      -0.00000000      -0.00000000       0.00000000
O        0.87327656       4.21462061       3.97179770       16       0.02284202       0.01232423      -0.00418061
O       -2.10703009       3.43976246       5.31447850       17       0.02284202      -0.00978263      -0.00858279
O       -0.43977067       2.26083201       0.05621535       18       0.01001025      -0.00070919      -0.02429844
O       -0.87327656      -0.77519712       1.98604563       19      -0.02284202       0.00254160      -0.01276340
O        3.94538250       5.02244316       1.92983027       20      -0.01683716      -0.01657031       0.01153504
O        2.01523080       2.94733459       1.66436321       21       0.01683716      -0.01827479      -0.00858279
O        2.01523080       6.28989867       0.26546706       22       0.01683716       0.00170448       0.02011783
O       -2.27812308       5.98319423       3.70633064       23       0.00400538      -0.00920136      -0.02429844
O        3.42007732       1.95395809       7.24401522       24      -0.01001025       0.00070919       0.02429844
O        5.25842973      -1.76840413       3.59389993       25      -0.00400538       0.00920136       0.02429844
O        6.40038397       3.28649498       1.72028501       26      -0.01001025      -0.02139766      -0.01153504
O        3.68249023       2.32557443       3.91558235       27       0.00400538      -0.01644238       0.02011783
O        0.70218357       4.33560162       6.97854816       28       0.00400538       0.02564374       0.00418061
O        2.27812308      -0.12081153       0.32168241       29      -0.00400538      -0.02564374      -0.00418061
O       -3.42007732       0.92829512       5.57994556       30       0.01001025       0.02139766       0.01153504
O        5.08733675       0.77502764       1.98575207       31      -0.02284202       0.00978263       0.00858279
O        0.96507585       1.26745551       5.63586736       32      -0.01683716       0.01827479       0.00858279
O        3.42007732      -1.02566296       5.63616092       33      -0.01001025       0.02068847      -0.01276340
O        2.10703009       0.00016949       3.32843287       34      -0.02284202      -0.01232423       0.00418061
O        0.96507585      -2.07510858       7.03476352       35      -0.01683716      -0.00170448      -0.02011783
O       -0.70218358       1.88921567       3.38464823       36      -0.00400538       0.01644238      -0.02011783
O       -0.96507585      -0.80765307       5.37040030       37       0.01683716       0.01657031      -0.01153504
O       -0.43977067       5.24045306       1.66406966       38       0.01001025      -0.02068847       0.01276340
O        3.85358321       4.98998721       5.31418495       39       0.02284202      -0.00254160       0.01276340
40
Lattice="8.940919963543134 7.007620650201736e-10 -6.647187460531958e-15 -2.980306655175064 8.429580181456451 -1.2137595895693536e-09 -2.980306654184028 -4.214790090027458 7.300230581188301" Properties=species:S:1:pos:R:3:spacegroup_kinds:I:1:forces:R:3 spacegroup="P 1" unit_cell=conventional occupancy="_JSON {\"0\": {\"In\": 1}, \"1\": {\"In\": 1}, \"2\": {\"In\": 1}, \"3\": {\"In\": 1}, \"4\": {\"In\": 1}, \"5\": {\"In\": 1}, \"6\": {\"In\": 1}, \"7\": {\"In\": 1}, \"8\": {\"In\": 1}, \"9\": {\"In\": 1}, \"10\": {\"In\": 1}, \"11\": {\"In\": 1}, \"12\": {\"In\": 1}, \"13\": {\"In\": 1}, \"14\": {\"In\": 1}, \"15\": {\"In\": 1}, \"16\": {\"O\": 1}, \"17\": {\"O\": 1}, \"18\": {\"O\": 1}, \"19\": {\"O\": 1}, \"20\": {\"O\": 1}, \"21\": {\"O\": 1}, \"22\": {\"O\": 1}, \"23\": {\"O\": 1}, \"24\": {\"O\": 1}, \"25\": {\"O\": 1}, \"26\": {\"O\": 1}, \"27\": {\"O\": 1}, \"28\": {\"O\": 1}, \"29\": {\"O\": 1}, \"30\": {\"O\": 1}, \"31\": {\"O\": 1}, \"32\": {\"O\": 1}, \"33\": {\"O\": 1}, \"34\": {\"O\": 1}, \"35\": {\"O\": 1}, \"36\": {\"O\": 1}, \"37\": {\"O\": 1}, \"38\": {\"O\": 1}, \"39\": {\"O\": 1}}" n_minim_iter=3 energy=-45151.849905715215 stress="0.01715187855532591 -7.793138363714322e-14 -4.191382843616894e-13 -7.793138363714322e-14 0.017151878554650102 2.285925776671363e-13 -4.191382843616894e-13 2.285925776671363e-13 0.017151878555105218" free_energy=-45151.849905715215 pbc="T T T"
In      -4.26851567       3.01829638       5.72250319        0      -0.01354751       0.00957954      -0.01659224
In       7.24882233       1.19649372       1.57772739        1       0.01354751      -0.00957954       0.01659224
In       1.28820902      -0.91090133       5.22784268        2       0.01354751      -0.00957954       0.01659224
In      -1.49015333      -2.10739504       3.65011529        3       0.00000000      -0.00000000       0.00000000
In      -1.28820902       4.07199390       3.40278503        4      -0.01354751       0.00957954       0.01659224
In       4.67240429      -2.87550018       5.47517293        5      -0.01354751      -0.01915907       0.00000000
In      -1.28820902       1.33928991       5.47517293        6      -0.01354751      -0.01915907       0.00000000
In      -1.69209764       7.09029028       1.82505764        7       0.01354751       0.01915907       0.00000000
In       4.26851567       0.14279619       3.89744554        8       0.01354751      -0.00957954      -0.01659224
In      -1.49015333       4.21479009      -0.00000000        9      -0.00000000       0.00000000       0.00000000
In       4.26851567       6.46498133       0.24733025       10       0.01354751      -0.00957954      -0.01659224
In      -1.28820902      -2.25019123       7.05290032       11      -0.01354751       0.00957954       0.01659224
In       4.26851567       2.87550019       1.82505764       12       0.01354751       0.01915907      -0.00000000
In       1.69209763       5.12569143       2.07238790       13      -0.01354751       0.00957954      -0.01659224
In       4.47045998       0.00000000      -0.00000000       14       0.00000000      -0.00000000      -0.00000000
In       1.49015333       2.10739505       3.65011529       15      -0.00000000      -0.00000000       0.00000000
O        0.87467366       4.21565961       3.97006439       16       0.02248988       0.00186201       0.01350699
O       -2.10563299       3.43774186       5.31444536       17       0.02248988       0.01076639      -0.00836605
O       -0.44023042       2.26012441       0.05390803       18       0.01940280       0.01294929      -0.01214693
O       -0.87467366      -0.77617871       1.98427917       19      -0.02248988       0.01262841       0.00514095
O        3.94301177       5.02209263       1.93037113       20       0.00265403      -0.01964144       0.01728788
O        2.01760153       2.94669092       1.66433007       21      -0.00265403      -0.02479246      -0.00836605
O        2.01760153       6.29019180       0.26604106       22      -0.00265403       0.00515102       0.02565393
O       -2.27760921       5.98386356       3.70402332       23      -0.00574110      -0.02260957      -0.01214693
O        3.42053708       1.95466568       7.24632254       24      -0.01940280      -0.01294929       0.01214693
O        5.25791586      -1.76907346       3.59620725       25       0.00574110       0.02260957       0.01214693
O        6.40084373       3.28414298       1.71974415       26      -0.01940280      -0.00404491      -0.01728788
O        3.68300410       2.32324157       3.91615635       27      -0.00574110       0.00078523       0.02565393
O        0.70269745       4.33726515       6.98028148       28      -0.00574110       0.02182434      -0.01350699
O        2.27760920      -0.12247506       0.31994910       29       0.00574110      -0.02182434       0.01350699
O       -3.42053708       0.93064711       5.58048643       30       0.01940280       0.00404491       0.01728788
O        5.08593964       0.77704823       1.98578522       31      -0.02248988      -0.01076639       0.00836605
O        0.96270512       1.26809918       5.63590051       32       0.00265403       0.02479246       0.00836605
O        3.42053708      -1.02401857       5.63439446       33      -0.01940280       0.01699420       0.00514095
O        2.10563299      -0.00086951       3.33016619       34      -0.02248988      -0.00186201      -0.01350699
O        0.96270512      -2.07540171       7.03418951       35       0.00265403      -0.00515102      -0.02565393
O       -0.70269745       1.89154853       3.38407422       36       0.00574110      -0.00078523      -0.02565393
O       -0.96270512      -0.80730253       5.36985944       37      -0.00265403       0.01964144      -0.01728788
O       -0.44023042       5.23880866       1.66583611       38       0.01940280      -0.01699420      -0.00514095
O        3.85498032       4.99096881       5.31595140       39       0.02248988      -0.01262841      -0.00514095
40
Lattice="8.940919963543136 7.007620650201738e-10 -6.6471874605319466e-15 -2.980306655175065 8.429580181456453 -1.213759589569354e-09 -2.980306654184029 -4.214790090027459 7.300230581188303" Properties=species:S:1:pos:R:3:spacegroup_kinds:I:1:forces:R:3 spacegroup="P 1" unit_cell=conventional occupancy="_JSON {\"0\": {\"In\": 1}, \"1\": {\"In\": 1}, \"2\": {\"In\": 1}, \"3\": {\"In\": 1}, \"4\": {\"In\": 1}, \"5\": {\"In\": 1}, \"6\": {\"In\": 1}, \"7\": {\"In\": 1}, \"8\": {\"In\": 1}, \"9\": {\"In\": 1}, \"10\": {\"In\": 1}, \"11\": {\"In\": 1}, \"12\": {\"In\": 1}, \"13\": {\"In\": 1}, \"14\": {\"In\": 1}, \"15\": {\"In\": 1}, \"16\": {\"O\": 1}, \"17\": {\"O\": 1}, \"18\": {\"O\": 1}, \"19\": {\"O\": 1}, \"20\": {\"O\": 1}, \"21\": {\"O\": 1}, \"22\": {\"O\": 1}, \"23\": {\"O\": 1}, \"24\": {\"O\": 1}, \"25\": {\"O\": 1}, \"26\": {\"O\": 1}, \"27\": {\"O\": 1}, \"28\": {\"O\": 1}, \"29\": {\"O\": 1}, \"30\": {\"O\": 1}, \"31\": {\"O\": 1}, \"32\": {\"O\": 1}, \"33\": {\"O\": 1}, \"34\": {\"O\": 1}, \"35\": {\"O\": 1}, \"36\": {\"O\": 1}, \"37\": {\"O\": 1}, \"38\": {\"O\": 1}, \"39\": {\"O\": 1}}" n_minim_iter=4 energy=-45151.85095063668 stress="0.017133908101882846 -2.947490910623098e-14 -1.107024250633964e-13 -2.947490910623098e-14 0.017133908101601907 -6.12668569761198e-13 -1.107024250633964e-13 -6.12668569761198e-13 0.01713390810129871" free_energy=-45151.85095063668 pbc="T T T"
In      -4.26947140       3.01897218       5.72133267        0       0.00619787      -0.00438256       0.00759081
In       7.24977805       1.19581792       1.57889790        1      -0.00619787       0.00438256      -0.00759081
In       1.28916474      -0.91157713       5.22901319        2      -0.00619787       0.00438256      -0.00759081
In      -1.49015333      -2.10739504       3.65011529        3      -0.00000000      -0.00000000      -0.00000000
In      -1.28916474       4.07266970       3.40395555        4       0.00619787      -0.00438256      -0.00759081
In       4.67144857      -2.87685178       5.47517293        5       0.00619787       0.00876511      -0.00000000
In      -1.28916474       1.33793831       5.47517293        6       0.00619787       0.00876511       0.00000000
In      -1.69114191       7.09164188       1.82505764        7      -0.00619787      -0.00876511       0.00000000
In       4.26947140       0.14212039       3.89627503        8      -0.00619787       0.00438256       0.00759081
In      -1.49015333       4.21479009      -0.00000000        9       0.00000000      -0.00000000      -0.00000000
In       4.26947139       6.46430553       0.24615974       10      -0.00619787       0.00438256       0.00759081
In      -1.28916474      -2.24951543       7.05407084       11       0.00619787      -0.00438256      -0.00759081
In       4.26947140       2.87685179       1.82505764       12      -0.00619787      -0.00876511      -0.00000000
In       1.69114191       5.12636722       2.07121738       13       0.00619787      -0.00438256       0.00759081
In       4.47045998       0.00000000      -0.00000000       14      -0.00000000       0.00000000       0.00000000
In       1.49015333       2.10739505       3.65011529       15      -0.00000000       0.00000000      -0.00000000
O        0.87754063       4.21669771       3.97016477       16       0.00891084      -0.01604200      -0.00029523
O       -2.10276603       3.43730974       5.31349615       17       0.00891084       0.00776533       0.01404039
O       -0.43870344       2.26063981       0.05131768       18      -0.00483304       0.01748372      -0.00279236
O       -0.87754063      -0.77557273       1.98343034       19      -0.00891084      -0.00827667       0.01374517
O        3.94164871       5.01999110       1.93211265       20       0.00435094       0.00666450       0.01653752
O        2.01896460       2.94413195       1.66338086       21      -0.00435094      -0.01098966       0.01404039
O        2.01896460       6.29064924       0.26873179       22      -0.00435094       0.01765417       0.00249713
O       -2.27758613       5.98225211       3.70143297       23      -0.01809482      -0.00127127      -0.00279236
O        3.41901009       1.95415029       7.24891289       24       0.00483304      -0.01748372       0.00279236
O        5.25789278      -1.76746201       3.59879760       25       0.01809482       0.00127127       0.00279236
O        6.39931675       3.28215737       1.71800263       26       0.00483304       0.00632361      -0.01653752
O        3.68302718       2.32180398       3.91884708       27      -0.01809482      -0.00178262       0.00249713
O        0.70272053       4.34031419       6.98018110       28      -0.01809482       0.00305389       0.00029523
O        2.27758613      -0.12552409       0.32004948       29       0.01809482      -0.00305389      -0.00029523
O       -3.41901010       0.93263273       5.58222794       30      -0.00483304      -0.00632361       0.01653752
O        5.08307268       0.77748035       1.98673443       31      -0.00891084      -0.00776533      -0.01404039
O        0.96134206       1.27065814       5.63684972       32       0.00435094       0.01098966      -0.01404039
O        3.41901009      -1.02151756       5.63354563       33       0.00483304       0.01116011       0.01374517
O        2.10276602      -0.00190761       3.33006581       34      -0.00891084       0.01604200       0.00029523
O        0.96134206      -2.07585915       7.03149878       35       0.00435094      -0.01765417      -0.00249713
O       -0.70272053       1.89298611       3.38138349       36       0.01809482       0.00178262      -0.00249713
O       -0.96134206      -0.80520101       5.36811792       37      -0.00435094      -0.00666450      -0.01653752
O       -0.43870344       5.23630765       1.66668495       38      -0.00483304      -0.01116011      -0.01374517
O        3.85784728       4.99036283       5.31680024       39       0.00891084       0.00827667      -0.01374517
40
Lattice="8.940919963543136 7.007620650201738e-10 -6.64718746053193e-15 -2.980306655175065 8.429580181456453 -1.213759589569354e-09 -2.980306654184029 -4.214790090027459 7.300230581188303" Properties=species:S:1:pos:R:3:spacegroup_kinds:I:1:forces:R:3 spacegroup="P 1" unit_cell=conventional occupancy="_JSON {\"0\": {\"In\": 1}, \"1\": {\"In\": 1}, \"2\": {\"In\": 1}, \"3\": {\"In\": 1}, \"4\": {\"In\": 1}, \"5\": {\"In\": 1}, \"6\": {\"In\": 1}, \"7\": {\"In\": 1}, \"8\": {\"In\": 1}, \"9\": {\"In\": 1}, \"10\": {\"In\": 1}, \"11\": {\"In\": 1}, \"12\": {\"In\": 1}, \"13\": {\"In\": 1}, \"14\": {\"In\": 1}, \"15\": {\"In\": 1}, \"16\": {\"O\": 1}, \"17\": {\"O\": 1}, \"18\": {\"O\": 1}, \"19\": {\"O\": 1}, \"20\": {\"O\": 1}, \"21\": {\"O\": 1}, \"22\": {\"O\": 1}, \"23\": {\"O\": 1}, \"24\": {\"O\": 1}, \"25\": {\"O\": 1}, \"26\": {\"O\": 1}, \"27\": {\"O\": 1}, \"28\": {\"O\": 1}, \"29\": {\"O\": 1}, \"30\": {\"O\": 1}, \"31\": {\"O\": 1}, \"32\": {\"O\": 1}, \"33\": {\"O\": 1}, \"34\": {\"O\": 1}, \"35\": {\"O\": 1}, \"36\": {\"O\": 1}, \"37\": {\"O\": 1}, \"38\": {\"O\": 1}, \"39\": {\"O\": 1}}" n_minim_iter=5 energy=-45151.85141795812 stress="0.01705321228857244 -7.571660871552929e-14 1.1069152875820625e-13 -7.571660871552929e-14 0.017053212287524006 -1.6052598232881434e-13 1.1069152875820625e-13 -1.6052598232881434e-13 0.017053212287110212" free_energy=-45151.85141795812 pbc="T T T"
In      -4.26918996       3.01877317       5.72167736        0       0.00501864      -0.00354871       0.00614655
In       7.24949661       1.19601692       1.57855321        1      -0.00501864       0.00354871      -0.00614655
In       1.28888330      -0.91137812       5.22866850        2      -0.00501864       0.00354871      -0.00614655
In      -1.49015333      -2.10739504       3.65011529        3      -0.00000000       0.00000000      -0.00000000
In      -1.28888331       4.07247069       3.40361086        4       0.00501864      -0.00354871      -0.00614655
In       4.67173000      -2.87645377       5.47517293        5       0.00501864       0.00709742       0.00000000
In      -1.28888330       1.33833632       5.47517293        6       0.00501864       0.00709742      -0.00000000
In      -1.69142335       7.09124386       1.82505764        7      -0.00501864      -0.00709742      -0.00000000
In       4.26918996       0.14231940       3.89661972        8      -0.00501864       0.00354871       0.00614655
In      -1.49015333       4.21479009      -0.00000000        9       0.00000000      -0.00000000       0.00000000
In       4.26918996       6.46450454       0.24650443       10      -0.00501864       0.00354871       0.00614655
In      -1.28888330      -2.24971444       7.05372615       11       0.00501864      -0.00354871      -0.00614655
In       4.26918996       2.87645377       1.82505764       12      -0.00501864      -0.00709742       0.00000000
In       1.69142335       5.12616822       2.07156207       13       0.00501864      -0.00354871       0.00614655
In       4.47045998       0.00000000      -0.00000000       14       0.00000000       0.00000000       0.00000000
In       1.49015333       2.10739505       3.65011529       15       0.00000000      -0.00000000      -0.00000000
O        0.87935911       4.21608262       3.96976991       16       0.00407089      -0.00419787       0.00498560
O       -2.10094755       3.43727533       5.31422625       17       0.00407089       0.00641659       0.00114267
O       -0.43870964       2.26189563       0.04981303       18       0.00344879       0.00685648       0.00038075
O       -0.87935911      -0.77622223       1.98376559       19      -0.00407089       0.00221872       0.00612826
O        3.94101011       5.01977189       1.93395255       20       0.00469266      -0.00199889       0.00574751
O        2.01960320       2.94242895       1.66411096       21      -0.00469266      -0.00597694       0.00114267
O        2.01960320       6.29213304       0.26984159       22      -0.00469266       0.00397805       0.00460484
O       -2.27877220       5.98183934       3.69992832       23      -0.00531476      -0.00553704       0.00038075
O        3.41901629       1.95289446       7.25041754       24      -0.00344879      -0.00685648      -0.00038075
O        5.25907885      -1.76704924       3.60030225       25       0.00531476       0.00553704      -0.00038075
O        6.39932294       3.28148222       1.71616273       26      -0.00344879       0.00375798      -0.00574751
O        3.68184111       2.32070730       3.91995688       27      -0.00531476       0.00309826       0.00460484
O        0.70153446       4.34182364       6.98057595       28      -0.00531476       0.00243878      -0.00498560
O        2.27877219      -0.12703354       0.31965462       29       0.00531476      -0.00243878       0.00498560
O       -3.41901629       0.93330788       5.58406785       30       0.00344879      -0.00375798       0.00574751
O        5.08125420       0.77751476       1.98600432       31      -0.00407089      -0.00641659      -0.00114267
O        0.96070345       1.27236115       5.63611961       32       0.00469266       0.00597694      -0.00114267
O        3.41901629      -1.01958658       5.63388088       33      -0.00344879       0.00309850       0.00612826
O        2.10094755      -0.00129253       3.33046066       34      -0.00407089       0.00419787      -0.00498560
O        0.96070345      -2.07734294       7.03038899       35       0.00469266      -0.00397805      -0.00460484
O       -0.70153446       1.89408279       3.38027370       36       0.00531476      -0.00309826      -0.00460484
O       -0.96070346      -0.80498180       5.36627802       37      -0.00469266       0.00199889      -0.00574751
O       -0.43870964       5.23437668       1.66634969       38       0.00344879      -0.00309850      -0.00612826
O        3.85966576       4.99101232       5.31646498       39       0.00407089      -0.00221872      -0.00612826
