40
Lattice="8.14532003933049 6.384057405935976e-10 -7.59636396974486e-15 -2.7151066803787263 7.679481379447558 -1.1057532904840241e-09 -2.715106679475878 -3.839740689085371 6.650625963228323" Properties=species:S:1:pos:R:3:spacegroup_kinds:I:1:forces:R:3 spacegroup="P 1" unit_cell=conventional occupancy="_JSON {\"0\": {\"In\": 1}, \"1\": {\"In\": 1}, \"2\": {\"In\": 1}, \"3\": {\"In\": 1}, \"4\": {\"In\": 1}, \"5\": {\"In\": 1}, \"6\": {\"In\": 1}, \"7\": {\"In\": 1}, \"8\": {\"In\": 1}, \"9\": {\"In\": 1}, \"10\": {\"In\": 1}, \"11\": {\"In\": 1}, \"12\": {\"In\": 1}, \"13\": {\"In\": 1}, \"14\": {\"In\": 1}, \"15\": {\"In\": 1}, \"16\": {\"O\": 1}, \"17\": {\"O\": 1}, \"18\": {\"O\": 1}, \"19\": {\"O\": 1}, \"20\": {\"O\": 1}, \"21\": {\"O\": 1}, \"22\": {\"O\": 1}, \"23\": {\"O\": 1}, \"24\": {\"O\": 1}, \"25\": {\"O\": 1}, \"26\": {\"O\": 1}, \"27\": {\"O\": 1}, \"28\": {\"O\": 1}, \"29\": {\"O\": 1}, \"30\": {\"O\": 1}, \"31\": {\"O\": 1}, \"32\": {\"O\": 1}, \"33\": {\"O\": 1}, \"34\": {\"O\": 1}, \"35\": {\"O\": 1}, \"36\": {\"O\": 1}, \"37\": {\"O\": 1}, \"38\": {\"O\": 1}, \"39\": {\"O\": 1}}" n_minim_iter=4 energy=-45141.47550528687 stress="-0.265145626772334 2.2308262889679073e-13 1.166909442239365e-13 2.2308262889679073e-13 -0.2651456267732869 5.098445012483589e-13 1.166909442239365e-13 5.098445012483589e-13 -0.2651456267733875" free_energy=-45141.47550528687 pbc="T T T"
In      -3.86684123       2.73426965       5.24004498        0       0.00333847      -0.00236065       0.00408877
In       6.58194790       1.10547104       1.41058098        1      -0.00333847       0.00236065      -0.00408877
In       1.15173454      -0.81439931       4.73589396        2      -0.00333847       0.00236065      -0.00408877
In      -1.35755334      -1.91987034       3.32531298        3       0.00000000       0.00000000       0.00000000
In      -1.15173455       3.69420483       3.07323747        4       0.00333847      -0.00236065      -0.00408877
In       4.27847881      -2.58873379       4.98796947        5       0.00333847       0.00472130      -0.00000000
In      -1.15173455       1.25100690       4.98796947        6       0.00333847       0.00472130       0.00000000
In      -1.56337214       6.42847448       1.66265649        7      -0.00333847      -0.00472130       0.00000000
In       3.86684122       0.14553587       3.57738849        8      -0.00333847       0.00236065       0.00408877
In      -1.35755334       3.83974069      -0.00000000        9       0.00000000       0.00000000      -0.00000000
In       3.86684122       5.90514690       0.25207551       10      -0.00333847       0.00236065       0.00408877
In      -1.15173455      -2.06540621       6.39855045       11       0.00333847      -0.00236065      -0.00408877
In       3.86684122       2.58873379       1.66265649       12      -0.00333847      -0.00472130       0.00000000
In       1.56337213       4.65414000       1.91473200       13       0.00333847      -0.00236065       0.00408877
In       4.07266002       0.00000000      -0.00000000       14       0.00000000       0.00000000       0.00000000
In       1.35755334       1.91987035       3.32531298       15       0.00000000       0.00000000       0.00000000
O        0.77412659       3.82994093       3.68010019       16       0.00620939      -0.00517315      -0.00335697
O       -1.94098009       3.19196014       4.81906271       17       0.00620939      -0.00032065       0.00615856
O       -0.36193047       2.07540345       0.10236967       18      -0.00310980       0.00626902      -0.00525508
O       -0.77412659      -0.65758031       1.84853694       19      -0.00620939      -0.00549380       0.00280159
O        3.65640224       4.55642416       1.74616727       20      -0.00237211       0.00245978       0.00805666
O        1.77381112       2.68585721       1.49374973       21       0.00237211      -0.00574739       0.00615856
O        1.77381112       5.71030764       0.25241754       22       0.00237211       0.00820716       0.00189810
O       -2.07735262       5.40904121       3.42768265       23      -0.00694709       0.00084228      -0.00525508
O        3.07703715       1.76433725       6.54825629       24       0.00310980      -0.00626902       0.00525508
O        4.79245930      -1.56930051       3.22294331       25       0.00694709      -0.00084228       0.00525508
O        5.79214383       3.04622680       1.57914571       26       0.00310980      -0.00141652      -0.00805666
O        3.35286074       2.18380999       3.57773052       27      -0.00694709      -0.00497217       0.00189810
O        0.63775406       3.92637087       6.29583875       28      -0.00694709       0.00412989       0.00335697
O        2.07735262      -0.08663018       0.35478721       29       0.00694709      -0.00412989      -0.00335697
O       -3.07703715       0.79351389       5.07148025       30      -0.00310980       0.00141652       0.00805666
O        4.65608677       0.64778055       1.83156325       31      -0.00620939       0.00032065      -0.00615856
O        0.94129556       1.15388348       5.15687623       32      -0.00237211       0.00574739      -0.00615856
O        3.07703715      -0.97082335       5.17384992       33       0.00310980       0.00768554       0.00280159
O        1.94098009       0.00979976       2.97052577       34      -0.00620939       0.00517315       0.00335697
O        0.94129556      -1.87056695       6.39820842       35      -0.00237211      -0.00820716      -0.00189810
O       -0.63775406       1.65593070       3.07289544       36       0.00694709       0.00497217      -0.00189810
O       -0.94129556      -0.71668347       4.90445869       37       0.00237211      -0.00245978      -0.00805666
O       -0.36193047       4.81056405       1.47677604       38      -0.00310980      -0.00768554      -0.00280159
O        3.48923327       4.49732101       4.80208902       39       0.00620939       0.00549380      -0.00280159
