40
Lattice="8.640154259256908 6.771897877979823e-10 -1.1543886718960573e-14 -2.880051420390764 8.146015556065459 -1.1729314882799025e-09 -2.880051419433064 -4.0730077773555315 7.05465641195787" Properties=species:S:1:pos:R:3:spacegroup_kinds:I:1:forces:R:3 spacegroup="P 1" unit_cell=conventional occupancy="_JSON {\"0\": {\"In\": 1}, \"1\": {\"In\": 1}, \"2\": {\"In\": 1}, \"3\": {\"In\": 1}, \"4\": {\"In\": 1}, \"5\": {\"In\": 1}, \"6\": {\"In\": 1}, \"7\": {\"In\": 1}, \"8\": {\"In\": 1}, \"9\": {\"In\": 1}, \"10\": {\"In\": 1}, \"11\": {\"In\": 1}, \"12\": {\"In\": 1}, \"13\": {\"In\": 1}, \"14\": {\"In\": 1}, \"15\": {\"In\": 1}, \"16\": {\"O\": 1}, \"17\": {\"O\": 1}, \"18\": {\"O\": 1}, \"19\": {\"O\": 1}, \"20\": {\"O\": 1}, \"21\": {\"O\": 1}, \"22\": {\"O\": 1}, \"23\": {\"O\": 1}, \"24\": {\"O\": 1}, \"25\": {\"O\": 1}, \"26\": {\"O\": 1}, \"27\": {\"O\": 1}, \"28\": {\"O\": 1}, \"29\": {\"O\": 1}, \"30\": {\"O\": 1}, \"31\": {\"O\": 1}, \"32\": {\"O\": 1}, \"33\": {\"O\": 1}, \"34\": {\"O\": 1}, \"35\": {\"O\": 1}, \"36\": {\"O\": 1}, \"37\": {\"O\": 1}, \"38\": {\"O\": 1}, \"39\": {\"O\": 1}}" n_minim_iter=5 energy=-45151.45693524179 stress="-0.0376775065097923 2.1551653353082633e-13 1.0729197844802444e-13 2.1551653353082633e-13 -0.03767750651005067 3.7626870977396064e-13 1.0729197844802444e-13 3.7626870977396064e-13 -0.03767750650984455" free_energy=-45151.45693524179 pbc="T T T"
In      -4.12354151       2.91578416       5.53169831        0      -0.00140185       0.00099126      -0.00171691
In       7.00359292       1.15722362       1.52295810        1       0.00140185      -0.00099126       0.00171691
In       1.24349008      -0.87928027       5.05028631        2       0.00140185      -0.00099126       0.00171691
In      -1.44002571      -2.03650389       3.52732820        3       0.00000000      -0.00000000      -0.00000000
In      -1.24349009       3.93403611       3.28662220        4      -0.00140185       0.00099126       0.00171691
In       4.51661275      -2.77681248       5.29099231        5      -0.00140185      -0.00198252      -0.00000000
In      -1.24349009       1.29619529       5.29099231        6      -0.00140185      -0.00198252       0.00000000
In      -1.63656134       6.84982027       1.76366410        7       0.00140185       0.00198252      -0.00000000
In       4.12354150       0.13897168       3.76803420        8       0.00140185      -0.00099126      -0.00171691
In      -1.44002571       4.07300778      -0.00000000        9      -0.00000000      -0.00000000      -0.00000000
In       4.12354150       6.24848334       0.24070600       10       0.00140185      -0.00099126      -0.00171691
In      -1.24349009      -2.17547556       6.81395041       11      -0.00140185       0.00099126       0.00171691
In       4.12354150       2.77681249       1.76366410       12       0.00140185       0.00198252      -0.00000000
In       1.63656133       4.95228805       2.00437010       13      -0.00140185       0.00099126      -0.00171691
In       4.32007713       0.00000000      -0.00000000       14      -0.00000000       0.00000000       0.00000000
In       1.44002571       2.03650389       3.52732820       15       0.00000000       0.00000000      -0.00000000
O        0.83338206       4.06862586       3.85626489       16      -0.00467452       0.00439813      -0.00108259
O       -2.04666936       3.34181432       5.13031882       17      -0.00467452      -0.00313662      -0.00326760
O       -0.41571310       2.18855409       0.07316772       18      -0.00036881      -0.00618122       0.00200581
O       -0.83338206      -0.73557537       1.93192730       19       0.00467452       0.00126151      -0.00435019
O        3.83291587       4.85082656       1.85875957       20      -0.00139906      -0.00010346      -0.00635600
O        1.92718696       2.85218416       1.60299061       21       0.00139906       0.00545272      -0.00326760
O        1.92718696       6.07165018       0.25576896       22       0.00139906      -0.00555618      -0.00308840
O       -2.20195962       5.77193170       3.60049593       23       0.00570477       0.00240812       0.00200581
O        3.29576451       1.88445369       6.98148868       24       0.00036881       0.00618122      -0.00200581
O        5.08201103      -1.69892392       3.45416048       25      -0.00570477      -0.00240812      -0.00200581
O        6.17581593       3.19414604       1.66856863       26       0.00036881      -0.00135353       0.00635600
O        3.55814322       2.26865898       3.78309717       27       0.00570477       0.00053302      -0.00308840
O        0.67809180       4.17843266       6.72571972       28       0.00570477      -0.00294114       0.00108259
O        2.20195961      -0.10542487       0.32893669       29      -0.00570477       0.00294114      -0.00108259
O       -3.29576452       0.87886174       5.38608778       30      -0.00036881       0.00135353      -0.00635600
O        4.92672077       0.73119346       1.92433759       31       0.00467452       0.00313662       0.00326760
O        0.95286445       1.22082362       5.45166580       32      -0.00139906      -0.00545272       0.00326760
O        3.29576451      -1.00559195       5.45925550       33       0.00036881      -0.00482769      -0.00435019
O        2.04666936       0.00438192       3.19839152       34       0.00467452      -0.00439813       0.00108259
O        0.95286445      -1.99864240       6.79888745       35      -0.00139906       0.00555618       0.00308840
O       -0.67809181       1.80434880       3.27155924       36      -0.00570477      -0.00053302       0.00308840
O       -0.95286446      -0.77781878       5.19589683       37       0.00139906       0.00010346       0.00635600
O       -0.41571310       5.07859973       1.59540090       38      -0.00036881       0.00482769       0.00435019
O        3.71343348       4.80858316       5.12272911       39      -0.00467452      -0.00126151       0.00435019
