10
Lattice="5.756782290041698 -0.018207177926064192 -0.012571800511193814 3.143650912685985 4.822689371650883 -0.012571800511194204 3.143650912685988 1.6969527762601289 4.514293089814341" Properties=species:S:1:pos:R:3:spacegroup_kinds:I:1:forces:R:3 spacegroup="P 1" unit_cell=conventional occupancy="_JSON {\"0\": {\"In\": 1}, \"1\": {\"In\": 1}, \"2\": {\"In\": 1}, \"3\": {\"In\": 1}, \"4\": {\"O\": 1}, \"5\": {\"O\": 1}, \"6\": {\"O\": 1}, \"7\": {\"O\": 1}, \"8\": {\"O\": 1}, \"9\": {\"O\": 1}}" n_minim_iter=6 energy=-11287.504243086034 stress="-0.0581693728900438 -2.8344550400931254e-05 -1.9571513596262473e-05 -2.8344550400931254e-05 -0.05813216432250577 -1.0564765360399634e-05 -1.9571513596262473e-05 -1.0564765360399634e-05 -0.05812415866603195" free_energy=-11287.504243086034 pbc="T T T"
In      10.33959439       5.58134599       3.85384098        0      -0.00494622      -0.00266999      -0.00184359
In       7.72653179       4.17080648       2.87988326        1       0.00494622       0.00266999       0.00184359
In       4.31755233       2.33062851       1.60926623        2      -0.00494622      -0.00266999      -0.00184359
In       1.70448973       0.92008899       0.63530852        3       0.00494622       0.00266999       0.00184359
O        5.88941218       2.25784236       0.18681934        4       0.00000000       0.00177079      -0.00256455
O        6.92486753       5.02123997       1.10971557        5      -0.00148039       0.00274246       0.00000000
O        7.99760774       2.11267863       2.44396589        6       0.00148039      -0.00097167      -0.00256455
O        4.04647639       4.38875635       2.04518361        7      -0.00148039       0.00097167       0.00256455
O        6.15467195       4.24359262       4.30233015        8      -0.00000000      -0.00177079       0.00256455
O        5.11921659       1.48019502       3.37943392        9       0.00148039      -0.00274246      -0.00000000
