10
Lattice="6.041216798859808 0.02460692814743526 0.016990738109941894 3.3355191475116497 5.036985003781723 0.01699073810994256 3.335519147511646 1.800523860584284 4.70421305225116" Properties=species:S:1:pos:R:3:spacegroup_kinds:I:1:forces:R:3 spacegroup="P 1" unit_cell=conventional occupancy="_JSON {\"0\": {\"In\": 1}, \"1\": {\"In\": 1}, \"2\": {\"In\": 1}, \"3\": {\"In\": 1}, \"4\": {\"O\": 1}, \"5\": {\"O\": 1}, \"6\": {\"O\": 1}, \"7\": {\"O\": 1}, \"8\": {\"O\": 1}, \"9\": {\"O\": 1}}" n_minim_iter=1 energy=-11287.326329985235 stress="0.06695346601886563 -0.0021520007768301005 -0.0014859262964579067 -0.0021520007768301005 0.06977844878510393 -0.0008021077482624729 -0.0014859262964579067 -0.0008021077482624729 0.07038626153084834" free_energy=-11287.326329985235 pbc="T T T"
In      10.88400004       5.87521789       4.05675540        0      -0.03221991      -0.01739241      -0.01200921
In       8.18438261       4.41795581       3.05053640        1       0.03221991       0.01739241       0.01200921
In       4.52787249       2.44416000       1.68765813        2      -0.03221991      -0.01739241      -0.01200921
In       1.82825506       0.98689791       0.68143914        3       0.03221991       0.01739241       0.01200921
O        6.19867218       2.38333649       0.24370669        4       0.00000000      -0.01092433       0.01582122
O        7.31842708       5.26151840       1.20153937        5       0.00913279      -0.01691875      -0.00000000
O        8.41443643       2.26840494       2.59581321        6      -0.00913279       0.00599442       0.01582122
O        4.29781868       4.59371086       2.14238132        7       0.00913279      -0.00599442      -0.01582122
O        6.51358293       4.47877931       4.49448784        8      -0.00000000       0.01092433      -0.01582122
O        5.39382803       1.60059740       3.53665516        9      -0.00913279       0.01691875       0.00000000
10
Lattice="6.054857585045292 0.0385624529785681 0.02662683190319383 3.354671033221063 5.040731067695216 0.026626831903194516 3.3546710332210607 1.8108621094954649 4.704301978550976" Properties=species:S:1:pos:R:3:spacegroup_kinds:I:1:forces:R:3 spacegroup="P 1" unit_cell=conventional occupancy="_JSON {\"0\": {\"In\": 1}, \"1\": {\"In\": 1}, \"2\": {\"In\": 1}, \"3\": {\"In\": 1}, \"4\": {\"O\": 1}, \"5\": {\"O\": 1}, \"6\": {\"O\": 1}, \"7\": {\"O\": 1}, \"8\": {\"O\": 1}, \"9\": {\"O\": 1}}" n_minim_iter=2 energy=-11287.328347314246 stress="0.06851995409214652 -0.00012881275051091512 -8.894339418620813e-05 -0.00012881275051091512 0.06868904966303344 -4.8011927445358384e-05 -8.894339418620813e-05 -4.8011927445358384e-05 0.06872543163478387" free_energy=-11287.328347314246 pbc="T T T"
In      10.92823030       5.89909353       4.07324119        0      -0.05733240      -0.03094821      -0.02136931
In       8.21806919       4.43613993       3.06309228        1       0.05733240       0.03094821       0.02136931
In       4.54613047       2.45401571       1.69446337        2      -0.05733240      -0.03094821      -0.02136931
In       1.83596936       0.99106211       0.68431446        3       0.05733240       0.03094821       0.02136931
O        6.21847871       2.39590692       0.25541762        4      -0.00000000      -0.00801524       0.01160812
O        7.34899442       5.27518416       1.21601574        5       0.00670078      -0.01241338      -0.00000000
O        8.44263404       2.28833949       2.60756861        6      -0.00670078       0.00439814       0.01160812
O        4.32156562       4.60181615       2.14998704        7       0.00670078      -0.00439814      -0.01160812
O        6.54572095       4.49424872       4.50213803        8       0.00000000       0.00801524      -0.01160812
O        5.41520525       1.61497148       3.54153990        9      -0.00670078       0.01241338       0.00000000
10
Lattice="6.060807464287027 0.04463365949332995 0.030818914689212516 3.3630114208558486 5.042373792759736 0.030818914689213196 3.3630114208558473 1.8153642773076804 4.704352857948481" Properties=species:S:1:pos:R:3:spacegroup_kinds:I:1:forces:R:3 spacegroup="P 1" unit_cell=conventional occupancy="_JSON {\"0\": {\"In\": 1}, \"1\": {\"In\": 1}, \"2\": {\"In\": 1}, \"3\": {\"In\": 1}, \"4\": {\"O\": 1}, \"5\": {\"O\": 1}, \"6\": {\"O\": 1}, \"7\": {\"O\": 1}, \"8\": {\"O\": 1}, \"9\": {\"O\": 1}}" n_minim_iter=3 energy=-11287.328900860706 stress="0.06957423600183169 0.0007411257350847008 0.0005117369054354635 0.0007411257350847008 0.06860134256689088 0.00027623721204353055 0.0005117369054354635 0.00027623721204353055 0.06839201844731368" free_energy=-11287.328900860706 pbc="T T T"
In      10.94464476       5.90795410       4.07935929        0      -0.02588552      -0.01397309      -0.00964822
In       8.23560071       4.44560350       3.06962675        1       0.02588552       0.01397309       0.00964822
In       4.55122960       2.45676824       1.69636395        2      -0.02588552      -0.01397309      -0.00964822
In       1.84218556       0.99441764       0.68663140        3       0.02588552       0.01397309       0.00964822
O        6.22711131       2.40100823       0.26105377        4      -0.00000000      -0.00743269       0.01076443
O        7.36262346       5.28056451       1.22231659        5       0.00621376      -0.01151116      -0.00000000
O        8.45461059       2.29722252       2.61323020        6      -0.00621376       0.00407848       0.01076443
O        4.33221973       4.60514923       2.15276050        7       0.00621376      -0.00407848      -0.01076443
O        6.55971900       4.50136352       4.50493692        8       0.00000000       0.00743269      -0.01076443
O        5.42420686       1.62180723       3.54367410        9      -0.00621376       0.01151116      -0.00000000
10
Lattice="6.058375173845322 0.04215293469624706 0.029106009075902353 3.3596028716568815 5.041701613713732 0.029106009075903008 3.359602871656879 1.813524331592695 4.704331176714635" Properties=species:S:1:pos:R:3:spacegroup_kinds:I:1:forces:R:3 spacegroup="P 1" unit_cell=conventional occupancy="_JSON {\"0\": {\"In\": 1}, \"1\": {\"In\": 1}, \"2\": {\"In\": 1}, \"3\": {\"In\": 1}, \"4\": {\"O\": 1}, \"5\": {\"O\": 1}, \"6\": {\"O\": 1}, \"7\": {\"O\": 1}, \"8\": {\"O\": 1}, \"9\": {\"O\": 1}}" n_minim_iter=4 energy=-11287.329184801485 stress="0.06911480015942453 0.0002262187325990938 0.0001562008561201472 0.0002262187325990938 0.06881783743213006 8.431771987453743e-05 0.0001562008561201472 8.431771987453743e-05 0.06875394404017568" free_energy=-11287.329184801485 pbc="T T T"
In      10.93542137       5.90297529       4.07592149        0      -0.00589433      -0.00318178      -0.00219697
In       8.23095001       4.44309304       3.06789331        1       0.00589433       0.00318178       0.00219697
In       4.54663091       2.45428585       1.69464989        2      -0.00589433      -0.00318178      -0.00219697
In       1.84215956       0.99440360       0.68662171        3       0.00589433       0.00318178       0.00219697
O        6.22358282       2.39850439       0.25935755        4      -0.00000000      -0.00669504       0.00969613
O        7.35740345       5.27771621       1.21974181        5       0.00559709      -0.01036876      -0.00000000
O        8.44936506       2.29382234       2.61152313        6      -0.00559709       0.00367372       0.00969613
O        4.32821586       4.60355655       2.15102007        7       0.00559709      -0.00367372      -0.00969613
O        6.55399811       4.49887450       4.50318565        8      -0.00000000       0.00669504      -0.00969613
O        5.42017748       1.61966268       3.54280139        9      -0.00559709       0.01036876       0.00000000
10
Lattice="6.057242340723142 0.04099699450528137 0.028307848617279814 3.3580148896123876 5.041388849211013 0.028307848617280477 3.3580148896123854 1.8126671338268177 4.7043214946670675" Properties=species:S:1:pos:R:3:spacegroup_kinds:I:1:forces:R:3 spacegroup="P 1" unit_cell=conventional occupancy="_JSON {\"0\": {\"In\": 1}, \"1\": {\"In\": 1}, \"2\": {\"In\": 1}, \"3\": {\"In\": 1}, \"4\": {\"O\": 1}, \"5\": {\"O\": 1}, \"6\": {\"O\": 1}, \"7\": {\"O\": 1}, \"8\": {\"O\": 1}, \"9\": {\"O\": 1}}" n_minim_iter=5 energy=-11287.329227531916 stress="0.06889021706167932 -1.2591181911567991e-05 -8.694033950345626e-06 -1.2591181911567991e-05 0.06890674580642259 -4.693067386449063e-06 -8.694033950345626e-06 -4.693067386449063e-06 0.06891030206929943" free_energy=-11287.329227531916 pbc="T T T"
In      10.93113413       5.90066103       4.07432352        0       0.00287106       0.00154981       0.00107012
In       8.22877406       4.44191845       3.06708227        1      -0.00287106      -0.00154981      -0.00107012
In       4.54449807       2.45313454       1.69385492        2       0.00287106       0.00154981       0.00107012
In       1.84213800       0.99439196       0.68661368        3      -0.00287106      -0.00154981      -0.00107012
O        6.22193921       2.39724034       0.25870846        4       0.00000000      -0.00530632       0.00768490
O        7.35505329       5.27623838       1.21854215        5       0.00443611      -0.00821801      -0.00000000
O        8.44684001       2.29229170       2.61086921        6      -0.00443611       0.00291169       0.00768490
O        4.32643212       4.60276129       2.15006799        7       0.00443611      -0.00291169      -0.00768490
O        6.55133292       4.49781265       4.50222874        8      -0.00000000       0.00530632      -0.00768490
O        5.41821884       1.61881461       3.54239505        9      -0.00443611       0.00821801       0.00000000
