10
Lattice="5.70583464344925 -0.01804604413320056 -0.012460539891468517 3.1158295346614904 4.780008467463801 -0.012460539891471235 3.1158295346614917 1.6819347077820106 4.474341499353649" Properties=species:S:1:pos:R:3:spacegroup_kinds:I:1:forces:R:3 spacegroup="P 1" unit_cell=conventional occupancy="_JSON {\"0\": {\"In\": 1}, \"1\": {\"In\": 1}, \"2\": {\"In\": 1}, \"3\": {\"In\": 1}, \"4\": {\"O\": 1}, \"5\": {\"O\": 1}, \"6\": {\"O\": 1}, \"7\": {\"O\": 1}, \"8\": {\"O\": 1}, \"9\": {\"O\": 1}}" n_minim_iter=1 energy=-11287.247530090424 stress="-0.09451632166431659 0.0030736691039793744 0.0021223253252361644 0.0030736691039793744 -0.09855120043480799 0.0011456379708879414 0.0021223253252361644 0.0011456379708879414 -0.09941932988729141" free_energy=-11287.247530090424 pbc="T T T"
In      10.24808876       5.53195096       3.81973440        0       0.09088010       0.04905737       0.03387342
In       7.65815182       4.13389475       2.85439623        1      -0.09088010      -0.04905737      -0.03387342
In       4.27934190       2.31000239       1.59502419        2       0.09088010       0.04905737       0.03387342
In       1.68940496       0.91194618       0.62968602        3      -0.09088010      -0.04905737      -0.03387342
O        5.83729075       2.23786041       0.18516599        4      -0.00000000       0.02292795      -0.03320552
O        6.86358231       4.97680188       1.09989457        5      -0.01916788       0.03550901      -0.00000000
O        7.92682874       2.09398138       2.42233674        6       0.01916788      -0.01258107      -0.03320552
O        4.01066498       4.34991576       2.02708369        7      -0.01916788       0.01258107       0.03320552
O        6.10020297       4.20603673       4.26425444        8       0.00000000      -0.02292795       0.03320552
O        5.07391142       1.46709526       3.34952586        9       0.01916788      -0.03550901      -0.00000000
10
Lattice="5.687363981006417 -0.037251797493436226 -0.025721842708001347 3.089638173111274 4.775105518008926 -0.025721842708004056 3.0896381731112754 1.6677965273888513 4.47445516957554" Properties=species:S:1:pos:R:3:spacegroup_kinds:I:1:forces:R:3 spacegroup="P 1" unit_cell=conventional occupancy="_JSON {\"0\": {\"In\": 1}, \"1\": {\"In\": 1}, \"2\": {\"In\": 1}, \"3\": {\"In\": 1}, \"4\": {\"O\": 1}, \"5\": {\"O\": 1}, \"6\": {\"O\": 1}, \"7\": {\"O\": 1}, \"8\": {\"O\": 1}, \"9\": {\"O\": 1}}" n_minim_iter=2 energy=-11287.250665744938 stress="-0.09525640738114396 -0.00035016781375868275 -0.00024178595473297747 -0.00035016781375868275 -0.09479673373699102 -0.000130516828535658 -0.00024178595473297747 -0.000130516828535658 -0.09469783207224698" free_energy=-11287.250665744938 pbc="T T T"
In      10.18807103       5.49955320       3.79736420        0       0.14151334       0.07638935       0.05274577
In       7.61188947       4.10892219       2.83715303        1      -0.14151334      -0.07638935      -0.05274577
In       4.25475086       2.29672807       1.58585846        2       0.14151334       0.07638935       0.05274577
In       1.67856931       0.90609706       0.62564729        3      -0.14151334      -0.07638935      -0.05274577
O        5.81034208       2.22079722       0.16888973        4       0.00000000       0.00476438      -0.00690004
O        6.82178116       4.95844030       1.08003103        5      -0.00398305       0.00737870       0.00000000
O        7.88854116       2.06659461       2.40611732        6       0.00398305      -0.00261432      -0.00690004
O        3.97809917       4.33905565       2.01689417        7      -0.00398305       0.00261432       0.00690004
O        6.05629826       4.18485304       4.25412175        8       0.00000000      -0.00476438       0.00690004
O        5.04485917       1.44720996       3.34298046        9       0.00398305      -0.00737870       0.00000000
10
Lattice="5.67919208442687 -0.0457828016872721 -0.03161238122641227 3.0780221128982017 4.772954920094766 -0.03161238122641501 3.0780221128982053 1.661526141084752 4.474531136822679" Properties=species:S:1:pos:R:3:spacegroup_kinds:I:1:forces:R:3 spacegroup="P 1" unit_cell=conventional occupancy="_JSON {\"0\": {\"In\": 1}, \"1\": {\"In\": 1}, \"2\": {\"In\": 1}, \"3\": {\"In\": 1}, \"4\": {\"O\": 1}, \"5\": {\"O\": 1}, \"6\": {\"O\": 1}, \"7\": {\"O\": 1}, \"8\": {\"O\": 1}, \"9\": {\"O\": 1}}" n_minim_iter=3 energy=-11287.256346523045 stress="-0.09232463122661327 -0.00044012120410867476 -0.00030389750684949317 -0.00044012120410867476 -0.09174687362044817 -0.00016404484236024445 -0.00030389750684949317 -0.00016404484236024445 -0.09162256545120416" free_energy=-11287.256346523045 pbc="T T T"
In      10.17215667       5.49096258       3.79143250        0       0.03067124       0.01655643       0.01143198
In       7.58069780       4.09208482       2.82552707        1      -0.03067124      -0.01655643      -0.01143198
In       4.25453852       2.29661345       1.58577931        2       0.03067124       0.01655643       0.01143198
In       1.66307965       0.89773569       0.61987388        3      -0.03067124      -0.01655643      -0.01143198
O        5.79840512       2.21376119       0.16089291        4      -0.00000000       0.02633452      -0.03813911
O        6.80280937       4.95113421       1.07121421        5      -0.02201579       0.04078485       0.00000000
O        7.87202299       2.05415068       2.39815848        6       0.02201579      -0.01445033      -0.03813911
O        3.96321333       4.33454759       2.01314790        7      -0.02201579       0.01445033       0.03813911
O        6.03683120       4.17493708       4.25041346        8       0.00000000      -0.02633452       0.03813911
O        5.03242695       1.43756406       3.34009216        9       0.02201579      -0.04078485       0.00000000
10
Lattice="5.679303403360051 -0.04566644977355575 -0.03153204186496502 3.0781804668086408 4.772984138441033 -0.03153204186496771 3.0781804668086434 1.6616116210300176 4.4745299950197985" Properties=species:S:1:pos:R:3:spacegroup_kinds:I:1:forces:R:3 spacegroup="P 1" unit_cell=conventional occupancy="_JSON {\"0\": {\"In\": 1}, \"1\": {\"In\": 1}, \"2\": {\"In\": 1}, \"3\": {\"In\": 1}, \"4\": {\"O\": 1}, \"5\": {\"O\": 1}, \"6\": {\"O\": 1}, \"7\": {\"O\": 1}, \"8\": {\"O\": 1}, \"9\": {\"O\": 1}}" n_minim_iter=4 energy=-11287.256907598896 stress="-0.09139810513730297 -9.401304926652242e-05 -6.49146892615347e-05 -9.401304926652242e-05 -0.09127469196399843 -3.504115599316813e-05 -6.49146892615347e-05 -3.504115599316813e-05 -0.09124813884667338" free_energy=-11287.256907598896 pbc="T T T"
In      10.17587756       5.49297112       3.79281937        0      -0.00845559      -0.00456435      -0.00315162
In       7.57761896       4.09042285       2.82437950        1       0.00845559       0.00456435       0.00315162
In       4.25804539       2.29850647       1.58708642        2      -0.00845559      -0.00456435      -0.00315162
In       1.65978679       0.89595820       0.61864654        3       0.00845559       0.00456435       0.00315162
O        5.79856779       2.21453449       0.16002094        4      -0.00000000       0.02903804      -0.04205450
O        6.80250165       4.95228283       1.07133444        5      -0.02427595       0.04497185       0.00000000
O        7.87281440       2.05394865       2.39728593        6       0.02427595      -0.01593381      -0.04205450
O        3.96284995       4.33498067       2.01417998        7      -0.02427595       0.01593381       0.04205450
O        6.03709656       4.17439483       4.25144498        8      -0.00000000      -0.02903804       0.04205450
O        5.03316269       1.43664649       3.34013148        9       0.02427595      -0.04497185       0.00000000
10
Lattice="5.682040952225985 -0.04280635967393774 -0.029557189841084994 3.0820736692578787 4.773703349022534 -0.029557189841087645 3.0820736692578836 1.6637131841132855 4.474502847574009" Properties=species:S:1:pos:R:3:spacegroup_kinds:I:1:forces:R:3 spacegroup="P 1" unit_cell=conventional occupancy="_JSON {\"0\": {\"In\": 1}, \"1\": {\"In\": 1}, \"2\": {\"In\": 1}, \"3\": {\"In\": 1}, \"4\": {\"O\": 1}, \"5\": {\"O\": 1}, \"6\": {\"O\": 1}, \"7\": {\"O\": 1}, \"8\": {\"O\": 1}, \"9\": {\"O\": 1}}" n_minim_iter=5 energy=-11287.257407470099 stress="-0.09051674215050094 0.0004720066307885725 0.00032591394593193895 0.0004720066307885725 -0.09113635651696468 0.00017592938605372755 0.00032591394593193895 0.00017592938605372755 -0.09126967043085189" free_energy=-11287.257407470099 pbc="T T T"
In      10.18740037       5.49919118       3.79711423        0      -0.02785002      -0.01503353      -0.01038044
In       7.58188207       4.09272410       2.82596848        1       0.02785002       0.01503353       0.01038044
In       4.26430623       2.30188609       1.58942000        2      -0.02785002      -0.01503353      -0.01038044
In       1.65878793       0.89541901       0.61827424        3       0.02785002       0.01503353       0.01038044
O        5.80256755       2.21912842       0.15946372        4       0.00000000       0.01392306      -0.02016415
O        6.80699030       4.95819315       1.07428993        5      -0.01163975       0.02156295      -0.00000000
O        7.88021848       2.05689290       2.39671515        6       0.01163975      -0.00763989      -0.02016415
O        3.96596982       4.33771728       2.01867332        7      -0.01163975       0.00763989       0.02016415
O        6.04362075       4.17548176       4.25592475        8       0.00000000      -0.01392306       0.02016415
O        5.03919800       1.43641703       3.34109854        9       0.01163975      -0.02156295       0.00000000
10
Lattice="5.681307115034143 -0.04357281409381968 -0.030086415847817377 3.081030237043196 4.773510427755569 -0.03008641584782002 3.081030237043201 1.6631499360801145 4.47450994930467" Properties=species:S:1:pos:R:3:spacegroup_kinds:I:1:forces:R:3 spacegroup="P 1" unit_cell=conventional occupancy="_JSON {\"0\": {\"In\": 1}, \"1\": {\"In\": 1}, \"2\": {\"In\": 1}, \"3\": {\"In\": 1}, \"4\": {\"O\": 1}, \"5\": {\"O\": 1}, \"6\": {\"O\": 1}, \"7\": {\"O\": 1}, \"8\": {\"O\": 1}, \"9\": {\"O\": 1}}" n_minim_iter=6 energy=-11287.25759143424 stress="-0.09083668692645346 0.00013496486136343964 9.31913404786967e-05 0.00013496486136343964 -0.09101385851994037 5.0304982284328975e-05 9.31913404786967e-05 5.0304982284328975e-05 -0.09105197809862989" free_energy=-11287.25759143424 pbc="T T T"
In      10.18421498       5.49747169       3.79592695        0      -0.01063505      -0.00574083      -0.00396397
In       7.58083641       4.09215965       2.82557873        1       0.01063505       0.00574083       0.00396397
In       4.26253119       2.30092791       1.58875839        2      -0.01063505      -0.00574083      -0.00396397
In       1.65915262       0.89561587       0.61841017        3       0.01063505       0.00574083       0.00396397
O        5.80149546       2.21887629       0.15819512        4      -0.00000000       0.00507891      -0.00735556
O        6.80496866       4.95812538       1.07349787        5      -0.00424599       0.00786582       0.00000000
O        7.87905249       2.05556658       2.39545010        6       0.00424599      -0.00278691      -0.00735556
O        3.96431510       4.33752098       2.01888703        7      -0.00424599       0.00278691       0.00735556
O        6.04187214       4.17421127       4.25614200        8      -0.00000000      -0.00507891       0.00735556
O        5.03839894       1.43496219       3.34083926        9       0.00424599      -0.00786582       0.00000000
10
Lattice="5.6812739318268495 -0.04360747621767777 -0.030110349557270218 3.0809830509840856 4.7735017062934215 -0.03011034955727282 3.0809830509840896 1.6631244648951033 4.474510273471734" Properties=species:S:1:pos:R:3:spacegroup_kinds:I:1:forces:R:3 spacegroup="P 1" unit_cell=conventional occupancy="_JSON {\"0\": {\"In\": 1}, \"1\": {\"In\": 1}, \"2\": {\"In\": 1}, \"3\": {\"In\": 1}, \"4\": {\"O\": 1}, \"5\": {\"O\": 1}, \"6\": {\"O\": 1}, \"7\": {\"O\": 1}, \"8\": {\"O\": 1}, \"9\": {\"O\": 1}}" n_minim_iter=7 energy=-11287.257620441569 stress="-0.09102488926879443 6.493277928048589e-06 4.483517158352124e-06 6.493277928048589e-06 -0.09103341314985791 2.420217025535402e-06 4.483517158352124e-06 2.420217025535402e-06 -0.09103524711617306" free_energy=-11287.257620441569 pbc="T T T"
In      10.18353233       5.49710319       3.79567251        0       0.00010832       0.00005847       0.00004037
In       7.58132773       4.09242486       2.82576186        1      -0.00010832      -0.00005847      -0.00004037
In       4.26191231       2.30059384       1.58852772        2       0.00010832       0.00005847       0.00004037
In       1.65970772       0.89591551       0.61861707        3      -0.00010832      -0.00005847      -0.00004037
O        5.80144698       2.21908931       0.15781274        4      -0.00000000      -0.00000858       0.00001242
O        6.80468963       4.95846987       1.07346205        5       0.00000717      -0.00001329       0.00000000
O        7.87918738       2.05538346       2.39506788        6      -0.00000717       0.00000471       0.00001242
O        3.96405266       4.33763524       2.01922170        7       0.00000717      -0.00000471      -0.00001242
O        6.04179306       4.17392940       4.25647684        8       0.00000000       0.00000858      -0.00001242
O        5.03855042       1.43454883       3.34082753        9      -0.00000717       0.00001329       0.00000000
