10
Lattice="5.351471353696004 -0.22712740327444098 -0.15682828037307903 2.7465895975815435 4.598486499839265 -0.15682828037308127 2.7465895975815466 1.4826178135920696 4.355745357289413" Properties=species:S:1:pos:R:3:spacegroup_kinds:I:1:forces:R:3 spacegroup="P 1" unit_cell=conventional occupancy="_JSON {\"0\": {\"In\": 1}, \"1\": {\"In\": 1}, \"2\": {\"In\": 1}, \"3\": {\"In\": 1}, \"4\": {\"O\": 1}, \"5\": {\"O\": 1}, \"6\": {\"O\": 1}, \"7\": {\"O\": 1}, \"8\": {\"O\": 1}, \"9\": {\"O\": 1}}" n_minim_iter=6 energy=-11285.942200712665 stress="-0.18308292104183474 7.935832626349447e-05 5.4795809389365494e-05 7.935832626349447e-05 -0.1831870966104435 2.957895241987147e-05 5.4795809389365494e-05 2.957895241987147e-05 -0.18320951063722843" free_energy=-11285.942200712665 pbc="T T T"
In       9.38525231       5.06618910       3.49813238        0      -0.00157587      -0.00085066      -0.00058737
In       6.88172350       3.71477627       2.56500081        1       0.00157587       0.00085066       0.00058737
In       3.96292704       2.13920064       1.47708798        2      -0.00157587      -0.00085066      -0.00058737
In       1.45939823       0.78778781       0.54395641        3       0.00157587       0.00085066       0.00058737
O        5.38689831       1.99772169      -0.00605899        4      -0.00000000       0.00192695      -0.00279072
O        6.21863646       4.65242210       0.85369392        5      -0.00161094       0.00298432      -0.00000000
O        7.30174975       1.73578227       2.17181369        6       0.00161094      -0.00105736      -0.00279072
O        3.54290079       4.11819464       1.87027511        7      -0.00161094       0.00105736       0.00279072
O        5.45775223       3.85625522       4.04814779        8      -0.00000000      -0.00192695       0.00279072
O        4.62601407       1.20155480       3.18839488        9       0.00161094      -0.00298432       0.00000000
