10
Lattice="5.8774644063931625 0.0036100066879534154 0.0024926588903186886 3.2281111014370882 4.911608656778903 0.0024926588903195768 3.2281111014370882 1.7425446551822605 4.59210669904234" Properties=species:S:1:pos:R:3:spacegroup_kinds:I:1:forces:R:3 spacegroup="P 1" unit_cell=conventional occupancy="_JSON {\"0\": {\"In\": 1}, \"1\": {\"In\": 1}, \"2\": {\"In\": 1}, \"3\": {\"In\": 1}, \"4\": {\"O\": 1}, \"5\": {\"O\": 1}, \"6\": {\"O\": 1}, \"7\": {\"O\": 1}, \"8\": {\"O\": 1}, \"9\": {\"O\": 1}}" n_minim_iter=1 energy=-11287.68668140679 stress="-1.914365411079125e-05 1.0214396023714968e-05 7.052897506381903e-06 1.0214396023714968e-05 -3.2552335935037264e-05 3.807176380838653e-06 7.052897506381903e-06 3.807176380838653e-06 -3.5437297819133714e-05" free_energy=-11287.68668140679 pbc="T T T"
In      10.57279539       5.70722863       3.94076117        0       0.00669827       0.00361575       0.00249662
In       7.92773453       4.27941636       2.95487686        1      -0.00669827      -0.00361575      -0.00249662
In       4.40595208       2.37834697       1.64221516        2       0.00669827       0.00361575       0.00249662
In       1.76089123       0.95053470       0.65633085        3      -0.00669827      -0.00361575      -0.00249662
O        6.02215386       2.31161216       0.21586408        4      -0.00000000      -0.00000557       0.00000806
O        7.09667995       5.12154309       1.15176567        5       0.00000465      -0.00000862      -0.00000000
O        8.17573887       2.18339157       2.51191743        6      -0.00000465       0.00000305       0.00000806
O        4.15794775       4.47437176       2.08517459        7       0.00000465      -0.00000305      -0.00000806
O        6.31153276       4.34615117       4.38122794        8      -0.00000000       0.00000557      -0.00000806
O        5.23700667       1.53622024       3.44532636        9      -0.00000465       0.00000862       0.00000000
