10
Lattice="6.466919240317915 0.1412931996469869 0.09756096890813268 3.666661681683121 5.328846060934508 0.0975609689081364 3.666661681683134 1.9792756553311304 4.948594382650994" Properties=species:S:1:pos:R:3:spacegroup_kinds:I:1:forces:R:3 spacegroup="P 1" unit_cell=conventional occupancy="_JSON {\"0\": {\"In\": 1}, \"1\": {\"In\": 1}, \"2\": {\"In\": 1}, \"3\": {\"In\": 1}, \"4\": {\"O\": 1}, \"5\": {\"O\": 1}, \"6\": {\"O\": 1}, \"7\": {\"O\": 1}, \"8\": {\"O\": 1}, \"9\": {\"O\": 1}}" n_minim_iter=1 energy=-11284.671356436218 stress="0.14025992864214307 0.00015901227733114895 0.00010979574376909276 0.00015901227733114895 0.14005118943076067 5.926809179469212e-05 0.00010979574376909276 5.926809179469212e-05 0.14000627788181874" free_energy=-11284.671356436218 pbc="T T T"
In      11.79885169       6.36905773       4.39774486        0       0.03734311       0.02015793       0.01391877
In       8.90151223       4.80506466       3.31782962        1      -0.03734311      -0.02015793      -0.01391877
In       4.89873039       2.64435027       1.82588670        2       0.03734311       0.02015793       0.01391877
In       2.00139093       1.08035720       0.74597146        3      -0.03734311      -0.02015793      -0.01391877
O        6.68352028       2.60488935       0.36164268        4       0.00000000       0.01633459      -0.02365666
O        7.95514855       5.63799256       1.38349005        5      -0.01365580       0.02529773       0.00000000
O        9.07855368       2.55395798       2.83593987        6       0.01365580      -0.00896315      -0.02365666
O        4.72168893       4.89545695       2.30777646        7      -0.01365580       0.00896315       0.02365666
O        7.11672234       4.84452558       4.78207365        8      -0.00000000      -0.01633459       0.02365666
O        5.84509406       1.81142237       3.76022627        9       0.01365580      -0.02529773       0.00000000
10
Lattice="6.458377909158569 0.13277264613187523 0.09167764643652815 3.6548516414650294 5.326380879354073 0.0916776464365319 3.654851641465041 1.9729005580024281 4.94837361675919" Properties=species:S:1:pos:R:3:spacegroup_kinds:I:1:forces:R:3 spacegroup="P 1" unit_cell=conventional occupancy="_JSON {\"0\": {\"In\": 1}, \"1\": {\"In\": 1}, \"2\": {\"In\": 1}, \"3\": {\"In\": 1}, \"4\": {\"O\": 1}, \"5\": {\"O\": 1}, \"6\": {\"O\": 1}, \"7\": {\"O\": 1}, \"8\": {\"O\": 1}, \"9\": {\"O\": 1}}" n_minim_iter=2 energy=-11284.671759460967 stress="0.13941244612428383 -0.0005012687052191933 -0.0003461189970136582 -0.0005012687052191933 0.14007047351375337 -0.0001868361369984998 -0.0003461189970136582 -0.0001868361369984998 0.14021205223022712" free_energy=-11284.671759460967 pbc="T T T"
In      11.77322357       6.35522359       4.38819258        0       0.02822159       0.01523411       0.01051894
In       8.87889823       4.79285755       3.30940079        1      -0.02822159      -0.01523411      -0.01051894
In       4.88918298       2.63919655       1.82232813        2       0.02822159       0.01523411       0.01051894
In       1.99485763       1.07683051       0.74353633        3      -0.02822159      -0.01523411      -0.01051894
O        6.67120926       2.59789358       0.35338012        4       0.00000000       0.01390199      -0.02013363
O        7.93559096       5.63064475       1.37460988        5      -0.01162213       0.02153031      -0.00000000
O        9.06167920       2.54128941       2.82756693        6       0.01162213      -0.00762832      -0.02013363
O        4.70640201       4.89076469       2.30416198        7      -0.01162213       0.00762832       0.02013363
O        7.09687194       4.83416051       4.77834879        8      -0.00000000      -0.01390199       0.02013363
O        5.83249024       1.80140935       3.75711904        9       0.01162213      -0.02153031      -0.00000000
10
Lattice="6.459965628755565 0.13435780418636986 0.09277217579855998 3.6570480579294364 5.326838409999279 0.09277217579856376 3.657048057929448 1.974086190606245 4.948413668530923" Properties=species:S:1:pos:R:3:spacegroup_kinds:I:1:forces:R:3 spacegroup="P 1" unit_cell=conventional occupancy="_JSON {\"0\": {\"In\": 1}, \"1\": {\"In\": 1}, \"2\": {\"In\": 1}, \"3\": {\"In\": 1}, \"4\": {\"O\": 1}, \"5\": {\"O\": 1}, \"6\": {\"O\": 1}, \"7\": {\"O\": 1}, \"8\": {\"O\": 1}, \"9\": {\"O\": 1}}" n_minim_iter=3 energy=-11284.672175611242 stress="0.1395071120430357 -0.00021961734831003928 -0.0001516426929776559 -0.00021961734831003928 0.139795408976783 -8.185720827203139e-05 -0.0001516426929776559 -8.185720827203139e-05 0.1398574378683942" free_energy=-11284.672175611242 pbc="T T T"
In      11.78007119       6.35891995       4.39074487        0       0.01208486       0.00652344       0.00450435
In       8.88102144       4.79400367       3.31019216        1      -0.01208486      -0.00652344      -0.00450435
In       4.89304032       2.64127875       1.82376586        2       0.01208486       0.00652344       0.00450435
In       1.99399057       1.07636246       0.74321315        3      -0.01208486      -0.00652344      -0.00450435
O        6.67349826       2.60013041       0.35356188        4      -0.00000000       0.00637675      -0.00923517
O        7.93844549       5.63345997       1.37626168        5      -0.00533100       0.00987582       0.00000000
O        9.06559908       2.54313225       2.82776872        6       0.00533100      -0.00349906      -0.00923517
O        4.70846268       4.89215016       2.30618931        7      -0.00533100       0.00349906       0.00923517
O        7.10056350       4.83515201       4.78039614        8       0.00000000      -0.00637675       0.00923517
O        5.83561626       1.80182245       3.75769634        9       0.00533100      -0.00987582      -0.00000000
10
Lattice="6.461188106743835 0.13557790437355963 0.09361463783300071 3.6587388681470374 5.3271909120654275 0.09361463783300449 3.658738868147048 1.9749988953475093 4.948444814018348" Properties=species:S:1:pos:R:3:spacegroup_kinds:I:1:forces:R:3 spacegroup="P 1" unit_cell=conventional occupancy="_JSON {\"0\": {\"In\": 1}, \"1\": {\"In\": 1}, \"2\": {\"In\": 1}, \"3\": {\"In\": 1}, \"4\": {\"O\": 1}, \"5\": {\"O\": 1}, \"6\": {\"O\": 1}, \"7\": {\"O\": 1}, \"8\": {\"O\": 1}, \"9\": {\"O\": 1}}" n_minim_iter=4 energy=-11284.67227590897 stress="0.13957917116025986 1.5172464906862082e-06 1.047636662902527e-06 1.5172464906862082e-06 0.139577179435054 5.655177523246382e-07 1.047636662902527e-06 5.655177523246382e-07 0.13957675090285657" free_energy=-11284.67227590897 pbc="T T T"
In      11.78537149       6.36178107       4.39272043        0      -0.00050781      -0.00027411      -0.00018927
In       8.88262729       4.79487051       3.31079071        1       0.00050781       0.00027411       0.00018927
In       4.89603857       2.64289722       1.82488339        2      -0.00050781      -0.00027411      -0.00018927
In       1.99329436       1.07598665       0.74295366        3       0.00050781       0.00027411       0.00018927
O        6.67526052       2.60187500       0.35366887        4      -0.00000000       0.00036099      -0.00052281
O        7.94062411       5.63566242       1.37753316        5      -0.00030179       0.00055908      -0.00000000
O        9.06863579       2.54453837       2.82789128        6       0.00030179      -0.00019808      -0.00052281
O        4.71003006       4.89322935       2.30778282        7      -0.00030179       0.00019808       0.00052281
O        7.10340533       4.83589273       4.78200522        8       0.00000000      -0.00036099       0.00052281
O        5.83804174       1.80210531       3.75814093        9       0.00030179      -0.00055908      -0.00000000
