10
Lattice="6.364869154051229 0.12475974527309239 0.08614485099060201 3.596842519694819 5.252603947638614 0.08614485099060368 3.596842519694833 1.941587049292177 4.881342939819099" Properties=species:S:1:pos:R:3:spacegroup_kinds:I:1:forces:R:3 spacegroup="P 1" unit_cell=conventional occupancy="_JSON {\"0\": {\"In\": 1}, \"1\": {\"In\": 1}, \"2\": {\"In\": 1}, \"3\": {\"In\": 1}, \"4\": {\"O\": 1}, \"5\": {\"O\": 1}, \"6\": {\"O\": 1}, \"7\": {\"O\": 1}, \"8\": {\"O\": 1}, \"9\": {\"O\": 1}}" n_minim_iter=5 energy=-11285.570568114415 stress="0.1301626524789582 -3.459100501214433e-05 -2.3884602985660684e-05 -3.459100501214433e-05 0.1302080609164841 -1.2892984840443568e-05 -2.3884602985660684e-05 -1.2892984840443568e-05 0.13021783082655095" free_energy=-11285.570568114415 pbc="T T T"
In      11.59187375       6.25733038       4.32059870        0      -0.00035853      -0.00019353      -0.00013363
In       8.74595755       4.72109575       3.25985027        1       0.00035853       0.00019353       0.00013363
In       4.81259665       2.59785501       1.79378238        2      -0.00035853      -0.00019353      -0.00013363
In       1.96668045       1.06162038       0.73303395        3       0.00035853       0.00019353       0.00013363
O        6.57207313       2.55614057       0.34480568        4       0.00000000      -0.00244076       0.00353484
O        7.81536784       5.54680648       1.34955301        5       0.00204049      -0.00378005      -0.00000000
O        8.92562094       2.49854716       2.78547715        6      -0.00204049       0.00133930       0.00353484
O        4.63293327       4.82040360       2.26815549        7       0.00204049      -0.00133930      -0.00353484
O        6.98648107       4.76281018       4.70882696        8      -0.00000000       0.00244076      -0.00353484
O        5.74318636       1.77214428       3.70407963        9      -0.00204049       0.00378005       0.00000000
