10
Lattice="4.822729768928602 -0.5853845851329373 -0.404199830226453 2.1569527490700033 4.353039440999908 -0.40419983022644906 2.156952749070005 1.1643299645725804 4.21386587485343" Properties=species:S:1:pos:R:3:spacegroup_kinds:I:1:forces:R:3 spacegroup="P 1" unit_cell=conventional occupancy="_JSON {\"0\": {\"In\": 1}, \"1\": {\"In\": 1}, \"2\": {\"In\": 1}, \"3\": {\"In\": 1}, \"4\": {\"O\": 1}, \"5\": {\"O\": 1}, \"6\": {\"O\": 1}, \"7\": {\"O\": 1}, \"8\": {\"O\": 1}, \"9\": {\"O\": 1}}" n_minim_iter=6 energy=-11282.654199231116 stress="-0.24914419828785173 1.822980486510296e-05 1.2587423813159346e-05 1.822980486510296e-05 -0.2491681289879288 6.79473157017036e-06 1.2587423813159346e-05 6.79473157017036e-06 -0.2491732778285438" free_energy=-11282.654199231116 pbc="T T T"
In       7.94629555       4.28943565       2.96179504        0      -0.00044249      -0.00023886      -0.00016493
In       5.75865734       3.10854158       2.14640428        1       0.00044249       0.00023886       0.00016493
In       3.37797792       1.82344324       1.25906193        2      -0.00044249      -0.00023886      -0.00016493
In       1.19033970       0.64254917       0.44367117        3       0.00044249       0.00023886       0.00016493
O        4.69552370       1.58352894      -0.28228748        4      -0.00000000       0.00007562      -0.00010952
O        5.23626074       4.11300029       0.44716672        5      -0.00006322       0.00011711      -0.00000000
O        6.31173940       1.16951727       1.82464545        6       0.00006322      -0.00004149      -0.00010952
O        2.82489585       3.76246755       1.58082076        7      -0.00006322       0.00004149       0.00010952
O        4.44111156       3.34845588       3.68775370        8      -0.00000000      -0.00007562       0.00010952
O        3.90037452       0.81898453       2.95829949        9       0.00006322      -0.00011711       0.00000000
