10
Lattice="5.828071620005359 0.003579673732207504 0.0024717144106110376 3.200982842017683 4.870332685462495 0.002471714410613757 3.2009828420176847 1.7279007343349828 4.5535157437677825" Properties=species:S:1:pos:R:3:spacegroup_kinds:I:1:forces:R:3 spacegroup="P 1" unit_cell=conventional occupancy="_JSON {\"0\": {\"In\": 1}, \"1\": {\"In\": 1}, \"2\": {\"In\": 1}, \"3\": {\"In\": 1}, \"4\": {\"O\": 1}, \"5\": {\"O\": 1}, \"6\": {\"O\": 1}, \"7\": {\"O\": 1}, \"8\": {\"O\": 1}, \"9\": {\"O\": 1}}" n_minim_iter=1 energy=-11287.640526357562 stress="-0.026479189083942364 0.0018529139167746224 0.001279411022286656 0.0018529139167746224 -0.02891155339291794 0.0006906301453365431 0.001279411022286656 0.0006906301453365431 -0.02943489181662743" free_energy=-11287.640526357562 pbc="T T T"
In      10.48394419       5.65926647       3.90764397        0       0.04821357       0.02602584       0.01797047
In       7.86111178       4.24345318       2.93004479        1      -0.04821357      -0.02602584      -0.01797047
In       4.36892553       2.35835992       1.62841439        2       0.04821357       0.02602584       0.01797047
In       1.74609313       0.94254664       0.65081521        3      -0.04821357      -0.02602584      -0.01797047
O        5.97154514       2.29218593       0.21405001        4       0.00000000       0.01647129      -0.02385464
O        7.03704118       5.07850288       1.14208651        5      -0.01377008       0.02550945      -0.00000000
O        8.10703195       2.16504288       2.49080789        6       0.01377008      -0.00903816      -0.02385464
O        4.12300537       4.43677023       2.06765129        7      -0.01377008       0.00903816       0.02385464
O        6.25849217       4.30962717       4.34440916        8      -0.00000000      -0.01647129       0.02385464
O        5.19299614       1.52331022       3.41637267        9       0.01377008      -0.02550945       0.00000000
10
Lattice="5.819616598182353 -0.005145062633301761 -0.0035525934500213498 3.1890494637370357 4.868051698508098 -0.0035525934500186345 3.189049463737038 1.7214590587272407 4.55351717569987" Properties=species:S:1:pos:R:3:spacegroup_kinds:I:1:forces:R:3 spacegroup="P 1" unit_cell=conventional occupancy="_JSON {\"0\": {\"In\": 1}, \"1\": {\"In\": 1}, \"2\": {\"In\": 1}, \"3\": {\"In\": 1}, \"4\": {\"O\": 1}, \"5\": {\"O\": 1}, \"6\": {\"O\": 1}, \"7\": {\"O\": 1}, \"8\": {\"O\": 1}, \"9\": {\"O\": 1}}" n_minim_iter=2 energy=-11287.641422281184 stress="-0.027823621885001853 -0.00013455485223009446 -9.290823469329927e-05 -0.00013455485223009446 -0.027646988519786087 -5.015216090070036e-05 -9.290823469329927e-05 -5.015216090070036e-05 -0.0276089847444752" free_energy=-11287.641422281184 pbc="T T T"
In      10.45653805       5.64447255       3.89742898        0       0.05980935       0.03228528       0.02229253
In       7.84003525       4.23207600       2.92218901        1      -0.05980935      -0.03228528      -0.02229253
In       4.35768029       2.35228970       1.62422298        2       0.05980935       0.03228528       0.02229253
In       1.74117749       0.93989316       0.64898302        3      -0.05980935      -0.03228528      -0.02229253
O        5.95923719       2.28441227       0.20664941        4      -0.00000000       0.00997592      -0.01444769
O        7.01797186       5.07011032       1.13305041        5      -0.00833992       0.01544993       0.00000000
O        8.08955197       2.15257623       2.48340800        6       0.00833992      -0.00547401      -0.01444769
O        4.10816356       4.43178947       2.06300399        7      -0.00833992       0.00547401       0.01444769
O        6.23847835       4.29995343       4.33976258        8      -0.00000000      -0.00997592       0.01444769
O        5.17974368       1.51425539       3.41336159        9       0.00833992      -0.01544993      -0.00000000
10
Lattice="5.818672913037684 -0.006120159446393881 -0.004225884097428275 3.1877164572854073 4.867797829945474 -0.0042258840974255495 3.187716457285409 1.7207394975985746 4.553518326824048" Properties=species:S:1:pos:R:3:spacegroup_kinds:I:1:forces:R:3 spacegroup="P 1" unit_cell=conventional occupancy="_JSON {\"0\": {\"In\": 1}, \"1\": {\"In\": 1}, \"2\": {\"In\": 1}, \"3\": {\"In\": 1}, \"4\": {\"O\": 1}, \"5\": {\"O\": 1}, \"6\": {\"O\": 1}, \"7\": {\"O\": 1}, \"8\": {\"O\": 1}, \"9\": {\"O\": 1}}" n_minim_iter=3 energy=-11287.64243387677 stress="-0.027191311735943607 -2.3234607772758216e-05 -1.60431700639834e-05 -2.3234607772758216e-05 -0.02716081111210878 -8.660154465674779e-06 -1.60431700639834e-05 -8.660154465674779e-06 -0.027154248711610426" free_energy=-11287.64243387677 pbc="T T T"
In      10.45797568       5.64524858       3.89796482        0       0.00607168       0.00327751       0.00226308
In       7.83318308       4.22837718       2.91963502        1      -0.00607168      -0.00327751      -0.00226308
In       4.36092276       2.35404000       1.62543154        2       0.00607168       0.00327751       0.00226308
In       1.73613016       0.93716859       0.64710174        3      -0.00607168      -0.00327751      -0.00226308
O        5.95786292       2.28434425       0.20466334        4       0.00000000       0.01178783      -0.01707179
O        7.01517312       5.07041287       1.13204076        5      -0.00985469       0.01825607      -0.00000000
O        8.08826918       2.15074427       2.48142250        6       0.00985469      -0.00646824      -0.01707179
O        4.10583666       4.43167291       2.06364406        7      -0.00985469       0.00646824       0.01707179
O        6.23624292       4.29807293       4.34040323        8      -0.00000000      -0.01178783       0.01707179
O        5.17893272       1.51200431       3.41302581        9       0.00985469      -0.01825607       0.00000000
10
Lattice="5.818475572308097 -0.006324102229776113 -0.0043667037235554165 3.1874376749323314 4.867744759972221 -0.004366703723552673 3.1874376749323323 1.7205890099963685 4.553518592804708" Properties=species:S:1:pos:R:3:spacegroup_kinds:I:1:forces:R:3 spacegroup="P 1" unit_cell=conventional occupancy="_JSON {\"0\": {\"In\": 1}, \"1\": {\"In\": 1}, \"2\": {\"In\": 1}, \"3\": {\"In\": 1}, \"4\": {\"O\": 1}, \"5\": {\"O\": 1}, \"6\": {\"O\": 1}, \"7\": {\"O\": 1}, \"8\": {\"O\": 1}, \"9\": {\"O\": 1}}" n_minim_iter=4 energy=-11287.642514286514 stress="-0.02702098654870635 -5.205471652473653e-06 -3.594305090521395e-06 -5.205471652473653e-06 -0.027014153201888002 -1.9402175147253193e-06 -3.594305090521395e-06 -1.9402175147253193e-06 -0.027012682964184107" free_energy=-11287.642514286514 pbc="T T T"
In      10.45846174       5.64551096       3.89814599        0      -0.00586145      -0.00316403      -0.00218472
In       7.83156465       4.22750355       2.91903179        1       0.00586145       0.00316403       0.00218472
In       4.36178628       2.35450613       1.62575340        2      -0.00586145      -0.00316403      -0.00218472
In       1.73488919       0.93649872       0.64663920        3       0.00586145       0.00316403       0.00218472
O        5.95757552       2.28455616       0.20392047        4      -0.00000000       0.00996174      -0.01442715
O        7.01439876       5.07082637       1.13182959        5      -0.00832807       0.01542797       0.00000000
O        8.08818996       2.15023705       2.48067977        6       0.00832807      -0.00546623      -0.01442715
O        4.10516097       4.43177263       2.06410542        7      -0.00832807       0.00546623       0.01442715
O        6.23577541       4.29745352       4.34086472        8      -0.00000000      -0.00996174       0.01442715
O        5.17895217       1.51118331       3.41295559        9       0.00832807      -0.01542797      -0.00000000
10
Lattice="5.81855105503291 -0.006246092860544076 -0.004312839350286184 3.1875443101740193 4.867765058461415 -0.004312839350283424 3.187544310174021 1.720646572039501 4.553518490034914" Properties=species:S:1:pos:R:3:spacegroup_kinds:I:1:forces:R:3 spacegroup="P 1" unit_cell=conventional occupancy="_JSON {\"0\": {\"In\": 1}, \"1\": {\"In\": 1}, \"2\": {\"In\": 1}, \"3\": {\"In\": 1}, \"4\": {\"O\": 1}, \"5\": {\"O\": 1}, \"6\": {\"O\": 1}, \"7\": {\"O\": 1}, \"8\": {\"O\": 1}, \"9\": {\"O\": 1}}" n_minim_iter=5 energy=-11287.642570282362 stress="-0.026877766445524382 -1.7978945419635442e-06 -1.2414206840574087e-06 -1.7978945419635442e-06 -0.026875406306461687 -6.701228324707269e-07 -1.2414206840574087e-06 -6.701228324707269e-07 -0.026874898507685038" free_energy=-11287.642570282362 pbc="T T T"
In      10.45947189       5.64605624       3.89852250        0      -0.01018785      -0.00549943      -0.00379728
In       7.83098764       4.22719207       2.91881672        1       0.01018785       0.00549943       0.00379728
In       4.36265205       2.35497348       1.62607609        2      -0.01018785      -0.00549943      -0.00379728
In       1.73416780       0.93610930       0.64637032        3       0.01018785       0.00549943       0.00379728
O        5.95768545       2.28536943       0.20290940        4       0.00000000       0.00321376      -0.00465435
O        7.01394729       5.07205327       1.13191037        5      -0.00268672       0.00497722       0.00000000
O        8.08896792       2.14994032       2.47966864        6       0.00268672      -0.00176346      -0.00465435
O        4.10467176       4.43222523       2.06522417        7      -0.00268672       0.00176346       0.00465435
O        6.23595423       4.29679611       4.34198342        8      -0.00000000      -0.00321376       0.00465435
O        5.17969240       1.51011228       3.41298245        9       0.00268672      -0.00497722       0.00000000
10
Lattice="5.818757978454135 -0.00603225171566484 -0.0041651850446368655 3.1878366258389 4.867820708165462 -0.004165185044634119 3.187836625838902 1.7208043649665288 4.553518214866733" Properties=species:S:1:pos:R:3:spacegroup_kinds:I:1:forces:R:3 spacegroup="P 1" unit_cell=conventional occupancy="_JSON {\"0\": {\"In\": 1}, \"1\": {\"In\": 1}, \"2\": {\"In\": 1}, \"3\": {\"In\": 1}, \"4\": {\"O\": 1}, \"5\": {\"O\": 1}, \"6\": {\"O\": 1}, \"7\": {\"O\": 1}, \"8\": {\"O\": 1}, \"9\": {\"O\": 1}}" n_minim_iter=6 energy=-11287.64258995571 stress="-0.026918965820545336 -2.02193793660455e-06 -1.3961195207815687e-06 -2.02193793660455e-06 -0.026916311574286908 -7.53629759564777e-07 -1.3961195207815687e-06 -7.53629759564777e-07 -0.026915740496509265" free_energy=-11287.64258995571 pbc="T T T"
In      10.45976137       5.64621251       3.89863039        0      -0.00449955      -0.00242887      -0.00167710
In       7.83188549       4.22767674       2.91915138        1       0.00449955       0.00242887       0.00167710
In       4.36254575       2.35491610       1.62603647        2      -0.00449955      -0.00242887      -0.00167710
In       1.73466987       0.93638033       0.64655746        3       0.00449955       0.00242887       0.00167710
O        5.95798680       2.28563812       0.20297741        4       0.00000000       0.00142126      -0.00205835
O        7.01434886       5.07237994       1.13213178        5      -0.00118818       0.00220114      -0.00000000
O        8.08946137       2.15020281       2.47973651        6       0.00118818      -0.00077988      -0.00205835
O        4.10496987       4.43239002       2.06545133        7      -0.00118818       0.00077988       0.00205835
O        6.23644444       4.29695471       4.34221044        8       0.00000000      -0.00142126       0.00205835
O        5.18008238       1.51021290       3.41305607        9       0.00118818      -0.00220114       0.00000000
