10
Lattice="6.151787693256987 0.04371875434459888 0.030187185540233315 3.412169394764169 5.118935746209779 0.03018718554022797 3.412169394764167 1.841899908208184 4.776172020367127" Properties=species:S:1:pos:R:3:spacegroup_kinds:I:1:forces:R:3 spacegroup="P 1" unit_cell=conventional occupancy="_JSON {\"0\": {\"In\": 1}, \"1\": {\"In\": 1}, \"2\": {\"In\": 1}, \"3\": {\"In\": 1}, \"4\": {\"O\": 1}, \"5\": {\"O\": 1}, \"6\": {\"O\": 1}, \"7\": {\"O\": 1}, \"8\": {\"O\": 1}, \"9\": {\"O\": 1}}" n_minim_iter=3 energy=-11286.747855628219 stress="0.10346563334419559 -0.0001340491342113526 -9.255904329806414e-05 -0.0001340491342113526 0.10364160284106215 -4.996366640737422e-05 -9.255904329806414e-05 -4.996366640737422e-05 0.10367946378090219" free_energy=-11286.747855628219 pbc="T T T"
In      11.10839788       5.99634856       4.14039442        0       0.00126520       0.00068296       0.00047157
In       8.35579185       4.51048306       3.11442517        1      -0.00126520      -0.00068296      -0.00047157
In       4.62033464       2.49407136       1.72212123        2       0.00126520       0.00068296       0.00047157
In       1.86772861       1.00820586       0.69615197        3      -0.00126520      -0.00068296      -0.00047157
O        6.31992547       2.43233814       0.26933725        4       0.00000000      -0.00186052       0.00269451
O        7.47479851       5.35360036       1.23932379        5       0.00155540      -0.00288143      -0.00000000
O        8.57722183       2.33215359       2.65742327        6      -0.00155540       0.00102091       0.00269451
O        4.39890467       4.67240083       2.17912313        7       0.00155540      -0.00102091      -0.00269451
O        6.65620102       4.57221628       4.56720914        8      -0.00000000       0.00186052      -0.00269451
O        5.50132798       1.65095406       3.59722261        9      -0.00155540       0.00288143       0.00000000
