10
Lattice="5.210129672335807 -0.2607849796404684 -0.18006836389850148 2.6408944276490143 4.498792796981482 -0.18006836389849631 2.6408944276490205 1.4255632241875922 4.270752947630357" Properties=species:S:1:pos:R:3:spacegroup_kinds:I:1:forces:R:3 spacegroup="P 1" unit_cell=conventional occupancy="_JSON {\"0\": {\"In\": 1}, \"1\": {\"In\": 1}, \"2\": {\"In\": 1}, \"3\": {\"In\": 1}, \"4\": {\"O\": 1}, \"5\": {\"O\": 1}, \"6\": {\"O\": 1}, \"7\": {\"O\": 1}, \"8\": {\"O\": 1}, \"9\": {\"O\": 1}}" n_minim_iter=5 energy=-11284.354383433872 stress="-0.2995852812355675 -7.200129739225256e-07 -4.9715889120753e-07 -7.200129739225256e-07 -0.29958433605707374 -2.6836804377695e-07 -4.9715889120753e-07 -2.6836804377695e-07 -0.29958413269648676" free_energy=-11284.354383433872 pbc="T T T"
In       9.08949714       4.90653951       3.38789659        0      -0.00011385      -0.00006145      -0.00004243
In       6.64838064       3.58881705       2.47802774        1       0.00011385       0.00006145       0.00004243
In       3.84353788       2.07475399       1.43258848        2      -0.00011385      -0.00006145      -0.00004243
In       1.40242137       0.75703153       0.52271963        3       0.00011385       0.00006145       0.00004243
O        5.22804446       1.92564821      -0.03947784        4      -0.00000000       0.00003934      -0.00005698
O        6.01332481       4.52630777       0.79758569        5      -0.00003289       0.00006093       0.00000000
O        7.08365855       1.64701872       2.09589863        6       0.00003289      -0.00002159      -0.00005698
O        3.40825997       4.01655232       1.81471758        7      -0.00003289       0.00002159       0.00005698
O        5.26387405       3.73792283       3.95009406        8      -0.00000000      -0.00003934       0.00005698
O        4.47859371       1.13726327       3.11303053        9       0.00003289      -0.00006093       0.00000000
