10
Lattice="6.104291687554781 0.04177500149831204 0.028845051513431582 3.3844823117757015 5.080295428297249 0.02884505151343203 3.3844823117756997 1.8269543326182738 4.74051384791798" Properties=species:S:1:pos:R:3:spacegroup_kinds:I:1:forces:R:3 spacegroup="P 1" unit_cell=conventional occupancy="_JSON {\"0\": {\"In\": 1}, \"1\": {\"In\": 1}, \"2\": {\"In\": 1}, \"3\": {\"In\": 1}, \"4\": {\"O\": 1}, \"5\": {\"O\": 1}, \"6\": {\"O\": 1}, \"7\": {\"O\": 1}, \"8\": {\"O\": 1}, \"9\": {\"O\": 1}}" n_minim_iter=3 energy=-11287.066964285377 stress="0.08867340609683991 0.00010853252289998232 7.494018245629809e-05 0.00010853252289998232 0.08853093286410511 4.0452949088657727e-05 7.494018245629809e-05 4.0452949088657727e-05 0.08850027885522017" free_energy=-11287.066964285377 pbc="T T T"
In      11.01893793       5.94805780       4.10705032        0      -0.00137637      -0.00074297      -0.00051301
In       8.29094655       4.47547936       3.09025561        1       0.00137637       0.00074297       0.00051301
In       4.58230977       2.47354541       1.70794835        2      -0.00137637      -0.00074297      -0.00051301
In       1.85431839       1.00096698       0.69115363        3       0.00137637       0.00074297       0.00051301
O        6.27045993       2.41440444       0.26354036        4       0.00000000      -0.00389732       0.00564431
O        7.41406383       5.31465675       1.22839604        5       0.00325818      -0.00603586      -0.00000000
O        8.51133833       2.31151626       2.63379728        6      -0.00325818       0.00213854       0.00564431
O        4.36191799       4.63750851       2.16440667        7       0.00325818      -0.00213854      -0.00564431
O        6.60279639       4.53462034       4.53466360        8      -0.00000000       0.00389732      -0.00564431
O        5.45919249       1.63436802       3.56980791        9      -0.00325818       0.00603586       0.00000000
