10
Lattice="6.151787741735376 0.043718802205420904 0.030187218587446708 3.4121694613771836 5.118935760475693 0.030187218587446267 3.4121694613771902 1.8418999441661115 4.776172021998759" Properties=species:S:1:pos:R:3:spacegroup_kinds:I:1:forces:R:3 spacegroup="P 1" unit_cell=conventional occupancy="_JSON {\"0\": {\"In\": 1}, \"1\": {\"In\": 1}, \"2\": {\"In\": 1}, \"3\": {\"In\": 1}, \"4\": {\"O\": 1}, \"5\": {\"O\": 1}, \"6\": {\"O\": 1}, \"7\": {\"O\": 1}, \"8\": {\"O\": 1}, \"9\": {\"O\": 1}}" n_minim_iter=3 energy=-11286.747855617617 stress="0.10346563729278767 -0.00013404330859745329 -9.255502090207214e-05 -0.00013404330859745329 0.10364159914132398 -4.99614957772744e-05 -9.255502090207214e-05 -4.99614957772744e-05 0.1036794584361558" free_energy=-11286.747855617617 pbc="T T T"
In      11.10839805       5.99634865       4.14039448        0       0.00126500       0.00068285       0.00047150
In       8.35579196       4.51048312       3.11442521        1      -0.00126500      -0.00068285      -0.00047150
In       4.62033471       2.49407140       1.72212125        2       0.00126500       0.00068285       0.00047150
In       1.86772863       1.00820587       0.69615198        3      -0.00126500      -0.00068285      -0.00047150
O        6.31992554       2.43233817       0.26933731        4      -0.00000000      -0.00186043       0.00269437
O        7.47479863       5.35360039       1.23932384        5       0.00155532      -0.00288128       0.00000000
O        8.57722192       2.33215367       2.65742332        6      -0.00155532       0.00102086       0.00269437
O        4.39890476       4.67240085       2.17912314        7       0.00155532      -0.00102086      -0.00269437
O        6.65620113       4.57221634       4.56720915        8       0.00000000       0.00186043      -0.00269437
O        5.50132805       1.65095412       3.59722263        9      -0.00155532       0.00288128       0.00000000
