10
Lattice="5.4433859994269085 -0.18541731676525575 -0.12802805174745535 2.83189501191603 4.652440366259241 -0.1280280517474508 2.831895011916038 1.5286659479764309 4.39599510499385" Properties=species:S:1:pos:R:3:spacegroup_kinds:I:1:forces:R:3 spacegroup="P 1" unit_cell=conventional occupancy="_JSON {\"0\": {\"In\": 1}, \"1\": {\"In\": 1}, \"2\": {\"In\": 1}, \"3\": {\"In\": 1}, \"4\": {\"O\": 1}, \"5\": {\"O\": 1}, \"6\": {\"O\": 1}, \"7\": {\"O\": 1}, \"8\": {\"O\": 1}, \"9\": {\"O\": 1}}" n_minim_iter=8 energy=-11286.473289466747 stress="-0.1403534311331287 4.101380366998036e-06 2.831945582970832e-06 4.101380366998036e-06 -0.14035881511303772 1.5286932497130356e-06 2.831945582970832e-06 1.5286932497130356e-06 -0.14035997351025972" free_energy=-11286.473289466747 pbc="T T T"
In       9.60242477       5.18341948       3.57907831        0       0.00020062       0.00010829       0.00007478
In       7.05833927       3.81011402       2.63083019        1      -0.00020062      -0.00010829      -0.00007478
In       4.04883676       2.18557498       1.50910881        2       0.00020062       0.00010829       0.00007478
In       1.50475126       0.81226953       0.56086069        3      -0.00020062      -0.00010829      -0.00007478
O        5.49848701       2.05619769       0.02962775        4       0.00000000      -0.00007122       0.00010314
O        6.37104457       4.73907835       0.90695670        5       0.00005954      -0.00011029       0.00000000
O        7.45782446       1.81388610       2.22762530        6      -0.00005954       0.00003908       0.00010314
O        3.64935157       4.18180291       1.91231370        7       0.00005954      -0.00003908      -0.00010314
O        5.60868902       3.93949131       4.11031126        8      -0.00000000       0.00007122      -0.00010314
O        4.73613146       1.25661066       3.23298230        9      -0.00005954       0.00011029       0.00000000
