10
Lattice="5.5358492760275055 -0.0860755816823473 -0.05943397961999408 2.965681817528813 4.675229146238204 -0.05943397961998986 2.965681817528818 1.6008844918024718 4.393002254913487" Properties=species:S:1:pos:R:3:spacegroup_kinds:I:1:forces:R:3 spacegroup="P 1" unit_cell=conventional occupancy="_JSON {\"0\": {\"In\": 1}, \"1\": {\"In\": 1}, \"2\": {\"In\": 1}, \"3\": {\"In\": 1}, \"4\": {\"O\": 1}, \"5\": {\"O\": 1}, \"6\": {\"O\": 1}, \"7\": {\"O\": 1}, \"8\": {\"O\": 1}, \"9\": {\"O\": 1}}" n_minim_iter=1 energy=-11286.423135137593 stress="-0.16091757603357357 0.006810956638025731 0.004702869851235341 0.006810956638025731 -0.1698584813216324 0.0025386241259192726 0.004702869851235341 0.0025386241259192726 -0.17178217312377278" free_energy=-11286.423135137593 pbc="T T T"
In       9.88063010       5.33359560       3.68277281        0       0.11713375       0.06322917       0.04365885
In       7.32018928       3.95146149       2.72842863        1      -0.11713375      -0.06322917      -0.04365885
In       4.14702364       2.23857657       1.54570567        2       0.11713375       0.06322917       0.04365885
In       1.58658282       0.85644246       0.59136149        3      -0.11713375      -0.06322917      -0.04365885
O        5.63472787       2.14281955       0.11432592        4      -0.00000000       0.02455977      -0.03556881
O        6.58390682       4.83070951       1.00909960        5      -0.02053209       0.03803625       0.00000000
O        7.65123074       1.95463858       2.31082704        6       0.02053209      -0.01347648      -0.03556881
O        3.81598218       4.23539948       1.96330726        7      -0.02053209       0.01347648       0.03556881
O        5.83248505       4.04721852       4.15980838        8      -0.00000000      -0.02455977       0.03556881
O        4.88330610       1.35932856       3.26503470        9       0.02053209      -0.03803625       0.00000000
10
Lattice="5.477609385980501 -0.14828828624057463 -0.10239097790626295 2.8817141863844857 4.66067777787826 -0.10239097790625862 2.8817141863844897 1.5555584970454366 4.394614775362515" Properties=species:S:1:pos:R:3:spacegroup_kinds:I:1:forces:R:3 spacegroup="P 1" unit_cell=conventional occupancy="_JSON {\"0\": {\"In\": 1}, \"1\": {\"In\": 1}, \"2\": {\"In\": 1}, \"3\": {\"In\": 1}, \"4\": {\"O\": 1}, \"5\": {\"O\": 1}, \"6\": {\"O\": 1}, \"7\": {\"O\": 1}, \"8\": {\"O\": 1}, \"9\": {\"O\": 1}}" n_minim_iter=2 energy=-11286.447331295627 stress="-0.1525534098364536 0.0006938229985276904 0.0004790750310218065 0.0006938229985276904 -0.1534642078416266 0.00025860622790790743 0.0004790750310218065 0.00025860622790790743 -0.15366017173996518" free_energy=-11286.447331295627 pbc="T T T"
In       9.68738847       5.22928315       3.61074653        0       0.27417340       0.14799967       0.10219170
In       7.17416818       3.87263884       2.67400270        1      -0.27417340      -0.14799967      -0.10219170
In       4.06686959       2.19530916       1.51583012        2       0.27417340       0.14799967       0.10219170
In       1.55364930       0.83866485       0.57908629        3      -0.27417340      -0.14799967      -0.10219170
O        5.54906414       2.08793499       0.06200455        4       0.00000000      -0.05606788       0.08120062
O        6.45062099       4.77225003       0.94506723        5       0.04687303      -0.08683356       0.00000000
O        7.52922147       1.86664596       2.25931194        6      -0.04687303       0.03076567       0.08120062
O        3.71181630       4.20130204       1.93052088        7       0.04687303      -0.03076567      -0.08120062
O        5.69197363       3.98001301       4.12782827        8      -0.00000000       0.05606788      -0.08120062
O        4.79041678       1.29569797       3.24476559        9      -0.04687303       0.08683356       0.00000000
10
Lattice="5.424413449798866 -0.20619211402599497 -0.14237275732912452 2.8041165253797384 4.647978805280598 -0.14237275732911997 2.8041165253797438 1.5136710324602582 4.396905386957716" Properties=species:S:1:pos:R:3:spacegroup_kinds:I:1:forces:R:3 spacegroup="P 1" unit_cell=conventional occupancy="_JSON {\"0\": {\"In\": 1}, \"1\": {\"In\": 1}, \"2\": {\"In\": 1}, \"3\": {\"In\": 1}, \"4\": {\"O\": 1}, \"5\": {\"O\": 1}, \"6\": {\"O\": 1}, \"7\": {\"O\": 1}, \"8\": {\"O\": 1}, \"9\": {\"O\": 1}}" n_minim_iter=3 energy=-11286.46069362623 stress="-0.14259789100641485 -0.003840985696117386 -0.0026521466499019293 -0.003840985696117386 -0.13755573743722435 -0.0014316372094863626 -0.0026521466499019293 -0.0014316372094863626 -0.13647088649923003" free_energy=-11286.46069362623 pbc="T T T"
In       9.52149069       5.13973101       3.54891204        0       0.20630890       0.11136620       0.07689680
In       7.02747907       3.79345559       2.61932778        1      -0.20630890      -0.11136620      -0.07689680
In       4.00516744       2.16200215       1.49283210        2       0.20630890       0.11136620       0.07689680
In       1.51115582       0.81572673       0.56324784        3      -0.20630890      -0.11136620      -0.07689680
O        5.47036835       2.03428919       0.01762983        4       0.00000000      -0.03905426       0.05656054
O        6.33025999       4.71413613       0.88566721        5       0.03264955      -0.06048418      -0.00000000
O        7.41459325       1.78674636       2.21608252        6      -0.03264955       0.02142992       0.05656054
O        3.61805326       4.16871137       1.89607735        7       0.03264955      -0.02142992      -0.05656054
O        5.56227815       3.92116855       4.09453005        8      -0.00000000       0.03905426      -0.05656054
O        4.70238652       1.24132161       3.22649266        9      -0.03264955       0.06048418      -0.00000000
10
Lattice="5.436846611142544 -0.19256218727476634 -0.1329614844347512 2.8223335593387975 4.650893951585034 -0.13296148443474654 2.822333559338802 1.5235046454187768 4.396296953189202" Properties=species:S:1:pos:R:3:spacegroup_kinds:I:1:forces:R:3 spacegroup="P 1" unit_cell=conventional occupancy="_JSON {\"0\": {\"In\": 1}, \"1\": {\"In\": 1}, \"2\": {\"In\": 1}, \"3\": {\"In\": 1}, \"4\": {\"O\": 1}, \"5\": {\"O\": 1}, \"6\": {\"O\": 1}, \"7\": {\"O\": 1}, \"8\": {\"O\": 1}, \"9\": {\"O\": 1}}" n_minim_iter=4 energy=-11286.468627256128 stress="-0.1423440972589868 -0.0013454314536505015 -0.0009290015129377835 -0.0013454314536505015 -0.1405779172881204 -0.0005014779757608486 -0.0009290015129377835 -0.0005014779757608486 -0.140197912599269" free_energy=-11286.468627256128 pbc="T T T"
In       9.56823320       5.16496276       3.56633421        0       0.11250898       0.06073270       0.04193508
In       7.05403740       3.80779186       2.62922677        1      -0.11250898      -0.06073270      -0.04193508
In       4.02747633       2.17404456       1.50114722        2       0.11250898       0.06073270       0.04193508
In       1.51328054       0.81687366       0.56403978        3      -0.11250898      -0.06073270      -0.04193508
O        5.48880174       2.04543940       0.03016121        4       0.00000000       0.00610556      -0.00884241
O        6.35969078       4.72550412       0.89963201        5      -0.00510428       0.00945581      -0.00000000
O        7.44024626       1.80631260       2.22830969        6       0.00510428      -0.00335025      -0.00884241
O        3.64126747       4.17552383       1.90206430        7      -0.00510428       0.00335025       0.00884241
O        5.59271200       3.93639702       4.10021277        8       0.00000000      -0.00610556       0.00884241
O        4.72182296       1.25633230       3.23074197        9       0.00510428      -0.00945581       0.00000000
10
Lattice="5.440378829645714 -0.18870088316652936 -0.13029530820695095 2.827499834281038 4.651728121946275 -0.1302953082069464 2.827499834281044 1.5262934170889335 4.396132367524601" Properties=species:S:1:pos:R:3:spacegroup_kinds:I:1:forces:R:3 spacegroup="P 1" unit_cell=conventional occupancy="_JSON {\"0\": {\"In\": 1}, \"1\": {\"In\": 1}, \"2\": {\"In\": 1}, \"3\": {\"In\": 1}, \"4\": {\"O\": 1}, \"5\": {\"O\": 1}, \"6\": {\"O\": 1}, \"7\": {\"O\": 1}, \"8\": {\"O\": 1}, \"9\": {\"O\": 1}}" n_minim_iter=5 energy=-11286.471087117245 stress="-0.1409539918780705 1.3839570084161466e-05 9.556028800547074e-06 1.3839570084161466e-05 -0.14097215941159058 5.158374622919308e-06 9.556028800547074e-06 5.158374622919308e-06 -0.1409760682708247" free_energy=-11286.471087117245 pbc="T T T"
In       9.58647059       5.17480736       3.57313177        0       0.02144933       0.01157842       0.00799473
In       7.05659717       3.80917363       2.63018087        1      -0.02144933      -0.01157842      -0.00799473
In       4.03878134       2.18014703       1.50536089        2       0.02144933       0.01157842       0.00799473
In       1.50890792       0.81451330       0.56240999        3      -0.02144933      -0.01157842      -0.00799473
O        5.49403404       2.04837510       0.03404046        4      -0.00000000       0.04026740      -0.05831748
O        6.36823022       4.72838169       0.90359013        5      -0.03366375       0.06236301      -0.00000000
O        7.44733771       1.81198390       2.23210665        6       0.03366375      -0.02209560      -0.05831748
O        3.64804080       4.17733677       1.90343511        7      -0.03366375       0.02209560       0.05831748
O        5.60134446       3.94094557       4.10150129        8       0.00000000      -0.04026740       0.05831748
O        4.72714829       1.26093897       3.23195162        9       0.03366375      -0.06236301       0.00000000
10
Lattice="5.446492177049922 -0.1820292686332536 -0.12568865212106542 2.8364318645645303 4.653178050213441 -0.1256886521210609 2.836431864564537 1.5311149554875025 4.39585607104493" Properties=species:S:1:pos:R:3:spacegroup_kinds:I:1:forces:R:3 spacegroup="P 1" unit_cell=conventional occupancy="_JSON {\"0\": {\"In\": 1}, \"1\": {\"In\": 1}, \"2\": {\"In\": 1}, \"3\": {\"In\": 1}, \"4\": {\"O\": 1}, \"5\": {\"O\": 1}, \"6\": {\"O\": 1}, \"7\": {\"O\": 1}, \"8\": {\"O\": 1}, \"9\": {\"O\": 1}}" n_minim_iter=6 energy=-11286.47251542972 stress="-0.14026077144523974 0.0009630425578680742 0.0006649673535651649 0.0009630425578680742 -0.1415249803894155 0.00035895149567574696 0.0006649673535651649 0.00035895149567574696 -0.14179698286588255" free_energy=-11286.47251542972 pbc="T T T"
In       9.61297817       5.18911624       3.58301185        0      -0.03195853      -0.01725131      -0.01191179
In       7.06605569       3.81427937       2.63370631        1       0.03195853       0.01725131       0.01191179
In       4.05330022       2.18798437       1.51077246        2      -0.03195853      -0.01725131      -0.01191179
In       1.50637774       0.81314751       0.56146692        3       0.03195853       0.01725131       0.01191179
O        5.50308507       2.05711101       0.03544352        4      -0.00000000       0.03174528      -0.04597527
O        6.37993786       4.73903020       0.91043104        5      -0.02653921       0.04916461      -0.00000000
O        7.46266415       1.81977862       2.23337156        6       0.02653921      -0.01741933      -0.04597527
O        3.65669177       4.18248512       1.91110721        7      -0.02653921       0.01741933       0.04597527
O        5.61627085       3.94515273       4.10903525        8      -0.00000000      -0.03174528       0.04597527
O        4.73941806       1.26323355       3.23404773        9       0.02653921      -0.04916461      -0.00000000
10
Lattice="5.4441694190166325 -0.1845624587711511 -0.12743778431496655 2.8330395569043945 4.652626229685607 -0.12743778431496214 2.8330395569044016 1.5292837770069125 4.395959775909351" Properties=species:S:1:pos:R:3:spacegroup_kinds:I:1:forces:R:3 spacegroup="P 1" unit_cell=conventional occupancy="_JSON {\"0\": {\"In\": 1}, \"1\": {\"In\": 1}, \"2\": {\"In\": 1}, \"3\": {\"In\": 1}, \"4\": {\"O\": 1}, \"5\": {\"O\": 1}, \"6\": {\"O\": 1}, \"7\": {\"O\": 1}, \"8\": {\"O\": 1}, \"9\": {\"O\": 1}}" n_minim_iter=7 energy=-11286.473177234158 stress="-0.14025346650395445 0.0003315911177155999 0.00022895900726348117 0.0003315911177155999 -0.14068875407621428 0.00012359280155452068 0.00022895900726348117 0.00012359280155452068 -0.14078240892520338" free_energy=-11286.473177234158 pbc="T T T"
In       9.60520426       5.18491986       3.58011430        0      -0.01295274      -0.00699193      -0.00482783
In       7.06016855       3.81110148       2.63151201        1       0.01295274       0.00699193       0.00482783
In       4.05007999       2.18624608       1.50957220        2      -0.01295274      -0.00699193      -0.00482783
In       1.50504428       0.81242770       0.56096991        3       0.01295274       0.00699193       0.00482783
O        5.49964685       2.05613004       0.03152670        4       0.00000000       0.01233892      -0.01786990
O        6.37353721       4.73860444       0.90783327        5      -0.01031540       0.01910955       0.00000000
O        7.45879604       1.81553626       2.22950659        6       0.01031540      -0.00677063      -0.01786990
O        3.65145250       4.18181129       1.91157762        7      -0.01031540       0.00677063       0.01786990
O        5.61060169       3.94121752       4.10955751        8      -0.00000000      -0.01233892       0.01786990
O        4.73671133       1.25874312       3.23325094        9       0.01031540      -0.01910955      -0.00000000
10
Lattice="5.4433859994269085 -0.18541731676525575 -0.12802805174745535 2.83189501191603 4.652440366259241 -0.1280280517474508 2.831895011916038 1.5286659479764309 4.39599510499385" Properties=species:S:1:pos:R:3:spacegroup_kinds:I:1:forces:R:3 spacegroup="P 1" unit_cell=conventional occupancy="_JSON {\"0\": {\"In\": 1}, \"1\": {\"In\": 1}, \"2\": {\"In\": 1}, \"3\": {\"In\": 1}, \"4\": {\"O\": 1}, \"5\": {\"O\": 1}, \"6\": {\"O\": 1}, \"7\": {\"O\": 1}, \"8\": {\"O\": 1}, \"9\": {\"O\": 1}}" n_minim_iter=8 energy=-11286.473289466747 stress="-0.1403534311331287 4.101380366998036e-06 2.831945582970832e-06 4.101380366998036e-06 -0.14035881511303772 1.5286932497130356e-06 2.831945582970832e-06 1.5286932497130356e-06 -0.14035997351025972" free_energy=-11286.473289466747 pbc="T T T"
In       9.60242477       5.18341948       3.57907831        0       0.00020062       0.00010829       0.00007478
In       7.05833927       3.81011402       2.63083019        1      -0.00020062      -0.00010829      -0.00007478
In       4.04883676       2.18557498       1.50910881        2       0.00020062       0.00010829       0.00007478
In       1.50475126       0.81226953       0.56086069        3      -0.00020062      -0.00010829      -0.00007478
O        5.49848701       2.05619769       0.02962775        4       0.00000000      -0.00007122       0.00010314
O        6.37104457       4.73907835       0.90695670        5       0.00005954      -0.00011029       0.00000000
O        7.45782446       1.81388610       2.22762530        6      -0.00005954       0.00003908       0.00010314
O        3.64935157       4.18180291       1.91231370        7       0.00005954      -0.00003908      -0.00010314
O        5.60868902       3.93949131       4.11031126        8      -0.00000000       0.00007122      -0.00010314
O        4.73613146       1.25661066       3.23298230        9      -0.00005954       0.00011029       0.00000000
