10
Lattice="5.535849349823126 -0.08607550511145472 -0.059433926748870325 2.9656819220356914 4.675229165915614 -0.059433926748881205 2.9656819220356954 1.6008845482156477 4.393002254581844" Properties=species:S:1:pos:R:3:spacegroup_kinds:I:1:forces:R:3 spacegroup="P 1" unit_cell=conventional occupancy="_JSON {\"0\": {\"In\": 1}, \"1\": {\"In\": 1}, \"2\": {\"In\": 1}, \"3\": {\"In\": 1}, \"4\": {\"O\": 1}, \"5\": {\"O\": 1}, \"6\": {\"O\": 1}, \"7\": {\"O\": 1}, \"8\": {\"O\": 1}, \"9\": {\"O\": 1}}" n_minim_iter=1 energy=-11286.423135067182 stress="-0.16091759542491443 0.0068109572139895555 0.004702870248844807 0.0068109572139895555 -0.1698585014689558 0.0025386243405286736 0.004702870248844807 0.0025386243405286736 -0.17178219343387524" free_energy=-11286.423135067182 pbc="T T T"
In       9.88063030       5.33359571       3.68277289        0       0.11713396       0.06322928       0.04365893
In       7.32018950       3.95146161       2.72842872        1      -0.11713396      -0.06322928      -0.04365893
In       4.14702370       2.23857661       1.54570569        2       0.11713396       0.06322928       0.04365893
In       1.58658291       0.85644251       0.59136152        3      -0.11713396      -0.06322928      -0.04365893
O        5.63472798       2.14281961       0.11432599        4       0.00000000       0.02455979      -0.03556885
O        6.58390700       4.83070957       1.00909968        5      -0.02053211       0.03803629       0.00000000
O        7.65123088       1.95463870       2.31082712        6       0.02053211      -0.01347649      -0.03556885
O        3.81598232       4.23539952       1.96330729        7      -0.02053211       0.01347649       0.03556885
O        5.83248522       4.04721861       4.15980841        8       0.00000000      -0.02455979       0.03556885
O        4.88330621       1.35932865       3.26503473        9       0.02053211      -0.03803629       0.00000000
10
Lattice="5.477609452813831 -0.14828821569907608 -0.10239092919835072 2.881714282030402 4.660677795043622 -0.10239092919836179 2.881714282030405 1.5555585486754369 4.394614774156833" Properties=species:S:1:pos:R:3:spacegroup_kinds:I:1:forces:R:3 spacegroup="P 1" unit_cell=conventional occupancy="_JSON {\"0\": {\"In\": 1}, \"1\": {\"In\": 1}, \"2\": {\"In\": 1}, \"3\": {\"In\": 1}, \"4\": {\"O\": 1}, \"5\": {\"O\": 1}, \"6\": {\"O\": 1}, \"7\": {\"O\": 1}, \"8\": {\"O\": 1}, \"9\": {\"O\": 1}}" n_minim_iter=2 energy=-11286.447331249166 stress="-0.15255342809449376 0.000693826952760837 0.0004790777613245288 0.000693826952760837 -0.15346423129012066 0.00025860770177997354 0.0004790777613245288 0.00025860770177997354 -0.1536601963055629" free_energy=-11286.447331249166 pbc="T T T"
In       9.68738865       5.22928325       3.61074660        0       0.27417359       0.14799978       0.10219177
In       7.17416839       3.87263895       2.67400278        1      -0.27417359      -0.14799978      -0.10219177
In       4.06686964       2.19530919       1.51583014        2       0.27417359       0.14799978       0.10219177
In       1.55364938       0.83866489       0.57908632        3      -0.27417359      -0.14799978      -0.10219177
O        5.54906423       2.08793505       0.06200462        4       0.00000000      -0.05606784       0.08120055
O        6.45062115       4.77225008       0.94506730        5       0.04687299      -0.08683348       0.00000000
O        7.52922160       1.86664607       2.25931201        6      -0.04687299       0.03076565       0.08120055
O        3.71181642       4.20130207       1.93052091        7       0.04687299      -0.03076565      -0.08120055
O        5.69197379       3.98001309       4.12782830        8       0.00000000       0.05606784      -0.08120055
O        4.79041688       1.29569805       3.24476562        9      -0.04687299       0.08683348       0.00000000
10
Lattice="5.424413484422437 -0.20619207755636526 -0.14237273214735868 2.8041165748672046 4.647978814214412 -0.14237273214736995 2.8041165748672063 1.51367105917378 4.396905386389935" Properties=species:S:1:pos:R:3:spacegroup_kinds:I:1:forces:R:3 spacegroup="P 1" unit_cell=conventional occupancy="_JSON {\"0\": {\"In\": 1}, \"1\": {\"In\": 1}, \"2\": {\"In\": 1}, \"3\": {\"In\": 1}, \"4\": {\"O\": 1}, \"5\": {\"O\": 1}, \"6\": {\"O\": 1}, \"7\": {\"O\": 1}, \"8\": {\"O\": 1}, \"9\": {\"O\": 1}}" n_minim_iter=3 energy=-11286.460693582594 stress="-0.14259790700335498 -0.0038409874320793403 -0.002652147848466239 -0.0038409874320793403 -0.13755575115523325 -0.0014316378565128228 -0.002652147848466239 -0.0014316378565128228 -0.13647089972734058" free_energy=-11286.460693582594 pbc="T T T"
In       9.52149075       5.13973104       3.54891206        0       0.20630956       0.11136656       0.07689704
In       7.02747921       3.79345567       2.61932783        1      -0.20630956      -0.11136656      -0.07689704
In       4.00516743       2.16200214       1.49283210        2       0.20630956       0.11136656       0.07689704
In       1.51115590       0.81572677       0.56324787        3      -0.20630956      -0.11136656      -0.07689704
O        5.47036840       2.03428922       0.01762986        4      -0.00000000      -0.03905444       0.05656080
O        6.33026007       4.71413616       0.88566725        5       0.03264970      -0.06048446      -0.00000000
O        7.41459332       1.78674641       2.21608255        6      -0.03264970       0.02143002       0.05656080
O        3.61805332       4.16871139       1.89607737        7       0.03264970      -0.02143002      -0.05656080
O        5.56227824       3.92116859       4.09453007        8      -0.00000000       0.03905444      -0.05656080
O        4.70238658       1.24132164       3.22649268        9      -0.03264970       0.06048446      -0.00000000
10
Lattice="5.436846595460033 -0.19256220599291168 -0.13296149735936869 2.822333535084965 4.65089394874545 -0.13296149735937965 2.822333535084965 1.5235046323265116 4.396296955113104" Properties=species:S:1:pos:R:3:spacegroup_kinds:I:1:forces:R:3 spacegroup="P 1" unit_cell=conventional occupancy="_JSON {\"0\": {\"In\": 1}, \"1\": {\"In\": 1}, \"2\": {\"In\": 1}, \"3\": {\"In\": 1}, \"4\": {\"O\": 1}, \"5\": {\"O\": 1}, \"6\": {\"O\": 1}, \"7\": {\"O\": 1}, \"8\": {\"O\": 1}, \"9\": {\"O\": 1}}" n_minim_iter=4 energy=-11286.46862723733 stress="-0.1423441055863432 -0.0013454385757884998 -0.0009290064304980447 -0.0013454385757884998 -0.1405779162653592 -0.0005014806304158136 -0.0009290064304980447 -0.0005014806304158136 -0.14019790956521944" free_energy=-11286.46862723733 pbc="T T T"
In       9.56823310       5.16496271       3.56633417        0       0.11250952       0.06073300       0.04193528
In       7.05403741       3.80779186       2.62922677        1      -0.11250952      -0.06073300      -0.04193528
In       4.02747627       2.17404452       1.50114719        2       0.11250952       0.06073300       0.04193528
In       1.51328057       0.81687368       0.56403979        3      -0.11250952      -0.06073300      -0.04193528
O        5.48880172       2.04543938       0.03016120        4      -0.00000000       0.00610541      -0.00884219
O        6.35969074       4.72550410       0.89963199        5      -0.00510415       0.00945558       0.00000000
O        7.44024623       1.80631257       2.22830968        6       0.00510415      -0.00335017      -0.00884219
O        3.64126745       4.17552381       1.90206428        7      -0.00510415       0.00335017       0.00884219
O        5.59271196       3.93639700       4.10021276        8       0.00000000      -0.00610541       0.00884219
O        4.72182293       1.25633229       3.23074197        9       0.00510415      -0.00945558       0.00000000
10
Lattice="5.440378820938791 -0.1887008942407522 -0.13029531585354748 2.8274998202452237 4.651728120743934 -0.1302953158535584 2.8274998202452237 1.526293409512386 4.396132369109503" Properties=species:S:1:pos:R:3:spacegroup_kinds:I:1:forces:R:3 spacegroup="P 1" unit_cell=conventional occupancy="_JSON {\"0\": {\"In\": 1}, \"1\": {\"In\": 1}, \"2\": {\"In\": 1}, \"3\": {\"In\": 1}, \"4\": {\"O\": 1}, \"5\": {\"O\": 1}, \"6\": {\"O\": 1}, \"7\": {\"O\": 1}, \"8\": {\"O\": 1}, \"9\": {\"O\": 1}}" n_minim_iter=5 energy=-11286.471087123165 stress="-0.1409539904676645 1.3838974747401952e-05 9.55561750941637e-06 1.3838974747401952e-05 -0.1409721572203754 5.158152987672874e-06 9.55561750941637e-06 5.158152987672874e-06 -0.1409760659107889" free_energy=-11286.471087123165 pbc="T T T"
In       9.58647055       5.17480734       3.57313175        0       0.02144933       0.01157842       0.00799474
In       7.05659715       3.80917362       2.63018086        1      -0.02144933      -0.01157842      -0.00799474
In       4.03878132       2.18014702       1.50536088        2       0.02144933       0.01157842       0.00799474
In       1.50890792       0.81451331       0.56240999        3      -0.02144933      -0.01157842      -0.00799474
O        5.49403403       2.04837508       0.03404046        4       0.00000000       0.04026747      -0.05831758
O        6.36823020       4.72838167       0.90359012        5      -0.03366381       0.06236311       0.00000000
O        7.44733768       1.81198389       2.23210665        6       0.03366381      -0.02209564      -0.05831758
O        3.64804079       4.17733676       1.90343509        7      -0.03366381       0.02209564       0.05831758
O        5.60134444       3.94094557       4.10150128        8      -0.00000000      -0.04026747       0.05831758
O        4.72714827       1.26093897       3.23195162        9       0.03366381      -0.06236311       0.00000000
10
Lattice="5.446492178438282 -0.18202926867850674 -0.12568865215231306 2.8364318652884917 4.653178051398977 -0.12568865215232394 2.8364318652884934 1.5311149558783301 4.395856072164637" Properties=species:S:1:pos:R:3:spacegroup_kinds:I:1:forces:R:3 spacegroup="P 1" unit_cell=conventional occupancy="_JSON {\"0\": {\"In\": 1}, \"1\": {\"In\": 1}, \"2\": {\"In\": 1}, \"3\": {\"In\": 1}, \"4\": {\"O\": 1}, \"5\": {\"O\": 1}, \"6\": {\"O\": 1}, \"7\": {\"O\": 1}, \"8\": {\"O\": 1}, \"9\": {\"O\": 1}}" n_minim_iter=6 energy=-11286.472515442178 stress="-0.14026077447168409 0.000963041399621347 0.0006649665537552924 0.000963041399621347 -0.14152498189497167 0.0003589510639047809 0.0006649665537552924 0.0003589510639047809 -0.1417969840447522" free_energy=-11286.472515442178 pbc="T T T"
In       9.61297816       5.18911623       3.58301184        0      -0.03195837      -0.01725123      -0.01191173
In       7.06605571       3.81427939       2.63370632        1       0.03195837       0.01725123       0.01191173
In       4.05330020       2.18798436       1.51077246        2      -0.03195837      -0.01725123      -0.01191173
In       1.50637776       0.81314752       0.56146693        3       0.03195837       0.01725123       0.01191173
O        5.50308507       2.05711101       0.03544353        4       0.00000000       0.03174529      -0.04597529
O        6.37993786       4.73903019       0.91043104        5      -0.02653922       0.04916462      -0.00000000
O        7.46266414       1.81977863       2.23337157        6       0.02653922      -0.01741933      -0.04597529
O        3.65669177       4.18248512       1.91110720        7      -0.02653922       0.01741933       0.04597529
O        5.61627085       3.94515274       4.10903524        8       0.00000000      -0.03174529       0.04597529
O        4.73941806       1.26323356       3.23404773        9       0.02653922      -0.04916462      -0.00000000
10
Lattice="5.444169419794984 -0.18456245948194439 -0.12743778480576035 2.8330395567372375 4.652626230726375 -0.12743778480577114 2.833039556737241 1.5292837769167118 4.395959777056499" Properties=species:S:1:pos:R:3:spacegroup_kinds:I:1:forces:R:3 spacegroup="P 1" unit_cell=conventional occupancy="_JSON {\"0\": {\"In\": 1}, \"1\": {\"In\": 1}, \"2\": {\"In\": 1}, \"3\": {\"In\": 1}, \"4\": {\"O\": 1}, \"5\": {\"O\": 1}, \"6\": {\"O\": 1}, \"7\": {\"O\": 1}, \"8\": {\"O\": 1}, \"9\": {\"O\": 1}}" n_minim_iter=7 energy=-11286.473177247568 stress="-0.1402534654962257 0.00033159002362632826 0.00022895825184405134 0.00033159002362632826 -0.14068875163210082 0.0001235923938300955 0.00022895825184405134 0.0001235923938300955 -0.14078240617183163" free_energy=-11286.473177247568 pbc="T T T"
In       9.60520426       5.18491986       3.58011430        0      -0.01295271      -0.00699192      -0.00482782
In       7.06016855       3.81110147       2.63151201        1       0.01295271       0.00699192       0.00482782
In       4.05007999       2.18624608       1.50957220        2      -0.01295271      -0.00699192      -0.00482782
In       1.50504428       0.81242770       0.56096991        3       0.01295271       0.00699192       0.00482782
O        5.49964685       2.05613004       0.03152669        4      -0.00000000       0.01233886      -0.01786982
O        6.37353721       4.73860445       0.90783327        5      -0.01031535       0.01910947       0.00000000
O        7.45879604       1.81553626       2.22950658        6       0.01031535      -0.00677060      -0.01786982
O        3.65145250       4.18181130       1.91157763        7      -0.01031535       0.00677060       0.01786982
O        5.61060169       3.94121752       4.10955752        8       0.00000000      -0.01233886       0.01786982
O        4.73671133       1.25874311       3.23325094        9       0.01031535      -0.01910947      -0.00000000
10
Lattice="5.443386003024027 -0.1854173144000008 -0.12802805011428103 2.831895015867186 4.652440367968619 -0.12802805011429175 2.831895015867189 1.5286659501093085 4.395995106013699" Properties=species:S:1:pos:R:3:spacegroup_kinds:I:1:forces:R:3 spacegroup="P 1" unit_cell=conventional occupancy="_JSON {\"0\": {\"In\": 1}, \"1\": {\"In\": 1}, \"2\": {\"In\": 1}, \"3\": {\"In\": 1}, \"4\": {\"O\": 1}, \"5\": {\"O\": 1}, \"6\": {\"O\": 1}, \"7\": {\"O\": 1}, \"8\": {\"O\": 1}, \"9\": {\"O\": 1}}" n_minim_iter=8 energy=-11286.473289479194 stress="-0.14035343043048806 4.101417016343745e-06 2.8319708149862453e-06 4.101417016343745e-06 -0.14035881445827503 1.5287067168236376e-06 2.8319708149862453e-06 1.5287067168236376e-06 -0.14035997286548643" free_energy=-11286.473289479194 pbc="T T T"
In       9.60242478       5.18341949       3.57907832        0       0.00020062       0.00010830       0.00007478
In       7.05833928       3.81011403       2.63083020        1      -0.00020062      -0.00010830      -0.00007478
In       4.04883676       2.18557499       1.50910881        2       0.00020062       0.00010830       0.00007478
In       1.50475126       0.81226953       0.56086069        3      -0.00020062      -0.00010830      -0.00007478
O        5.49848701       2.05619770       0.02962775        4      -0.00000000      -0.00007122       0.00010314
O        6.37104458       4.73907836       0.90695670        5       0.00005954      -0.00011030      -0.00000000
O        7.45782447       1.81388610       2.22762530        6      -0.00005954       0.00003908       0.00010314
O        3.64935157       4.18180291       1.91231371        7       0.00005954      -0.00003908      -0.00010314
O        5.60868903       3.93949132       4.11031126        8       0.00000000       0.00007122      -0.00010314
O        4.73613147       1.25661066       3.23298231        9      -0.00005954       0.00011030      -0.00000000
