10
Lattice="6.150190340951889 0.04208911104821311 0.029061939743781018 3.409930502738388 5.118494572596622 0.02906193974377569 3.409930502738387 1.840691347161039 4.776158147562667" Properties=species:S:1:pos:R:3:spacegroup_kinds:I:1:forces:R:3 spacegroup="P 1" unit_cell=conventional occupancy="_JSON {\"0\": {\"In\": 1}, \"1\": {\"In\": 1}, \"2\": {\"In\": 1}, \"3\": {\"In\": 1}, \"4\": {\"O\": 1}, \"5\": {\"O\": 1}, \"6\": {\"O\": 1}, \"7\": {\"O\": 1}, \"8\": {\"O\": 1}, \"9\": {\"O\": 1}}" n_minim_iter=1 energy=-11286.747383643382 stress="0.10341001860990318 -0.00041761732402080634 -0.00028835889401988124 -0.00041761732402080634 0.10395823483547743 -0.00015565704959377705 -0.00028835889401988124 -0.00015565704959377705 0.10407618699194067" free_energy=-11286.747383643382 pbc="T T T"
In      11.10179020       5.99278171       4.13793156        0       0.02324502       0.01254773       0.00866403
In       8.35328683       4.50913084       3.11349148        1      -0.02324502      -0.01254773      -0.00866403
In       4.61676452       2.49214420       1.72079055        2       0.02324502       0.01254773       0.00866403
In       1.86826116       1.00849333       0.69635047        3      -0.02324502      -0.01254773      -0.00866403
O        6.31760801       2.43255853       0.26552194        4       0.00000000      -0.01855852       0.02687748
O        7.46981077       5.35461808       1.23763245        5       0.01551501      -0.02874198       0.00000000
O        8.57533576       2.32889673       2.65360102        6      -0.01551501       0.01018346       0.02687748
O        4.39471560       4.67237831       2.18068102        7       0.01551501      -0.01018346      -0.02687748
O        6.65244334       4.56871651       4.56876009        8      -0.00000000       0.01855852      -0.02687748
O        5.50024059       1.64665696       3.59664958        9      -0.01551501       0.02874198      -0.00000000
10
Lattice="6.155551317987196 0.047555764501510146 0.03283658713602096 3.41744233749402 5.119976703952336 0.032836587136015616 3.4174423374940193 1.8447462594898658 4.7762067510282185" Properties=species:S:1:pos:R:3:spacegroup_kinds:I:1:forces:R:3 spacegroup="P 1" unit_cell=conventional occupancy="_JSON {\"0\": {\"In\": 1}, \"1\": {\"In\": 1}, \"2\": {\"In\": 1}, \"3\": {\"In\": 1}, \"4\": {\"O\": 1}, \"5\": {\"O\": 1}, \"6\": {\"O\": 1}, \"7\": {\"O\": 1}, \"8\": {\"O\": 1}, \"9\": {\"O\": 1}}" n_minim_iter=2 energy=-11286.747568353403 stress="0.10385454402421745 0.0001967572424408829 0.00013585811069631703 0.0001967572424408829 0.10359625609766654 7.33366410403823e-05 0.00013585811069631703 7.33366410403823e-05 0.10354068383143257" free_energy=-11286.747568353403 pbc="T T T"
In      11.11957115       6.00237993       4.14455899        0       0.00917538       0.00495290       0.00341991
In       8.36608285       4.51603818       3.11826090        1      -0.00917538      -0.00495290      -0.00341991
In       4.62435315       2.49624056       1.72361903        2       0.00917538       0.00495290       0.00341991
In       1.87086486       1.00989881       0.69732094        3      -0.00917538      -0.00495290      -0.00341991
O        6.32538466       2.43725889       0.27044402        4      -0.00000000      -0.01624045       0.02352032
O        7.48199867       5.35962936       1.24330657        5       0.01357710      -0.02515194       0.00000000
O        8.58621299       2.33683858       2.65854739        6      -0.01357710       0.00891149       0.02352032
O        4.40422301       4.67544016       2.18333254        7       0.01357710      -0.00891149      -0.02352032
O        6.66505134       4.57501985       4.57143591        8       0.00000000       0.01624045      -0.02352032
O        5.50843733       1.65264938       3.59857336        9      -0.01357709       0.02515194       0.00000000
10
Lattice="6.151787693256987 0.04371875434459888 0.030187185540233315 3.412169394764169 5.118935746209779 0.03018718554022797 3.412169394764167 1.841899908208184 4.776172020367127" Properties=species:S:1:pos:R:3:spacegroup_kinds:I:1:forces:R:3 spacegroup="P 1" unit_cell=conventional occupancy="_JSON {\"0\": {\"In\": 1}, \"1\": {\"In\": 1}, \"2\": {\"In\": 1}, \"3\": {\"In\": 1}, \"4\": {\"O\": 1}, \"5\": {\"O\": 1}, \"6\": {\"O\": 1}, \"7\": {\"O\": 1}, \"8\": {\"O\": 1}, \"9\": {\"O\": 1}}" n_minim_iter=3 energy=-11286.747855628219 stress="0.10346563334419559 -0.0001340491342113526 -9.255904329806414e-05 -0.0001340491342113526 0.10364160284106215 -4.996366640737422e-05 -9.255904329806414e-05 -4.996366640737422e-05 0.10367946378090219" free_energy=-11286.747855628219 pbc="T T T"
In      11.10839788       5.99634856       4.14039442        0       0.00126520       0.00068296       0.00047157
In       8.35579185       4.51048306       3.11442517        1      -0.00126520      -0.00068296      -0.00047157
In       4.62033464       2.49407136       1.72212123        2       0.00126520       0.00068296       0.00047157
In       1.86772861       1.00820586       0.69615197        3      -0.00126520      -0.00068296      -0.00047157
O        6.31992547       2.43233814       0.26933725        4       0.00000000      -0.00186052       0.00269451
O        7.47479851       5.35360036       1.23932379        5       0.00155540      -0.00288143      -0.00000000
O        8.57722183       2.33215359       2.65742327        6      -0.00155540       0.00102091       0.00269451
O        4.39890467       4.67240083       2.17912313        7       0.00155540      -0.00102091      -0.00269451
O        6.65620102       4.57221628       4.56720914        8      -0.00000000       0.00186052      -0.00269451
O        5.50132798       1.65095406       3.59722261        9      -0.00155540       0.00288143       0.00000000
