10
Lattice="6.408766190544274 0.12562018449950288 0.0867389721855704 3.621649114068606 5.2888299471984395 0.08673897218557208 3.62164911406862 1.954977727952547 4.915008437722999" Properties=species:S:1:pos:R:3:spacegroup_kinds:I:1:forces:R:3 spacegroup="P 1" unit_cell=conventional occupancy="_JSON {\"0\": {\"In\": 1}, \"1\": {\"In\": 1}, \"2\": {\"In\": 1}, \"3\": {\"In\": 1}, \"4\": {\"O\": 1}, \"5\": {\"O\": 1}, \"6\": {\"O\": 1}, \"7\": {\"O\": 1}, \"8\": {\"O\": 1}, \"9\": {\"O\": 1}}" n_minim_iter=5 energy=-11285.570568114415 stress="0.1301626524789582 -3.459100501214433e-05 -2.3884602985660684e-05 -3.459100501214433e-05 0.1302080609164841 -1.2892984840443568e-05 -2.3884602985660684e-05 -1.2892984840443568e-05 0.13021783082655095" free_energy=-11285.570568114415 pbc="T T T"
In      11.67182023       6.30048574       4.35039687        0      -0.00035853      -0.00019353      -0.00013363
In       8.80627640       4.75365606       3.28233271        1       0.00035853       0.00019353       0.00013363
In       4.84578802       2.61577181       1.80615368        2      -0.00035853      -0.00019353      -0.00013363
In       1.98024420       1.06894213       0.73808952        3       0.00035853       0.00019353       0.00013363
O        6.61739921       2.57376969       0.34718373        4       0.00000000      -0.00244076       0.00353484
O        7.86926864       5.58506153       1.35886057        5       0.00204049      -0.00378005      -0.00000000
O        8.98717889       2.51577906       2.80468795        6      -0.00204049       0.00133930       0.00353484
O        4.66488554       4.85364881       2.28379844        7       0.00204049      -0.00133930      -0.00353484
O        7.03466522       4.79565819       4.74130266        8      -0.00000000       0.00244076      -0.00353484
O        5.78279579       1.78436635       3.72962582        9      -0.00204049       0.00378005       0.00000000
