10
Lattice="6.041216758795204 0.024606885512097748 0.016990708670829746 3.335519089883948 5.036984993682472 0.016990708670833975 3.335519089883952 1.8005238294766774 4.70421305323751" Properties=species:S:1:pos:R:3:spacegroup_kinds:I:1:forces:R:3 spacegroup="P 1" unit_cell=conventional occupancy="_JSON {\"0\": {\"In\": 1}, \"1\": {\"In\": 1}, \"2\": {\"In\": 1}, \"3\": {\"In\": 1}, \"4\": {\"O\": 1}, \"5\": {\"O\": 1}, \"6\": {\"O\": 1}, \"7\": {\"O\": 1}, \"8\": {\"O\": 1}, \"9\": {\"O\": 1}}" n_minim_iter=4 energy=-11287.522003326343 stress="0.048350181184766305 -1.6309302323894938e-06 -1.1261344136171958e-06 -1.6309302323894938e-06 0.04835232214571653 -6.078910592321129e-07 -1.1261344136171958e-06 -6.078910592321129e-07 0.048352782786897454" free_energy=-11287.522003326343 pbc="T T T"
In      10.88400004       5.87521789       4.05675540        0       0.00189138       0.00102098       0.00070497
In       8.18438238       4.41795568       3.05053632        1      -0.00189138      -0.00102098      -0.00070497
In       4.52787257       2.44416004       1.68765816        2       0.00189138       0.00102098       0.00070497
In       1.82825491       0.98689783       0.68143908        3      -0.00189138      -0.00102098      -0.00070497
O        6.19867212       2.38333661       0.24370643        4       0.00000000      -0.00409342       0.00592832
O        7.31842686       5.26151860       1.20153933        5       0.00342212      -0.00633957       0.00000000
O        8.41443647       2.26840480       2.59581296        6      -0.00342212       0.00224615       0.00592832
O        4.29781848       4.59371092       2.14238152        7       0.00342212      -0.00224615      -0.00592832
O        6.51358283       4.47877911       4.49448805        8       0.00000000       0.00409342      -0.00592832
O        5.39382809       1.60059712       3.53665515        9      -0.00342212       0.00633957       0.00000000
