10
Lattice="6.466919240317914 0.141293199646986 0.09756096890813117 3.6666616816831206 5.3288460609345085 0.09756096890813387 3.6666616816831326 1.979275655331131 4.948594382650991" Properties=species:S:1:pos:R:3:spacegroup_kinds:I:1:forces:R:3 spacegroup="P 1" unit_cell=conventional occupancy="_JSON {\"0\": {\"In\": 1}, \"1\": {\"In\": 1}, \"2\": {\"In\": 1}, \"3\": {\"In\": 1}, \"4\": {\"O\": 1}, \"5\": {\"O\": 1}, \"6\": {\"O\": 1}, \"7\": {\"O\": 1}, \"8\": {\"O\": 1}, \"9\": {\"O\": 1}}" n_minim_iter=2 energy=-11285.129191350552 stress="0.13639292381402418 0.0004408651975406013 0.00030441122360323156 0.0004408651975406013 0.13581418955057037 0.0001643221483048677 0.00030441122360323156 0.0001643221483048677 0.1356896712470106" free_energy=-11285.129191350552 pbc="T T T"
In      11.79885169       6.36905773       4.39774486        0       0.00481185       0.00259745       0.00179350
In       8.90151223       4.80506466       3.31782962        1      -0.00481185      -0.00259745      -0.00179350
In       4.89873039       2.64435027       1.82588670        2       0.00481185       0.00259745       0.00179350
In       2.00139093       1.08035720       0.74597146        3      -0.00481185      -0.00259745      -0.00179350
O        6.68352028       2.60488935       0.36164268        4      -0.00000000       0.00078725      -0.00114014
O        7.95514855       5.63799256       1.38349005        5      -0.00065815       0.00121924      -0.00000000
O        9.07855368       2.55395798       2.83593987        6       0.00065815      -0.00043198      -0.00114014
O        4.72168893       4.89545695       2.30777646        7      -0.00065815       0.00043198       0.00114014
O        7.11672234       4.84452558       4.78207365        8      -0.00000000      -0.00078725       0.00114014
O        5.84509406       1.81142237       3.76022627        9       0.00065815      -0.00121924       0.00000000
