10
Lattice="5.629623128084252 -0.04321102267172017 -0.02983660395474063 3.0529725637570637 4.730103834133887 -0.029836603954743208 3.0529725637570677 1.6480043146670738 4.433830655704208" Properties=species:S:1:pos:R:3:spacegroup_kinds:I:1:forces:R:3 spacegroup="P 1" unit_cell=conventional occupancy="_JSON {\"0\": {\"In\": 1}, \"1\": {\"In\": 1}, \"2\": {\"In\": 1}, \"3\": {\"In\": 1}, \"4\": {\"O\": 1}, \"5\": {\"O\": 1}, \"6\": {\"O\": 1}, \"7\": {\"O\": 1}, \"8\": {\"O\": 1}, \"9\": {\"O\": 1}}" n_minim_iter=7 energy=-11287.257620441569 stress="-0.09102488926879443 6.493277928048589e-06 4.483517158352124e-06 6.493277928048589e-06 -0.09103341314985791 2.420217025535402e-06 4.483517158352124e-06 2.420217025535402e-06 -0.09103524711617306" free_energy=-11287.257620441569 pbc="T T T"
In      10.09094964       5.44712676       3.76116448        0       0.00010832       0.00005847       0.00004037
In       7.51240276       4.05521894       2.80007169        1      -0.00010832      -0.00005847      -0.00004037
In       4.22316551       2.27967820       1.57408576        2       0.00010832       0.00005847       0.00004037
In       1.64461863       0.88777038       0.61299297        3      -0.00010832      -0.00005847      -0.00004037
O        5.74870363       2.19891465       0.15637800        4      -0.00000000      -0.00000858       0.00001242
O        6.74282539       4.91339038       1.06370276        5       0.00000717      -0.00001329       0.00000000
O        7.80755444       2.03669712       2.37329333        6      -0.00000717       0.00000471       0.00001242
O        3.92801382       4.29820001       2.00086413        7       0.00000717      -0.00000471      -0.00001242
O        5.98686463       4.13598249       4.21777945        8       0.00000000       0.00000858      -0.00001242
O        4.99274288       1.42150676       3.31045469        9      -0.00000717       0.00001329       0.00000000
