10
Lattice="5.828071620005356 0.0035796737322058283 0.0024717144106106994 3.20098284201768 4.870332685462492 0.0024717144106120204 3.200982842017682 1.7279007343349817 4.553515743767779" Properties=species:S:1:pos:R:3:spacegroup_kinds:I:1:forces:R:3 spacegroup="P 1" unit_cell=conventional occupancy="_JSON {\"0\": {\"In\": 1}, \"1\": {\"In\": 1}, \"2\": {\"In\": 1}, \"3\": {\"In\": 1}, \"4\": {\"O\": 1}, \"5\": {\"O\": 1}, \"6\": {\"O\": 1}, \"7\": {\"O\": 1}, \"8\": {\"O\": 1}, \"9\": {\"O\": 1}}" n_minim_iter=1 energy=-11287.686681406862 stress="-1.9142173910108757e-05 1.0215323831724192e-05 7.053537683966169e-06 1.0215323831724192e-05 -3.255207317946299e-05 3.8075220116161126e-06 7.053537683966169e-06 3.8075220116161126e-06 -3.543729706667273e-05" free_energy=-11287.686681406862 pbc="T T T"
In      10.48394419       5.65926647       3.90764397        0       0.00669826       0.00361574       0.00249662
In       7.86111178       4.24345318       2.93004479        1      -0.00669826      -0.00361574      -0.00249662
In       4.36892553       2.35835992       1.62841439        2       0.00669826       0.00361574       0.00249662
In       1.74609313       0.94254664       0.65081521        3      -0.00669826      -0.00361574      -0.00249662
O        5.97154514       2.29218593       0.21405001        4       0.00000000      -0.00000557       0.00000806
O        7.03704118       5.07850288       1.14208651        5       0.00000465      -0.00000862       0.00000000
O        8.10703195       2.16504288       2.49080789        6      -0.00000465       0.00000305       0.00000806
O        4.12300537       4.43677023       2.06765129        7       0.00000465      -0.00000305      -0.00000806
O        6.25849217       4.30962717       4.34440916        8      -0.00000000       0.00000557      -0.00000806
O        5.19299614       1.52331022       3.41637267        9      -0.00000465       0.00000862       0.00000000
