10
Lattice="5.298483008427252 -0.22487846938892384 -0.15527542312708553 2.7193938548989824 4.552953939864168 -0.15527542312708775 2.719393854898985 1.467937465064377 4.312616332832352" Properties=species:S:1:pos:R:3:spacegroup_kinds:I:1:forces:R:3 spacegroup="P 1" unit_cell=conventional occupancy="_JSON {\"0\": {\"In\": 1}, \"1\": {\"In\": 1}, \"2\": {\"In\": 1}, \"3\": {\"In\": 1}, \"4\": {\"O\": 1}, \"5\": {\"O\": 1}, \"6\": {\"O\": 1}, \"7\": {\"O\": 1}, \"8\": {\"O\": 1}, \"9\": {\"O\": 1}}" n_minim_iter=6 energy=-11285.942200712665 stress="-0.18308292104183474 7.935832626349447e-05 5.4795809389365494e-05 7.935832626349447e-05 -0.1831870966104435 2.957895241987147e-05 5.4795809389365494e-05 2.957895241987147e-05 -0.18320951063722843" free_energy=-11285.942200712665 pbc="T T T"
In       9.29232292       5.01602551       3.46349513        0      -0.00157587      -0.00085066      -0.00058737
In       6.81358315       3.67799389       2.53960310        1       0.00157587       0.00085066       0.00058737
In       3.92368756       2.11801904       1.46246239        2      -0.00157587      -0.00085066      -0.00058737
In       1.44494779       0.77998742       0.53857035        3       0.00157587       0.00085066       0.00058737
O        5.33355918       1.97794097      -0.00599900        4      -0.00000000       0.00192695      -0.00279072
O        6.15706176       4.60635549       0.84524095        5      -0.00161094       0.00298432      -0.00000000
O        7.22945045       1.71859518       2.15030917        6       0.00161094      -0.00105736      -0.00279072
O        3.50782026       4.07741776       1.85175632        7      -0.00161094       0.00105736       0.00279072
O        5.40371153       3.81807197       4.00806448        8      -0.00000000      -0.00192695       0.00279072
O        4.58020895       1.18965744       3.15682454        9       0.00161094      -0.00298432       0.00000000
