10
Lattice="5.87940641 1.8936522339830572e-15 8.909042059977643e-16 3.226158737651723 4.9152130710094895 4.468149961477016e-16 3.2261587376517222 1.7414907629919851 4.596360457561627" Properties=species:S:1:pos:R:3:spacegroup_kinds:I:1:forces:R:3 spacegroup="P 1" unit_cell=conventional occupancy="_JSON {\"0\": {\"In\": 1}, \"1\": {\"In\": 1}, \"2\": {\"In\": 1}, \"3\": {\"In\": 1}, \"4\": {\"O\": 1}, \"5\": {\"O\": 1}, \"6\": {\"O\": 1}, \"7\": {\"O\": 1}, \"8\": {\"O\": 1}, \"9\": {\"O\": 1}}" n_minim_iter=1 energy=-11287.677723089482 stress="0.00041612841869006524 -0.00029946597910144896 -0.00020677705103218662 -0.00029946597910144896 0.0008092445558361464 -0.00011161891152321928 -0.00020677705103218662 -0.00011161891152321928 0.0008938259564060029" free_energy=-11287.677723089482 pbc="T T T"
In      10.57093869       5.70622638       3.94006913        0      -0.00113564      -0.00061302      -0.00042328
In       7.92664715       4.27882938       2.95447156        1       0.00113564       0.00061302       0.00042328
In       4.40507675       2.37787446       1.64188890        2      -0.00113564      -0.00061302      -0.00042328
In       1.76078520       0.95047747       0.65629133        3       0.00113564       0.00061302       0.00042328
O        6.02263418       2.30932706       0.21474656        4      -0.00000000       0.01135165      -0.01644009
O        7.09636402       5.12094210       1.14909012        5      -0.00949004       0.01758055       0.00000000
O        8.17506308       2.18091285       2.51292679        6       0.00949004      -0.00622890      -0.01644009
O        4.15666081       4.47579100       2.08343367        7      -0.00949004       0.00622890       0.01644009
O        6.30908971       4.34737678       4.38161390        8       0.00000000      -0.01135165       0.01644009
O        5.23535988       1.53576175       3.44727035        9       0.00949004      -0.01758055      -0.00000000
10
Lattice="5.878361149916903 0.0007521527961396586 0.0005193509365039301 3.226213984097047 4.913926505698154 0.0005193509365034812 3.2262139840970465 1.7415205851991498 4.5949733431714135" Properties=species:S:1:pos:R:3:spacegroup_kinds:I:1:forces:R:3 spacegroup="P 1" unit_cell=conventional occupancy="_JSON {\"0\": {\"In\": 1}, \"1\": {\"In\": 1}, \"2\": {\"In\": 1}, \"3\": {\"In\": 1}, \"4\": {\"O\": 1}, \"5\": {\"O\": 1}, \"6\": {\"O\": 1}, \"7\": {\"O\": 1}, \"8\": {\"O\": 1}, \"9\": {\"O\": 1}}" n_minim_iter=2 energy=-11287.677781396284 stress="-0.00037787591397793393 -0.00018760880249168343 -0.00012954124207385098 -0.00018760880249168343 -0.00013159736328840642 -6.99267757453892e-05 -0.00012954124207385098 -6.99267757453892e-05 -7.860899006051016e-05" free_energy=-11287.677781396284 pbc="T T T"
In      10.57013374       5.70579187       3.93976910        0      -0.00259431      -0.00140042      -0.00096697
In       7.92604995       4.27850701       2.95424897        1       0.00259431       0.00140042       0.00096697
In       4.40473918       2.37769224       1.64176308        2      -0.00259431      -0.00140042      -0.00096697
In       1.76065539       0.95040739       0.65624295        3       0.00259431       0.00140042       0.00096697
O        6.02187786       2.30934590       0.21525381        4      -0.00000000       0.01276730      -0.01849032
O        7.09582851       5.12019085       1.14952236        5      -0.01067353       0.01977300       0.00000000
O        8.17414119       2.18130449       2.51274048        6       0.01067353      -0.00700570      -0.01849032
O        4.15664794       4.47489476       2.08327157        7      -0.01067353       0.00700570       0.01849032
O        6.30891127       4.34685336       4.38075824        8       0.00000000      -0.01276730       0.01849032
O        5.23496062       1.53600841       3.44648969        9       0.01067353      -0.01977300      -0.00000000
10
Lattice="5.8815533875264165 0.003581878627333891 0.002473236859715186 3.230331299513153 4.915042499873591 0.002473236859714738 3.2303312995131535 1.7437431251758073 4.595324668167234" Properties=species:S:1:pos:R:3:spacegroup_kinds:I:1:forces:R:3 spacegroup="P 1" unit_cell=conventional occupancy="_JSON {\"0\": {\"In\": 1}, \"1\": {\"In\": 1}, \"2\": {\"In\": 1}, \"3\": {\"In\": 1}, \"4\": {\"O\": 1}, \"5\": {\"O\": 1}, \"6\": {\"O\": 1}, \"7\": {\"O\": 1}, \"8\": {\"O\": 1}, \"9\": {\"O\": 1}}" n_minim_iter=3 energy=-11287.677817403577 stress="0.0003756538814645042 0.00026351657801014066 0.00018195449333074606 0.00026351657801014066 2.9729384804021153e-05 9.821961475757818e-05 0.00018195449333074606 9.821961475757818e-05 -4.469843977341051e-05" free_energy=-11287.677817403577 pbc="T T T"
In      10.57988833       5.71105742       3.94340490        0      -0.00873294      -0.00471407      -0.00325500
In       7.93343566       4.28249385       2.95700182        1       0.00873294       0.00471407       0.00325500
In       4.40878033       2.37987367       1.64326933        2      -0.00873294      -0.00471407      -0.00325500
In       1.76232767       0.95131009       0.65686625        3       0.00873294       0.00471407       0.00325500
O        6.02633070       2.31229590       0.21730555        4      -0.00000000       0.00938223      -0.01358786
O        7.10234579       5.12369505       1.15254102        5      -0.00784359       0.01453046      -0.00000000
O        8.18064690       2.18537649       2.51496789        6       0.00784359      -0.00514823      -0.01358786
O        4.16156910       4.47699103       2.08530326        7      -0.00784359       0.00514823       0.01358786
O        6.31588530       4.35007161       4.38296559        8       0.00000000      -0.00938223       0.01358786
O        5.23987020       1.53867246       3.44773012        9       0.00784359      -0.01453046       0.00000000
10
Lattice="5.879063361404622 0.0016215985926123142 0.0011196910415402466 3.227326163901288 4.9140364741005325 0.0011196910415397982 3.2273261639012896 1.742120943400149 4.594863473604521" Properties=species:S:1:pos:R:3:spacegroup_kinds:I:1:forces:R:3 spacegroup="P 1" unit_cell=conventional occupancy="_JSON {\"0\": {\"In\": 1}, \"1\": {\"In\": 1}, \"2\": {\"In\": 1}, \"3\": {\"In\": 1}, \"4\": {\"O\": 1}, \"5\": {\"O\": 1}, \"6\": {\"O\": 1}, \"7\": {\"O\": 1}, \"8\": {\"O\": 1}, \"9\": {\"O\": 1}}" n_minim_iter=4 energy=-11287.677888450358 stress="-0.00018208982624778227 -9.881875254179429e-05 -6.82329593528617e-05 -9.881875254179429e-05 -5.236809068424019e-05 -3.6832369126187836e-05 -6.82329593528617e-05 -3.6832369126187836e-05 -2.445764589708866e-05" free_energy=-11287.677888450358 pbc="T T T"
In      10.57237179       5.70699997       3.94060328        0       0.00258269       0.00139414       0.00096264
In       7.92820176       4.27966857       2.95505101        1      -0.00258269      -0.00139414      -0.00096264
In       4.40551394       2.37811046       1.64205185        2       0.00258269       0.00139414       0.00096264
In       1.76134391       0.95077906       0.65649958        3      -0.00258269      -0.00139414      -0.00096264
O        6.02296061       2.31070285       0.21506304        4       0.00000000       0.00357068      -0.00517126
O        7.09702654       5.12189212       1.15039541        5      -0.00298511       0.00552999       0.00000000
O        8.17622084       2.18214500       2.51249477        6       0.00298511      -0.00195931      -0.00517126
O        4.15749485       4.47563403       2.08460809        7      -0.00298511       0.00195931       0.00517126
O        6.31075509       4.34707618       4.38203982        8       0.00000000      -0.00357068       0.00517126
O        5.23668916       1.53588691       3.44670745        9       0.00298511      -0.00552999      -0.00000000
