10
Lattice="5.879063361404622 0.0016215985926123142 0.0011196910415402466 3.227326163901288 4.9140364741005325 0.0011196910415397982 3.2273261639012896 1.742120943400149 4.594863473604521" Properties=species:S:1:pos:R:3:spacegroup_kinds:I:1:forces:R:3 spacegroup="P 1" unit_cell=conventional occupancy="_JSON {\"0\": {\"In\": 1}, \"1\": {\"In\": 1}, \"2\": {\"In\": 1}, \"3\": {\"In\": 1}, \"4\": {\"O\": 1}, \"5\": {\"O\": 1}, \"6\": {\"O\": 1}, \"7\": {\"O\": 1}, \"8\": {\"O\": 1}, \"9\": {\"O\": 1}}" n_minim_iter=4 energy=-11287.677888450358 stress="-0.00018208982624778227 -9.881875254179429e-05 -6.82329593528617e-05 -9.881875254179429e-05 -5.236809068424019e-05 -3.6832369126187836e-05 -6.82329593528617e-05 -3.6832369126187836e-05 -2.445764589708866e-05" free_energy=-11287.677888450358 pbc="T T T"
In      10.57237179       5.70699997       3.94060328        0       0.00258269       0.00139414       0.00096264
In       7.92820176       4.27966857       2.95505101        1      -0.00258269      -0.00139414      -0.00096264
In       4.40551394       2.37811046       1.64205185        2       0.00258269       0.00139414       0.00096264
In       1.76134391       0.95077906       0.65649958        3      -0.00258269      -0.00139414      -0.00096264
O        6.02296061       2.31070285       0.21506304        4       0.00000000       0.00357068      -0.00517126
O        7.09702654       5.12189212       1.15039541        5      -0.00298511       0.00552999       0.00000000
O        8.17622084       2.18214500       2.51249477        6       0.00298511      -0.00195931      -0.00517126
O        4.15749485       4.47563403       2.08460809        7      -0.00298511       0.00195931       0.00517126
O        6.31075509       4.34707618       4.38203982        8       0.00000000      -0.00357068       0.00517126
O        5.23668916       1.53588691       3.44670745        9       0.00298511      -0.00552999      -0.00000000
