10
Lattice="6.372543132077714 0.08542604550377628 0.05898548401594464 3.568170229973875 5.280602691868541 0.05898548401593529 3.568170229973882 1.9261096559698763 4.917148123645808" Properties=species:S:1:pos:R:3:spacegroup_kinds:I:1:forces:R:3 spacegroup="P 1" unit_cell=conventional occupancy="_JSON {\"0\": {\"In\": 1}, \"1\": {\"In\": 1}, \"2\": {\"In\": 1}, \"3\": {\"In\": 1}, \"4\": {\"O\": 1}, \"5\": {\"O\": 1}, \"6\": {\"O\": 1}, \"7\": {\"O\": 1}, \"8\": {\"O\": 1}, \"9\": {\"O\": 1}}" n_minim_iter=5 energy=-11285.575827458895 stress="0.11363384526556865 -4.848576336414884e-06 -3.3478739935343234e-06 -4.848576336414884e-06 0.11364021010854028 -1.8071929370387237e-06 -3.3478739935343234e-06 -1.8071929370387237e-06 0.11364157954292331" free_energy=-11285.575827458895 pbc="T T T"
In      11.48030813       6.19710690       4.27901523        0      -0.00001051      -0.00000568      -0.00000392
In       8.78301727       4.74110070       3.27366341        1       0.00001051       0.00000568       0.00000392
In       4.72586634       2.55103771       1.76145569        2      -0.00001051      -0.00000568      -0.00000392
In       2.02857547       1.09503150       0.75610386        3       0.00001051       0.00000568       0.00000392
O        6.56349247       2.55980075       0.28310634        4      -0.00000000      -0.00002421       0.00003506
O        7.76734572       5.58094420       1.31776526        5       0.00002024      -0.00003749       0.00000000
O        8.92780945       2.44796035       2.74168040        6      -0.00002024       0.00001328       0.00003506
O        4.58107415       4.84417806       2.29343869        7       0.00002024      -0.00001328      -0.00003506
O        6.94539113       4.73233766       4.75201276        8      -0.00000000       0.00002421      -0.00003506
O        5.74153789       1.71119420       3.71735384        9      -0.00002024       0.00003749      -0.00000000
