10
Lattice="6.0401622548445095 0.019819128346391695 0.01368482962534746 3.3309378716694047 5.038730570071714 0.013684829625341519 3.330937871669403 1.7980508732917493 4.707016686755199" Properties=species:S:1:pos:R:3:spacegroup_kinds:I:1:forces:R:3 spacegroup="P 1" unit_cell=conventional occupancy="_JSON {\"0\": {\"In\": 1}, \"1\": {\"In\": 1}, \"2\": {\"In\": 1}, \"3\": {\"In\": 1}, \"4\": {\"O\": 1}, \"5\": {\"O\": 1}, \"6\": {\"O\": 1}, \"7\": {\"O\": 1}, \"8\": {\"O\": 1}, \"9\": {\"O\": 1}}" n_minim_iter=1 energy=-11287.358555603785 stress="0.06005547062549672 -0.0008687789153607856 -0.0005998796326700287 -0.0008687789153607856 0.061195937437012494 -0.00032381693641760247 -0.0005998796326700287 -0.00032381693641760247 0.06144131601711439" free_energy=-11287.358555603785 pbc="T T T"
In      10.86538078       5.86516716       4.04981550        0      -0.07230818      -0.03903218      -0.02695117
In       8.18767623       4.41973371       3.05176402        1       0.07230818       0.03903218       0.02695117
In       4.51436178       2.43686687       1.68262233        2      -0.07230818      -0.03903218      -0.02695117
In       1.83665723       0.99143343       0.68457085        3       0.07230818       0.03903218       0.02695117
O        6.19559063       2.37501089       0.24769545        4       0.00000000      -0.01404768       0.02034462
O        7.31686114       5.25156730       1.19728142        5       0.01174393      -0.02175594       0.00000000
O        8.40525800       2.26589402       2.60120379        6      -0.01174393       0.00770827       0.02034462
O        4.29678001       4.59070656       2.13318256        7       0.01174393      -0.00770827      -0.02034462
O        6.50644738       4.48158969       4.48669090        8      -0.00000000       0.01404768      -0.02034462
O        5.38517687       1.60503328       3.53710493        9      -0.01174393       0.02175594      -0.00000000
10
Lattice="6.050602507220285 0.030518369906974704 0.021072505577486376 3.3456112855104903 5.041587765530521 0.021072505577480465 3.3456112855104885 1.8059716288229573 4.7070710345101965" Properties=species:S:1:pos:R:3:spacegroup_kinds:I:1:forces:R:3 spacegroup="P 1" unit_cell=conventional occupancy="_JSON {\"0\": {\"In\": 1}, \"1\": {\"In\": 1}, \"2\": {\"In\": 1}, \"3\": {\"In\": 1}, \"4\": {\"O\": 1}, \"5\": {\"O\": 1}, \"6\": {\"O\": 1}, \"7\": {\"O\": 1}, \"8\": {\"O\": 1}, \"9\": {\"O\": 1}}" n_minim_iter=2 energy=-11287.359552220643 stress="0.060518024268870554 8.218205416046037e-05 5.6745553674270406e-05 8.218205416046037e-05 0.0604101419247034 3.0631430173132025e-05 5.6745553674270406e-05 3.0631430173132025e-05 0.06038693036326666" free_energy=-11287.359552220643 pbc="T T T"
In      10.89837862       5.88297949       4.06211467        0      -0.08875607      -0.04791081      -0.03308174
In       8.21435901       4.43413716       3.06170940        1       0.08875607       0.04791081       0.03308174
In       4.52746608       2.44394061       1.68750665        2      -0.08875607      -0.04791081      -0.03308174
In       1.84344647       0.99509828       0.68710138        3       0.08875607       0.04791081       0.03308174
O        6.21075753       2.38451233       0.25685993        4      -0.00000000      -0.01551001       0.02246246
O        7.34038256       5.26182929       1.20837652        5       0.01296645      -0.02402069      -0.00000000
O        8.42674378       2.28124137       2.61039545        6      -0.01296645       0.00851068       0.02246246
O        4.31508131       4.59683640       2.13882060        7       0.01296645      -0.00851068      -0.02246246
O        6.53106756       4.49356545       4.49235612        8      -0.00000000       0.01551001      -0.02246246
O        5.40144253       1.61624849       3.54083953        9      -0.01296645       0.02402069       0.00000000
10
Lattice="6.083434302760435 0.06397069825184071 0.044170868228432525 3.3915931222365954 5.050679286931076 0.04417086822842666 3.3915931222365927 1.830792770755424 4.707388889350907" Properties=species:S:1:pos:R:3:spacegroup_kinds:I:1:forces:R:3 spacegroup="P 1" unit_cell=conventional occupancy="_JSON {\"0\": {\"In\": 1}, \"1\": {\"In\": 1}, \"2\": {\"In\": 1}, \"3\": {\"In\": 1}, \"4\": {\"O\": 1}, \"5\": {\"O\": 1}, \"6\": {\"O\": 1}, \"7\": {\"O\": 1}, \"8\": {\"O\": 1}, \"9\": {\"O\": 1}}" n_minim_iter=3 energy=-11287.362822323632 stress="0.059601702569468985 0.001823271153737314 0.0012589431116173462 0.001823271153737314 0.05720825102040265 0.0006795815017518901 0.0012589431116173462 0.0006795815017518901 0.0566932849203429" free_energy=-11287.362822323632 pbc="T T T"
In      10.99241525       5.93374077       4.09716462        0      -0.08611496      -0.04648513      -0.03209733
In       8.30751558       4.48442337       3.09643132        1       0.08611496       0.04648513       0.03209733
In       4.55910498       2.46101939       1.69929931        2      -0.08611496      -0.04648513      -0.03209733
In       1.87420530       1.01170200       0.69856601        3       0.08611496       0.04648513       0.03209733
O        6.25837229       2.41267528       0.28786479        4       0.00000000      -0.01162086       0.01682997
O        7.41550640       5.29157246       1.24310353        5       0.00971510      -0.01799748      -0.00000000
O        8.49283131       2.33018490       2.64155924        6      -0.00971510       0.00637662       0.01682997
O        4.37378925       4.61525787       2.15417139        7       0.00971510      -0.00637662      -0.01682997
O        6.60824826       4.53276748       4.50786584        8      -0.00000000       0.01162086      -0.01682997
O        5.45111416       1.65387031       3.55262710        9      -0.00971510       0.01799748      -0.00000000
10
Lattice="6.082217205656368 0.06273576915036862 0.04331816703705526 3.3898928675814357 5.0503394202601655 0.043318167037049285 3.389892867581432 1.8298749678766821 4.707373187390988" Properties=species:S:1:pos:R:3:spacegroup_kinds:I:1:forces:R:3 spacegroup="P 1" unit_cell=conventional occupancy="_JSON {\"0\": {\"In\": 1}, \"1\": {\"In\": 1}, \"2\": {\"In\": 1}, \"3\": {\"In\": 1}, \"4\": {\"O\": 1}, \"5\": {\"O\": 1}, \"6\": {\"O\": 1}, \"7\": {\"O\": 1}, \"8\": {\"O\": 1}, \"9\": {\"O\": 1}}" n_minim_iter=4 energy=-11287.366452764007 stress="0.0564140645965037 0.0001104470995298156 7.626216987991811e-05 0.0001104470995298156 0.05626907805344989 4.11665622048566e-05 7.626216987991811e-05 4.11665622048566e-05 0.05623788329125487" free_energy=-11287.366452764007 pbc="T T T"
In      10.97515564       5.92442398       4.09073151        0      -0.00145632      -0.00078613      -0.00054281
In       8.31784878       4.49000127       3.10028278        1       0.00145632       0.00078613       0.00054281
In       4.54415417       2.45294890       1.69372674        2      -0.00145632      -0.00078613      -0.00054281
In       1.88684731       1.01852619       0.70327802        3       0.00145632       0.00078613       0.00054281
O        6.25660934       2.40929149       0.29011204        4       0.00000000       0.00505667      -0.00732335
O        7.41468503       5.28684272       1.24182055        5      -0.00422740       0.00783137      -0.00000000
O        8.48842652       2.32966140       2.64379864        6       0.00422740      -0.00277470      -0.00732335
O        4.37357643       4.61328877       2.15021089        7      -0.00422740       0.00277470       0.00732335
O        6.60539361       4.53365868       4.50389748        8      -0.00000000      -0.00505667       0.00732335
O        5.44731792       1.65610745       3.55218898        9       0.00422740      -0.00783137      -0.00000000
