10
Lattice="6.288483030085265 0.08813195596874741 0.06085387716863667 3.524306770287602 5.20884323532953 0.06085387716863112 3.524306770287601 1.9024320207112413 4.849381759686199" Properties=species:S:1:pos:R:3:spacegroup_kinds:I:1:forces:R:3 spacegroup="P 1" unit_cell=conventional occupancy="_JSON {\"0\": {\"In\": 1}, \"1\": {\"In\": 1}, \"2\": {\"In\": 1}, \"3\": {\"In\": 1}, \"4\": {\"O\": 1}, \"5\": {\"O\": 1}, \"6\": {\"O\": 1}, \"7\": {\"O\": 1}, \"8\": {\"O\": 1}, \"9\": {\"O\": 1}}" n_minim_iter=1 energy=-11286.28437440967 stress="0.10366738064591366 -0.0008199089883516898 -0.0005661356349401792 -0.0008199089883516898 0.10474369473665926 -0.00030560181912797385 -0.0005661356349401792 -0.00030560181912797385 0.10497527045763357" free_energy=-11286.28437440967 pbc="T T T"
In      11.35333100       6.12856424       4.23168749        0      -0.05656900      -0.03053612      -0.02108476
In       8.65231387       4.67054659       3.22494679        1       0.05656900       0.03053612       0.02108476
In       4.68478272       2.52886064       1.74614273        2      -0.05656900      -0.03053612      -0.02108476
In       1.98376558       1.07084298       0.73940203        3       0.05656900       0.03053612       0.02108476
O        6.47851566       2.50805031       0.31136581        4       0.00000000       0.06291047      -0.09111042
O        7.68545095       5.47689595       1.30362626        5      -0.05259346       0.09743081       0.00000000
O        8.79588715       2.43070977       2.73605669        6       0.05259346      -0.03452035      -0.09111042
O        4.54120943       4.76869745       2.23503283        7      -0.05259346       0.03452035       0.09111042
O        6.85858092       4.69135692       4.65972371        8       0.00000000      -0.06291047       0.09111042
O        5.65164563       1.72251128       3.66746326        9       0.05259346      -0.09743081       0.00000000
10
Lattice="6.299878281479707 0.0996122235038859 0.06878084058125095 3.5401571545615678 5.212070248714772 0.0687808405812454 3.540157154561567 1.9109881086311664 4.849590862148991" Properties=species:S:1:pos:R:3:spacegroup_kinds:I:1:forces:R:3 spacegroup="P 1" unit_cell=conventional occupancy="_JSON {\"0\": {\"In\": 1}, \"1\": {\"In\": 1}, \"2\": {\"In\": 1}, \"3\": {\"In\": 1}, \"4\": {\"O\": 1}, \"5\": {\"O\": 1}, \"6\": {\"O\": 1}, \"7\": {\"O\": 1}, \"8\": {\"O\": 1}, \"9\": {\"O\": 1}}" n_minim_iter=2 energy=-11286.285425713215 stress="0.10460542445290248 0.0009220450619617928 0.0006366591588653605 0.0009220450619617928 0.10339503390129078 0.00034367064171153094 0.0006366591588653605 0.00034367064171153094 0.10313461078921178" free_energy=-11286.285425713215 pbc="T T T"
In      11.38920616       6.14792977       4.24505911        0      -0.04598318      -0.02482187      -0.01713915
In       8.68108274       4.68607612       3.23566971        1       0.04598318       0.02482187       0.01713915
In       4.69910987       2.53659448       1.75148284        2      -0.04598318      -0.02482187      -0.01713915
In       1.99098644       1.07474083       0.74209344        3       0.04598318       0.02482187       0.01713915
O        6.49498729       2.51943315       0.31959580        4      -0.00000000       0.04149518      -0.06009562
O        7.70999252       5.48979729       1.31556898        5      -0.03469018       0.06426450       0.00000000
O        8.82013923       2.44663880       2.74439123        6       0.03469018      -0.02276931      -0.06009562
O        4.56005337       4.77603179       2.24276132        7      -0.03469018       0.02276931       0.06009562
O        6.88520531       4.70323745       4.66755675        8       0.00000000      -0.04149518       0.06009562
O        5.67020009       1.73287330       3.67158357        9       0.03469018      -0.06426450       0.00000000
10
Lattice="6.282509579893313 0.08210089961935872 0.05668951750761918 3.5159870144959267 5.207158773560255 0.05668951750761362 3.5159870144959267 1.897940990033655 4.8492820285905065" Properties=species:S:1:pos:R:3:spacegroup_kinds:I:1:forces:R:3 spacegroup="P 1" unit_cell=conventional occupancy="_JSON {\"0\": {\"In\": 1}, \"1\": {\"In\": 1}, \"2\": {\"In\": 1}, \"3\": {\"In\": 1}, \"4\": {\"O\": 1}, \"5\": {\"O\": 1}, \"6\": {\"O\": 1}, \"7\": {\"O\": 1}, \"8\": {\"O\": 1}, \"9\": {\"O\": 1}}" n_minim_iter=3 energy=-11286.288724963506 stress="0.1012246756352321 -0.0006665587416344595 -0.00046024944400879856 -0.0006665587416344595 0.10209968319871032 -0.0002484441162509279 -0.00046024944400879856 -0.0002484441162509279 0.10228794655940154" free_energy=-11286.288724963506 pbc="T T T"
In      11.32858430       6.11520589       4.22246374        0      -0.02223573      -0.01200292      -0.00828784
In       8.64314112       4.66559511       3.22152786        1       0.02223573       0.01200292       0.00828784
In       4.67134250       2.52160556       1.74113321        2      -0.02223573      -0.01200292      -0.00828784
In       1.98589932       1.07199478       0.74019733        3       0.02223573       0.01200292       0.00828784
O        6.46987570       2.50814173       0.29825731        4       0.00000000       0.00605333      -0.00876676
O        7.66750250       5.47952449       1.29735479        5      -0.00506061       0.00937492       0.00000000
O        8.78823591       2.41901774       2.72289833        6       0.00506061      -0.00332159      -0.00876676
O        4.52624771       4.76818293       2.23976274        7      -0.00506061       0.00332159       0.00876676
O        6.84460792       4.67905894       4.66440376        8      -0.00000000      -0.00605333       0.00876676
O        5.64698112       1.70767618       3.66530628        9       0.00506061      -0.00937492       0.00000000
10
Lattice="6.286158691660873 0.0857862734684014 0.05923421636361276 3.5210703527521683 5.208187204049867 0.059234216363607185 3.521070352752169 1.9006849922165274 4.849342141484746" Properties=species:S:1:pos:R:3:spacegroup_kinds:I:1:forces:R:3 spacegroup="P 1" unit_cell=conventional occupancy="_JSON {\"0\": {\"In\": 1}, \"1\": {\"In\": 1}, \"2\": {\"In\": 1}, \"3\": {\"In\": 1}, \"4\": {\"O\": 1}, \"5\": {\"O\": 1}, \"6\": {\"O\": 1}, \"7\": {\"O\": 1}, \"8\": {\"O\": 1}, \"9\": {\"O\": 1}}" n_minim_iter=4 energy=-11286.288972189997 stress="0.10142169678376092 -4.765342066749242e-05 -3.290401817934344e-05 -4.765342066749242e-05 0.10148425256635728 -1.7761693849828983e-05 -3.290401817934344e-05 -1.7761693849828983e-05 0.1014977118343584" free_energy=-11286.288972189997 pbc="T T T"
In      11.33956956       6.12113577       4.22655823        0      -0.01466144      -0.00791429      -0.00546471
In       8.65287955       4.67085194       3.22515763        1       0.01466144       0.00791429       0.00546471
In       4.67541986       2.52380654       1.74265295        2      -0.01466144      -0.00791429      -0.00546471
In       1.98872985       1.07352271       0.74125234        3       0.01466144       0.00791429       0.00546471
O        6.47515420       2.51202548       0.30056126        4      -0.00000000      -0.00350083       0.00507009
O        7.67517502       5.48401937       1.30118686        5       0.00292671      -0.00542181      -0.00000000
O        8.79620373       2.42399997       2.72523233        6      -0.00292671       0.00192098       0.00507009
O        4.53209567       4.77065851       2.24257825        7       0.00292671      -0.00192098      -0.00507009
O        6.85314521       4.68263300       4.66724932        8      -0.00000000       0.00350083      -0.00507009
O        5.65312439       1.71063911       3.66662372        9      -0.00292671       0.00542181       0.00000000
10
Lattice="6.287465099135255 0.08710484515272988 0.060144671583109044 3.522889539574856 5.208555838123173 0.06014467158310347 3.5228895395748565 1.9016669950581393 4.849364282075885" Properties=species:S:1:pos:R:3:spacegroup_kinds:I:1:forces:R:3 spacegroup="P 1" unit_cell=conventional occupancy="_JSON {\"0\": {\"In\": 1}, \"1\": {\"In\": 1}, \"2\": {\"In\": 1}, \"3\": {\"In\": 1}, \"4\": {\"O\": 1}, \"5\": {\"O\": 1}, \"6\": {\"O\": 1}, \"7\": {\"O\": 1}, \"8\": {\"O\": 1}, \"9\": {\"O\": 1}}" n_minim_iter=5 energy=-11286.289014348546 stress="0.10148196064333835 0.00017561953730143323 0.00012126282342221773 0.00017561953730143323 0.10125142068748753 6.545805758781026e-05 0.00012126282342221773 6.545805758781026e-05 0.10120181857031056" free_energy=-11286.289014348546 pbc="T T T"
In      11.34280017       6.12287967       4.22776237        0      -0.00608593      -0.00328520      -0.00226839
In       8.65706611       4.67311186       3.22671807        1       0.00608593       0.00328520       0.00226839
In       4.67617808       2.52421583       1.74293556        2      -0.00608593      -0.00328520      -0.00226839
In       1.99044402       1.07444802       0.74189126        3       0.00608593       0.00328520       0.00226839
O        6.47704360       2.51330057       0.30155184        4      -0.00000000      -0.00540309       0.00782506
O        7.67801707       5.48545051       1.30255808        5       0.00451701      -0.00836789      -0.00000000
O        8.79895967       2.42584582       2.72623398        6      -0.00451701       0.00296480       0.00782506
O        4.53428452       4.77148187       2.24341965        7       0.00451701      -0.00296480      -0.00782506
O        6.85620059       4.68402712       4.66810179        8       0.00000000       0.00540309      -0.00782506
O        5.65522712       1.71187718       3.66709555        9      -0.00451701       0.00836789       0.00000000
