10
Lattice="5.471221099447841 -0.10087804277639807 -0.06965487100167383 2.9178439939101812 4.62932210218299 -0.0696548710016727 2.917843993910194 1.5750614822334992 4.353694552216368" Properties=species:S:1:pos:R:3:spacegroup_kinds:I:1:forces:R:3 spacegroup="P 1" unit_cell=conventional occupancy="_JSON {\"0\": {\"In\": 1}, \"1\": {\"In\": 1}, \"2\": {\"In\": 1}, \"3\": {\"In\": 1}, \"4\": {\"O\": 1}, \"5\": {\"O\": 1}, \"6\": {\"O\": 1}, \"7\": {\"O\": 1}, \"8\": {\"O\": 1}, \"9\": {\"O\": 1}}" n_minim_iter=5 energy=-11285.858375759244 stress="-0.20837051169716247 -0.00016635873995035784 -0.00011486837204506174 -0.00016635873995035784 -0.20815212861056334 -6.200631347759717e-05 -0.00011486837204506174 -6.200631347759717e-05 -0.20810514212158437" free_energy=-11285.858375759244 pbc="T T T"
In       9.76553312       5.27146589       3.63987312        0       0.00118235       0.00063824       0.00044069
In       7.19483052       3.88379244       2.68170410        1      -0.00118235      -0.00063824      -0.00044069
In       4.11207858       2.21971312       1.53268071        2       0.00118235       0.00063824       0.00044069
In       1.54137598       0.83203966       0.57451170        3      -0.00118235      -0.00063824      -0.00044069
O        5.56233783       2.12866019       0.07273529        4       0.00000000       0.00055718      -0.00080694
O        6.47516229       4.80175887       0.98394133        5      -0.00046581       0.00086292      -0.00000000
O        7.56735736       1.90453048       2.24958257        6       0.00046581      -0.00030574      -0.00080694
O        3.73955174       4.19897507       1.96480225        7      -0.00046581       0.00030574       0.00080694
O        5.74457127       3.97484536       4.14164952        8      -0.00000000      -0.00055718       0.00080694
O        4.83174681       1.30174668       3.23044348        9       0.00046581      -0.00086292       0.00000000
