10
Lattice="5.143456070226177 -0.2749817491590121 -0.1898710337584466 2.5924405955349465 4.450843410786255 -0.18987103375843975 2.592440595534954 1.3994076912705695 4.229387212163563" Properties=species:S:1:pos:R:3:spacegroup_kinds:I:1:forces:R:3 spacegroup="P 1" unit_cell=conventional occupancy="_JSON {\"0\": {\"In\": 1}, \"1\": {\"In\": 1}, \"2\": {\"In\": 1}, \"3\": {\"In\": 1}, \"4\": {\"O\": 1}, \"5\": {\"O\": 1}, \"6\": {\"O\": 1}, \"7\": {\"O\": 1}, \"8\": {\"O\": 1}, \"9\": {\"O\": 1}}" n_minim_iter=6 energy=-11283.114123995438 stress="-0.3688127699956604 8.295520577308544e-05 5.727940357548778e-05 8.295520577308544e-05 -0.3689216672720618 3.09196048002619e-05 5.727940357548778e-05 3.09196048002619e-05 -0.3689450972046443" free_energy=-11283.114123995438 pbc="T T T"
In       9.00755149       4.86230499       3.35735327        0      -0.00243874      -0.00131644      -0.00090898
In       6.48495439       3.50059904       2.41711444        1       0.00243874       0.00131644       0.00090898
In       3.84338286       2.07467031       1.43253070        2      -0.00243874      -0.00131644      -0.00090898
In       1.32078576       0.71296436       0.49229187        3       0.00243874       0.00131644       0.00090898
O        5.15381234       1.91408784      -0.08513069        4       0.00000000       0.00183116      -0.00265199
O        5.90014085       4.50043758       0.77254025        5      -0.00153086       0.00283596      -0.00000000
O        6.99992443       1.59510227       2.02956291        6       0.00153086      -0.00100480      -0.00265199
O        3.32841282       3.98016708       1.82008223        7      -0.00153086       0.00100480       0.00265199
O        5.17452490       3.66118151       3.93477583        8      -0.00000000      -0.00183116       0.00265199
O        4.42819640       1.07483177       3.07710489        9       0.00153086      -0.00283596      -0.00000000
