10
Lattice="5.772675801198796 -0.005345650685951522 -0.0036910966817231055 3.163124330359644 4.82891902524926 -0.003691096681724715 3.1631243303596492 1.7074645891498055 4.516972133344242" Properties=species:S:1:pos:R:3:spacegroup_kinds:I:1:forces:R:3 spacegroup="P 1" unit_cell=conventional occupancy="_JSON {\"0\": {\"In\": 1}, \"1\": {\"In\": 1}, \"2\": {\"In\": 1}, \"3\": {\"In\": 1}, \"4\": {\"O\": 1}, \"5\": {\"O\": 1}, \"6\": {\"O\": 1}, \"7\": {\"O\": 1}, \"8\": {\"O\": 1}, \"9\": {\"O\": 1}}" n_minim_iter=1 energy=-11287.506722378615 stress="-0.05417236122547003 0.0006603596993585357 0.00045596909338845547 0.0006603596993585357 -0.05503923115893558 0.0002461335701206794 0.00045596909338845547 0.0002461335701206794 -0.055225743658070765" free_energy=-11287.506722378615 pbc="T T T"
In      10.37750512       5.60181032       3.86797131        0       0.00012231       0.00006602       0.00004559
In       7.77088158       4.19474663       2.89641360        1      -0.00012231      -0.00006602      -0.00004559
In       4.32804289       2.33629134       1.61317634        2       0.00012231       0.00006602       0.00004559
In       1.72141935       0.92922765       0.64161863        3      -0.00012231      -0.00006602      -0.00004559
O        5.91106902       2.27041421       0.19819413        4       0.00000000       0.05913459      -0.08564199
O        6.95731417       5.03623543       1.12370639        5      -0.04943681       0.09158303      -0.00000000
O        8.02794820       2.13245726       2.45668019        6       0.04943681      -0.03244844      -0.08564199
O        4.07097627       4.39858072       2.05290975        7      -0.04943681       0.03244844       0.08564199
O        6.18785545       4.26062377       4.31139582        8       0.00000000      -0.05913459       0.08564199
O        5.14161030       1.49480254       3.38588355        9       0.04943681      -0.09158303      -0.00000000
10
Lattice="5.766040698879515 -0.012207731064296436 -0.008429266757208384 3.153746771360024 4.827137420041917 -0.008429266757210004 3.1537467713600282 1.702402552931111 4.516984865181706" Properties=species:S:1:pos:R:3:spacegroup_kinds:I:1:forces:R:3 spacegroup="P 1" unit_cell=conventional occupancy="_JSON {\"0\": {\"In\": 1}, \"1\": {\"In\": 1}, \"2\": {\"In\": 1}, \"3\": {\"In\": 1}, \"4\": {\"O\": 1}, \"5\": {\"O\": 1}, \"6\": {\"O\": 1}, \"7\": {\"O\": 1}, \"8\": {\"O\": 1}, \"9\": {\"O\": 1}}" n_minim_iter=2 energy=-11287.507546945644 stress="-0.054956553153901536 -0.0005919541275890666 -0.0004087360072937765 -0.0005919541275890666 -0.05417948084601281 -0.0002206369980849618 -0.0004087360072937765 -0.0002206369980849618 -0.054012288869239" free_energy=-11287.507546945644 pbc="T T T"
In      10.35572913       5.59005558       3.85985482        0       0.03560902       0.01922186       0.01327243
In       7.75457224       4.18594280       2.89033468        1      -0.03560902      -0.01922186      -0.01327243
In       4.31896201       2.33138946       1.60979166        2       0.03560902       0.01922186       0.01327243
In       1.71780512       0.92727668       0.64027151        3      -0.03560902      -0.01922186      -0.01327243
O        5.90140391       2.26507535       0.19125981        4       0.00000000       0.04261457      -0.06171678
O        6.94169072       5.03083906       1.11660232        5      -0.03562599       0.06599811       0.00000000
O        8.01486388       2.12223548       2.44975224        6       0.03562599      -0.02338354      -0.06171678
O        4.05867037       4.39509678       2.05037410        7      -0.03562599       0.02338354       0.06171678
O        6.17213034       4.25225691       4.30886653        8       0.00000000      -0.04261457       0.06171678
O        5.13184353       1.48649320       3.38352402        9       0.03562599      -0.06599811      -0.00000000
10
Lattice="5.767662718302875 -0.010529006016034388 -0.0072701307007809485 3.1560402313617377 4.827572283259435 -0.007270130700782569 3.1560402313617413 1.7036405699454829 4.516980829418133" Properties=species:S:1:pos:R:3:spacegroup_kinds:I:1:forces:R:3 spacegroup="P 1" unit_cell=conventional occupancy="_JSON {\"0\": {\"In\": 1}, \"1\": {\"In\": 1}, \"2\": {\"In\": 1}, \"3\": {\"In\": 1}, \"4\": {\"O\": 1}, \"5\": {\"O\": 1}, \"6\": {\"O\": 1}, \"7\": {\"O\": 1}, \"8\": {\"O\": 1}, \"9\": {\"O\": 1}}" n_minim_iter=3 energy=-11287.509089153291 stress="-0.05354971857069868 -0.0003161816875151896 -0.00021831901223650006 -0.0003161816875151896 -0.05313465932582205 -0.0001178492983674942 -0.00021831901223650006 -0.0001178492983674942 -0.0530453567281757" free_energy=-11287.509089153291 pbc="T T T"
In      10.36237405       5.59364252       3.86233156        0       0.05293050       0.02857205       0.01972860
In       7.75724073       4.18738326       2.89132930        1      -0.05293050      -0.02857205      -0.01972860
In       4.32250246       2.33330060       1.61111128        2       0.05293050       0.02857205       0.01972860
In       1.71736914       0.92704133       0.64010901        3      -0.05293050      -0.02857205      -0.01972860
O        5.90376716       2.26993152       0.18781406        4       0.00000000      -0.00501389       0.00726139
O        6.94254311       5.03765700       1.11834001        5       0.00419163      -0.00776512       0.00000000
O        8.02103144       2.12278741       2.44630448        6      -0.00419163       0.00275123       0.00726139
O        4.05871175       4.39789645       2.05613610        7       0.00419163      -0.00275123      -0.00726139
O        6.17597603       4.25075234       4.31462651        8       0.00000000       0.00501389      -0.00726139
O        5.13720008       1.48302686       3.38410056        9      -0.00419163       0.00776512      -0.00000000
10
Lattice="5.770682573241887 -0.007405679509715557 -0.005113517637064665 3.1603084082688717 4.828383059558518 -0.005113517637066283 3.160308408268876 1.705944545435542 4.5169749086964135" Properties=species:S:1:pos:R:3:spacegroup_kinds:I:1:forces:R:3 spacegroup="P 1" unit_cell=conventional occupancy="_JSON {\"0\": {\"In\": 1}, \"1\": {\"In\": 1}, \"2\": {\"In\": 1}, \"3\": {\"In\": 1}, \"4\": {\"O\": 1}, \"5\": {\"O\": 1}, \"6\": {\"O\": 1}, \"7\": {\"O\": 1}, \"8\": {\"O\": 1}, \"9\": {\"O\": 1}}" n_minim_iter=4 energy=-11287.509419260923 stress="-0.05248032546320526 0.0005571551889671112 0.0003847078288160075 0.0005571551889671112 -0.05321171637270414 0.0002076665108882973 0.0003847078288160075 0.0002076665108882973 -0.05336907971098936" free_energy=-11287.509419260923 pbc="T T T"
In      10.37430413       5.60008242       3.86677822        0       0.01833516       0.00989738       0.00683400
In       7.76264496       4.19030048       2.89334360        1      -0.01833516      -0.00989738      -0.00683400
In       4.32865444       2.33662146       1.61340428        2       0.01833516       0.00989738       0.00683400
In       1.71699527       0.92683952       0.63996966        3      -0.01833516      -0.00989738      -0.00683400
O        5.90816614       2.27327688       0.18964453        4      -0.00000000      -0.00339856       0.00492199
O        6.94888877       5.04153076       1.12157345        5       0.00284122      -0.00526343      -0.00000000
O        8.02775192       2.12693757       2.44813198        6      -0.00284122       0.00186487       0.00492199
O        4.06354748       4.39998437       2.05861589        7       0.00284122      -0.00186487      -0.00492199
O        6.18313326       4.25364506       4.31710335        8      -0.00000000       0.00339856      -0.00492199
O        5.14241063       1.48539118       3.38517442        9      -0.00284122       0.00526343      -0.00000000
10
Lattice="5.76430794043787 -0.01400194052838725 -0.00966814317998183 3.1512960008923985 4.826673347274827 -0.009668143179983438 3.151296000892404 1.701079619226154 4.5169898387464995" Properties=species:S:1:pos:R:3:spacegroup_kinds:I:1:forces:R:3 spacegroup="P 1" unit_cell=conventional occupancy="_JSON {\"0\": {\"In\": 1}, \"1\": {\"In\": 1}, \"2\": {\"In\": 1}, \"3\": {\"In\": 1}, \"4\": {\"O\": 1}, \"5\": {\"O\": 1}, \"6\": {\"O\": 1}, \"7\": {\"O\": 1}, \"8\": {\"O\": 1}, \"9\": {\"O\": 1}}" n_minim_iter=5 energy=-11287.509753346907 stress="-0.05275160671722444 -1.1814504722553198e-05 -8.15775035766343e-06 -1.1814504722553198e-05 -0.05273609753430501 -4.403578926548548e-06 -8.15775035766343e-06 -4.403578926548548e-06 -0.05273276063689701" free_energy=-11287.509753346907 pbc="T T T"
In      10.35640543       5.59042065       3.86010690        0       0.00079424       0.00042873       0.00029603
In       7.74394449       4.18020590       2.88637344        1      -0.00079424      -0.00042873      -0.00029603
In       4.32295546       2.33354513       1.61128012        2       0.00079424       0.00042873       0.00029603
In       1.71049452       0.92333039       0.63754666        3      -0.00079424      -0.00042873      -0.00029603
O        5.89887896       2.26773908       0.18356855        4       0.00000000      -0.00119371       0.00172879
O        6.93421503       5.03571593       1.11474525        5       0.00099795      -0.00184872       0.00000000
O        8.01483889       2.11733642       2.44206347        6      -0.00099795       0.00065501       0.00172879
O        4.05206106       4.39641462       2.05559009        7       0.00099795      -0.00065501      -0.00172879
O        6.16802099       4.24601196       4.31408501        8       0.00000000       0.00119371      -0.00172879
O        5.13268492       1.47803511       3.38290831        9      -0.00099795       0.00184872      -0.00000000
