10
Lattice="6.420599587066688 0.0910468831108443 0.06286659339976962 3.599238904921874 5.317693851441804 0.06286659339975563 3.5992389049218807 1.9428806256710653 4.950458057656842" Properties=species:S:1:pos:R:3:spacegroup_kinds:I:1:forces:R:3 spacegroup="P 1" unit_cell=conventional occupancy="_JSON {\"0\": {\"In\": 1}, \"1\": {\"In\": 1}, \"2\": {\"In\": 1}, \"3\": {\"In\": 1}, \"4\": {\"O\": 1}, \"5\": {\"O\": 1}, \"6\": {\"O\": 1}, \"7\": {\"O\": 1}, \"8\": {\"O\": 1}, \"9\": {\"O\": 1}}" n_minim_iter=5 energy=-11285.18796406433 stress="0.12001318892455641 2.8860513343023087e-06 1.9927771116992925e-06 2.8860513343023087e-06 0.12000940033645781 1.0757080435625235e-06 1.9927771116992925e-06 1.0757080435625235e-06 0.12000858519948285" free_energy=-11285.18796406433 pbc="T T T"
In      11.57102855       6.24607807       4.31282914        0      -0.00003434      -0.00001854      -0.00001280
In       8.85758756       4.78135398       3.30145774        1       0.00003434       0.00001854       0.00001280
In       4.76148985       2.57026739       1.77473351        2      -0.00003434      -0.00001854      -0.00001280
In       2.04804886       1.10554330       0.76336211        3       0.00003434       0.00001854       0.00001280
O        6.61506915       2.58805723       0.27999916        4       0.00000000      -0.00006633       0.00009606
O        7.82561571       5.63354918       1.33191441        5       0.00005545      -0.00010273      -0.00000000
O        9.00376149       2.46822408       2.75522819        6      -0.00005545       0.00003640       0.00009606
O        4.61531591       4.88339729       2.32096306        7       0.00005545      -0.00003640      -0.00009606
O        7.00400826       4.76356414       4.79619209        8      -0.00000000       0.00006633      -0.00009606
O        5.79346170       1.71807219       3.74427684        9      -0.00005545       0.00010273       0.00000000
