10
Lattice="5.417047035251645 -0.09987918466665804 -0.06896517351282996 2.8889525517682206 4.583484219160159 -0.06896517351282302 2.888952551768235 1.5594657897362425 4.3105858340937955" Properties=species:S:1:pos:R:3:spacegroup_kinds:I:1:forces:R:3 spacegroup="P 1" unit_cell=conventional occupancy="_JSON {\"0\": {\"In\": 1}, \"1\": {\"In\": 1}, \"2\": {\"In\": 1}, \"3\": {\"In\": 1}, \"4\": {\"O\": 1}, \"5\": {\"O\": 1}, \"6\": {\"O\": 1}, \"7\": {\"O\": 1}, \"8\": {\"O\": 1}, \"9\": {\"O\": 1}}" n_minim_iter=1 energy=-11285.06197814907 stress="-0.2689486855884759 0.00464677053472775 0.0032085297571781356 0.00464677053472775 -0.2750486121412864 0.0017319745840876132 0.0032085297571781356 0.0017319745840876132 -0.27636104956455987" free_energy=-11285.06197814907 pbc="T T T"
In       9.66883832       5.21926973       3.60383240        0       0.20711143       0.11179941       0.07719592
In       7.12358990       3.84533652       2.65515083        1      -0.20711143      -0.11179941      -0.07719592
In       4.07136225       2.19773432       1.51750466        2       0.20711143       0.11179941       0.07719592
In       1.52611383       0.82380111       0.56882309        3      -0.20711143      -0.11179941      -0.07719592
O        5.50726156       2.10758296       0.07201509        4       0.00000000       0.00915224      -0.01325479
O        6.41104756       4.75421358       0.97419870        5      -0.00765132       0.01417428       0.00000000
O        7.49242811       1.88567250       2.22730801        6       0.00765132      -0.00502204      -0.01325479
O        3.70252404       4.15739833       1.94534748        7      -0.00765132       0.00502204       0.01325479
O        5.68769059       3.93548787       4.10064040        8      -0.00000000      -0.00915224       0.01325479
O        4.78390459       1.28885725       3.19845679        9       0.00765132      -0.01417428      -0.00000000
10
Lattice="5.393795061757981 -0.12469607635024761 -0.08610088849407962 2.855446640779627 4.577663024007154 -0.08610088849407263 2.85544664077964 1.5413791922569304 4.311213554214064" Properties=species:S:1:pos:R:3:spacegroup_kinds:I:1:forces:R:3 spacegroup="P 1" unit_cell=conventional occupancy="_JSON {\"0\": {\"In\": 1}, \"1\": {\"In\": 1}, \"2\": {\"In\": 1}, \"3\": {\"In\": 1}, \"4\": {\"O\": 1}, \"5\": {\"O\": 1}, \"6\": {\"O\": 1}, \"7\": {\"O\": 1}, \"8\": {\"O\": 1}, \"9\": {\"O\": 1}}" n_minim_iter=2 energy=-11285.068833042174 stress="-0.270883856692753 -0.0012874087297375966 -0.0008889376374866701 -0.0012874087297375966 -0.26919384453622824 -0.00047985136588206173 -0.0008889376374866701 -0.00047985136588206173 -0.26883022783043065" free_energy=-11285.068833042174 pbc="T T T"
In       9.59273024       5.17818634       3.57546490        0       0.34943077       0.18862384       0.13024211
In       7.06430228       3.81333288       2.63305277        1      -0.34943077      -0.18862384      -0.13024211
In       4.04038607       2.18101327       1.50595902        2       0.34943077       0.18862384       0.13024211
In       1.51195811       0.81615981       0.56354688        3      -0.34943077      -0.18862384      -0.13024211
O        5.47306962       2.08569937       0.05111730        4      -0.00000000      -0.04399361       0.06371398
O        6.35784042       4.73090424       0.94865206        5       0.03677888      -0.06813387      -0.00000000
O        7.44374546       1.85055473       2.20672408        6      -0.03677888       0.02414026       0.06371398
O        3.66094289       4.14379142       1.93228770        7       0.03677888      -0.02414026      -0.06371398
O        5.63161873       3.90864678       4.08789448        8       0.00000000       0.04399361      -0.06371398
O        4.74684793       1.26344191       3.19035972        9      -0.03677888       0.06813387      -0.00000000
10
Lattice="5.355774737049074 -0.1656998774043322 -0.11441343693765751 2.8003046759175483 4.568377524397398 -0.11441343693765055 2.80030467591756 1.5116133839785577 4.312561723308776" Properties=species:S:1:pos:R:3:spacegroup_kinds:I:1:forces:R:3 spacegroup="P 1" unit_cell=conventional occupancy="_JSON {\"0\": {\"In\": 1}, \"1\": {\"In\": 1}, \"2\": {\"In\": 1}, \"3\": {\"In\": 1}, \"4\": {\"O\": 1}, \"5\": {\"O\": 1}, \"6\": {\"O\": 1}, \"7\": {\"O\": 1}, \"8\": {\"O\": 1}, \"9\": {\"O\": 1}}" n_minim_iter=3 energy=-11285.088712532475 stress="-0.2529567012378492 -0.0012213336596657305 -0.0008433137297053486 -0.0012213336596657305 -0.2513534274012207 -0.000455223438778467 -0.0008433137297053486 -0.000455223438778467 -0.25100847298818424" free_energy=-11285.088712532475 pbc="T T T"
In       9.48799570       5.12165030       3.53642756        0       0.06481270       0.03498610       0.02415741
In       6.94658045       3.74978625       2.58917472        1      -0.06481270      -0.03498610      -0.02415741
In       4.00980365       2.16450479       1.49456014        2       0.06481270       0.03498610       0.02415741
In       1.46838840       0.79264074       0.54730729        3      -0.06481270      -0.03498610      -0.02415741
O        5.41698339       2.04753724       0.01973325        4      -0.00000000       0.11813892      -0.17109533
O        6.27221563       4.68939081       0.90652028        5      -0.09876473       0.18296433      -0.00000000
O        7.36205583       1.79386471       2.17601411        6       0.09876473      -0.06482541      -0.17109533
O        3.59432826       4.12042633       1.90772074        7      -0.09876473       0.06482541       0.17109533
O        5.53940070       3.86675380       4.06400160        8       0.00000000      -0.11813892       0.17109533
O        4.68416846       1.22490023       3.17721458        9       0.09876473      -0.18296433       0.00000000
10
Lattice="5.363695915514886 -0.1571126078709286 -0.10848404799291397 2.81183019972886 4.570287646697518 -0.10848404799290702 2.811830199728874 1.5178348984446 4.312247115285533" Properties=species:S:1:pos:R:3:spacegroup_kinds:I:1:forces:R:3 spacegroup="P 1" unit_cell=conventional occupancy="_JSON {\"0\": {\"In\": 1}, \"1\": {\"In\": 1}, \"2\": {\"In\": 1}, \"3\": {\"In\": 1}, \"4\": {\"O\": 1}, \"5\": {\"O\": 1}, \"6\": {\"O\": 1}, \"7\": {\"O\": 1}, \"8\": {\"O\": 1}, \"9\": {\"O\": 1}}" n_minim_iter=4 energy=-11285.097892853055 stress="-0.24709145880690905 0.0020260923123976145 0.0013989882720216043 0.0020260923123976145 -0.2497511585288072 0.0007551783249377026 0.0013989882720216043 0.0007551783249377026 -0.25032340959058846" free_energy=-11285.097892853055 pbc="T T T"
In       9.52495429       5.14160067       3.55020301        0      -0.03238318      -0.01748054      -0.01207007
In       6.95608020       3.75491425       2.59271552        1       0.03238318       0.01748054       0.01207007
In       4.03127613       2.17609570       1.50256350        2      -0.03238318      -0.01748054      -0.01207007
In       1.46240204       0.78940928       0.54507601        3       0.03238318       0.01748054       0.01207007
O        5.42868704       2.06137272       0.01781828        4       0.00000000       0.02719931      -0.03939155
O        6.28519929       4.70712366       0.91533571        5      -0.02273876       0.04212416      -0.00000000
O        7.38400500       1.80250652       2.17394184        6       0.02273876      -0.01492485      -0.03939155
O        3.60335133       4.12850343       1.92133719        7      -0.02273876       0.01492485       0.03939155
O        5.55866928       3.86963723       4.07746075        8      -0.00000000      -0.02719931       0.03939155
O        4.70215704       1.22388629       3.17994331        9       0.02273876      -0.04212416       0.00000000
10
Lattice="5.35501702671457 -0.16652255309476108 -0.1149814829416827 2.7992011427254844 4.568195494903499 -0.11498148294167573 2.7992011427254972 1.5110176932463564 4.312592764425181" Properties=species:S:1:pos:R:3:spacegroup_kinds:I:1:forces:R:3 spacegroup="P 1" unit_cell=conventional occupancy="_JSON {\"0\": {\"In\": 1}, \"1\": {\"In\": 1}, \"2\": {\"In\": 1}, \"3\": {\"In\": 1}, \"4\": {\"O\": 1}, \"5\": {\"O\": 1}, \"6\": {\"O\": 1}, \"7\": {\"O\": 1}, \"8\": {\"O\": 1}, \"9\": {\"O\": 1}}" n_minim_iter=5 energy=-11285.098846833504 stress="-0.24616315314393059 0.000251100802838023 0.00017338157458799376 0.000251100802838023 -0.2464927791557103 9.35919269353547e-05 0.00017338157458799376 9.35919269353547e-05 -0.24656370026014254" free_energy=-11285.098846833504 pbc="T T T"
In       9.49815175       5.12713257       3.54021299        0       0.00086950       0.00046936       0.00032409
In       6.93197723       3.74190339       2.58373171        1      -0.00086950      -0.00046936      -0.00032409
In       4.02144209       2.17078726       1.49889809        2       0.00086950       0.00046936       0.00032409
In       1.45526757       0.78555807       0.54241681        3      -0.00086950      -0.00046936      -0.00032409
O        5.41586335       2.05375278       0.00899611        4      -0.00000000       0.00106100      -0.00153660
O        6.26466923       4.69937119       0.90567597        5      -0.00088700       0.00164319      -0.00000000
O        7.36625860       1.78889957       2.16529249        6       0.00088700      -0.00058219      -0.00153660
O        3.58716072       4.12379108       1.91733731        7      -0.00088700       0.00058219       0.00153660
O        5.53755597       3.85893787       4.07363369        8       0.00000000      -0.00106100       0.00153660
O        4.68875009       1.21331946       3.17695383        9       0.00088700      -0.00164319      -0.00000000
