10
Lattice="5.981398531540306 0.0077685344798032975 0.005364063895076359 3.288618576398705 4.99621622852793 0.005364063895075027 3.2886185763987035 1.7752067829033378 4.67020837365115" Properties=species:S:1:pos:R:3:spacegroup_kinds:I:1:forces:R:3 spacegroup="P 1" unit_cell=conventional occupancy="_JSON {\"0\": {\"In\": 1}, \"1\": {\"In\": 1}, \"2\": {\"In\": 1}, \"3\": {\"In\": 1}, \"4\": {\"O\": 1}, \"5\": {\"O\": 1}, \"6\": {\"O\": 1}, \"7\": {\"O\": 1}, \"8\": {\"O\": 1}, \"9\": {\"O\": 1}}" n_minim_iter=1 energy=-11287.528588618721 stress="0.04492129029788284 0.0003928740301884437 0.0002712739968185332 0.0003928740301884437 0.044405555184213547 0.00014643456814685704 0.0002712739968185332 0.00014643456814685704 0.04429459154366198" free_energy=-11287.528588618721 pbc="T T T"
In      10.75706998       5.80670064       4.00944520        0      -0.05632621      -0.03040507      -0.02099427
In       8.08088356       4.36208669       3.01195956        1       0.05632621       0.03040507       0.02099427
In       4.47775214       2.41710487       1.66897695        2      -0.05632621      -0.03040507      -0.02099427
In       1.80156571       0.97249091       0.67149131        3       0.05632621       0.03040507       0.02099427
O        6.13035819       2.34975542       0.22999580        4      -0.00000000      -0.03348297       0.04849189
O        7.23036699       5.20512165       1.17559819        5       0.02799193      -0.05185581       0.00000000
O        8.31896797       2.22902743       2.56509999        6      -0.02799193       0.01837284       0.04849189
O        4.23966772       4.55016413       2.11583652        7       0.02799193      -0.01837284      -0.04849189
O        6.42827750       4.42943614       4.45094071        8       0.00000000       0.03348297      -0.04849189
O        5.32826870       1.57406991       3.50533831        9      -0.02799193       0.05185581      -0.00000000
10
Lattice="5.9768601087974575 0.003093186362189748 0.0021358017177253853 3.282219630358466 4.994987550137207 0.002135801717724057 3.2822196303584654 1.7717526114480078 4.670203193813078" Properties=species:S:1:pos:R:3:spacegroup_kinds:I:1:forces:R:3 spacegroup="P 1" unit_cell=conventional occupancy="_JSON {\"0\": {\"In\": 1}, \"1\": {\"In\": 1}, \"2\": {\"In\": 1}, \"3\": {\"In\": 1}, \"4\": {\"O\": 1}, \"5\": {\"O\": 1}, \"6\": {\"O\": 1}, \"7\": {\"O\": 1}, \"8\": {\"O\": 1}, \"9\": {\"O\": 1}}" n_minim_iter=2 energy=-11287.529084599117 stress="0.043946751058210394 -0.000389190695654129 -0.0002687307061623532 -0.000389190695654129 0.04445765096988941 -0.00014506169108084583 -0.0002687307061623532 -0.00014506169108084583 0.04456757428865451" free_energy=-11287.529084599117 pbc="T T T"
In      10.74141705       5.79825114       4.00361094        0      -0.04084063      -0.02204590      -0.01522238
In       8.07053201       4.35649889       3.00810127        1       0.04084063       0.02204590       0.01522238
In       4.47076737       2.41333447       1.66637354        2      -0.04084063      -0.02204590      -0.01522238
In       1.79988233       0.97158222       0.67086387        3       0.04084063       0.02204590       0.01522238
O        6.12375490       2.34504938       0.22680797        4       0.00000000      -0.02765652       0.04005370
O        7.22058831       5.19978547       1.17075450        5       0.02312099      -0.04283225      -0.00000000
O        8.30914112       2.22263893       2.56190957        6      -0.02312099       0.01517573       0.04005370
O        4.23215826       4.54719443       2.11256523        7       0.02312099      -0.01517573      -0.04005370
O        6.41754448       4.42478398       4.44766683        8       0.00000000       0.02765652      -0.04005370
O        5.32071106       1.57004789       3.50372030        9      -0.02312099       0.04283225       0.00000000
10
Lattice="5.9789326516476065 0.00522898686109584 0.003610541950011069 3.2851424197620416 4.995548245900687 0.0036105419500097402 3.2851424197620407 1.7733303424781313 4.670205007232663" Properties=species:S:1:pos:R:3:spacegroup_kinds:I:1:forces:R:3 spacegroup="P 1" unit_cell=conventional occupancy="_JSON {\"0\": {\"In\": 1}, \"1\": {\"In\": 1}, \"2\": {\"In\": 1}, \"3\": {\"In\": 1}, \"4\": {\"O\": 1}, \"5\": {\"O\": 1}, \"6\": {\"O\": 1}, \"7\": {\"O\": 1}, \"8\": {\"O\": 1}, \"9\": {\"O\": 1}}" n_minim_iter=3 energy=-11287.530714263092 stress="0.042484663985132634 -0.0008918374758857392 -0.000615801244973298 -0.0008918374758857392 0.043655400319782454 -0.00033241147335783124 -0.000615801244973298 -0.00033241147335783124 0.04390729157800794" free_energy=-11287.530714263092 pbc="T T T"
In      10.74251092       5.79884162       4.00401865        0      -0.01820659      -0.00982798      -0.00678608
In       8.08131533       4.36231976       3.01212049        1       0.01820659       0.00982798       0.00678608
In       4.46790217       2.41178783       1.66530560        2      -0.01820659      -0.00982798      -0.00678608
In       1.80670658       0.97526597       0.67340745        3       0.01820659       0.00982798       0.00678608
O        6.12677070       2.34338008       0.23379487        4       0.00000000       0.01195582      -0.01731508
O        7.22824714       5.19630821       1.17296707        5      -0.00999512       0.01851624      -0.00000000
O        8.31043668       2.22765256       2.56889738        6       0.00999512      -0.00656042      -0.01731508
O        4.23878082       4.54645503       2.10852872        7      -0.00999512       0.00656042       0.01731508
O        6.42244680       4.43072750       4.44363122        8      -0.00000000      -0.01195582       0.01731508
O        5.32097036       1.57779937       3.50445903        9       0.00999512      -0.01851624       0.00000000
10
Lattice="5.984203910517934 0.010655621552558328 0.007357556949546763 3.292571568316174 4.996977331592042 0.0073575569495454365 3.2925715683161716 1.7773406205320037 4.670213796465421" Properties=species:S:1:pos:R:3:spacegroup_kinds:I:1:forces:R:3 spacegroup="P 1" unit_cell=conventional occupancy="_JSON {\"0\": {\"In\": 1}, \"1\": {\"In\": 1}, \"2\": {\"In\": 1}, \"3\": {\"In\": 1}, \"4\": {\"O\": 1}, \"5\": {\"O\": 1}, \"6\": {\"O\": 1}, \"7\": {\"O\": 1}, \"8\": {\"O\": 1}, \"9\": {\"O\": 1}}" n_minim_iter=4 energy=-11287.531124903191 stress="0.04305457034020446 -0.0002760883943857738 -0.00019063515652046248 -0.0002760883943857738 0.04341699816103327 -0.00010290546490382998 -0.00019063515652046248 -0.00010290546490382998 0.04349497677886353" free_energy=-11287.531124903191 pbc="T T T"
In      10.75878492       5.80762637       4.01008440        0      -0.02605416      -0.01406412      -0.00971108
In       8.09523566       4.36983400       3.01730897        1       0.02605416       0.01406412       0.00971108
In       4.47411140       2.41513959       1.66761995        2      -0.02605416      -0.01406412      -0.00971108
In       1.81056214       0.97734721       0.67484451        3       0.02605416       0.01406412       0.00971108
O        6.13443872       2.34805519       0.23863710        4      -0.00000000       0.01331536      -0.01928404
O        7.24026068       5.20128373       1.17858979        5      -0.01113171       0.02062179      -0.00000000
O        8.32118833       2.23550164       2.57374400        6       0.01113171      -0.00730643      -0.01928404
O        4.24815872       4.54947195       2.11118491        7      -0.01113171       0.00730643       0.01928404
O        6.43490833       4.43691840       4.44629181        8       0.00000000      -0.01331536       0.01928404
O        5.32908638       1.58368985       3.50633913        9       0.01113171      -0.02062179      -0.00000000
10
Lattice="5.988781559106056 0.015361810064735667 0.010607113985975667 3.2990178211582455 4.99822188018674 0.010607113985974356 3.299017821158243 1.7808203283496515 4.670226272096598" Properties=species:S:1:pos:R:3:spacegroup_kinds:I:1:forces:R:3 spacegroup="P 1" unit_cell=conventional occupancy="_JSON {\"0\": {\"In\": 1}, \"1\": {\"In\": 1}, \"2\": {\"In\": 1}, \"3\": {\"In\": 1}, \"4\": {\"O\": 1}, \"5\": {\"O\": 1}, \"6\": {\"O\": 1}, \"7\": {\"O\": 1}, \"8\": {\"O\": 1}, \"9\": {\"O\": 1}}" n_minim_iter=5 energy=-11287.531368443875 stress="0.04337647001816646 0.0001492430900074991 0.00010305025733092259 0.0001492430900074991 0.043180555053041414 5.562685698032231e-05 0.00010305025733092259 5.562685698032231e-05 0.043138402721290166" free_energy=-11287.531368443875 pbc="T T T"
In      10.77215373       5.81484290       4.01506731        0      -0.02745275      -0.01481908      -0.01023237
In       8.10807208       4.37676314       3.02209345        1       0.02745275       0.01481908       0.01023237
In       4.47874513       2.41764089       1.66934706        2      -0.02745275      -0.01481908      -0.01023237
In       1.81466348       0.97956113       0.67637320        3       0.02745275       0.01481908       0.01023237
O        6.14109508       2.35218906       0.24272518        4       0.00000000       0.01252216      -0.01813528
O        7.25062240       5.20572336       1.18346724        5      -0.01046859       0.01939334       0.00000000
O        8.33058559       2.24226872       2.57783831        6       0.01046859      -0.00687118      -0.01813528
O        4.25623162       4.55213531       2.11360219        7      -0.01046859       0.00687118       0.01813528
O        6.44572213       4.44221497       4.44871533        8       0.00000000      -0.01252216       0.01813528
O        5.33619481       1.58868067       3.50797326        9       0.01046859      -0.01939334      -0.00000000
10
Lattice="5.995706223579088 0.02246969876529987 0.015515011253861698 3.308759766220221 5.000110680401962 0.015515011253860407 3.3087597662202195 1.7860790613254989 4.670253646060211" Properties=species:S:1:pos:R:3:spacegroup_kinds:I:1:forces:R:3 spacegroup="P 1" unit_cell=conventional occupancy="_JSON {\"0\": {\"In\": 1}, \"1\": {\"In\": 1}, \"2\": {\"In\": 1}, \"3\": {\"In\": 1}, \"4\": {\"O\": 1}, \"5\": {\"O\": 1}, \"6\": {\"O\": 1}, \"7\": {\"O\": 1}, \"8\": {\"O\": 1}, \"9\": {\"O\": 1}}" n_minim_iter=6 energy=-11287.531647241292 stress="0.04342453279239885 0.0005123613486291185 0.0003537783113797316 0.0005123613486291185 0.04275194382561235 0.00019097065999296433 0.0003537783113797316 0.00019097065999296433 0.04260723209407359" free_energy=-11287.531647241292 pbc="T T T"
In      10.79047037       5.82473028       4.02189441        0      -0.01597024      -0.00862079      -0.00595253
In       8.12936828       4.38825889       3.03003110        1       0.01597024       0.00862079       0.00595253
In       4.48385749       2.42040056       1.67125257        2      -0.01597024      -0.00862079      -0.00595253
In       1.82275540       0.98392917       0.67938927        3       0.01597024       0.00862079       0.00595253
O        6.15115956       2.35867240       0.24855878        4      -0.00000000       0.00582116      -0.00843052
O        7.26608826       5.21280295       1.19083593        5      -0.00486652       0.00901535      -0.00000000
O        8.34499062       2.25236403       2.58368560        6       0.00486652      -0.00319420      -0.00843052
O        4.26823515       4.55629542       2.11759807        7      -0.00486652       0.00319420       0.00843052
O        6.46206621       4.44998705       4.45272489        8       0.00000000      -0.00582116       0.00843052
O        5.34713751       1.59585650       3.51044774        9       0.00486652      -0.00901535       0.00000000
10
Lattice="5.992971559434856 0.019664285080656492 0.013577912526210226 3.3049138564363107 4.999363879318843 0.013577912526208918 3.3049138564363094 1.7840030269736207 4.670241616586399" Properties=species:S:1:pos:R:3:spacegroup_kinds:I:1:forces:R:3 spacegroup="P 1" unit_cell=conventional occupancy="_JSON {\"0\": {\"In\": 1}, \"1\": {\"In\": 1}, \"2\": {\"In\": 1}, \"3\": {\"In\": 1}, \"4\": {\"O\": 1}, \"5\": {\"O\": 1}, \"6\": {\"O\": 1}, \"7\": {\"O\": 1}, \"8\": {\"O\": 1}, \"9\": {\"O\": 1}}" n_minim_iter=7 energy=-11287.531791462192 stress="0.04279249846159227 -7.538991536200573e-06 -5.2055671039872325e-06 -7.538991536200573e-06 0.04280239507607204 -2.80998237507207e-06 -5.2055671039872325e-06 -2.80998237507207e-06 0.04280452439324508" free_energy=-11287.531791462192 pbc="T T T"
In      10.78049152       5.81934367       4.01817503        0       0.00039791       0.00021479       0.00014831
In       8.12370740       4.38520313       3.02792114        1      -0.00039791      -0.00021479      -0.00014831
In       4.47909189       2.41782807       1.66947631        2       0.00039791       0.00021479       0.00014831
In       1.82230776       0.98368754       0.67922242        3      -0.00039791      -0.00021479      -0.00014831
O        6.14718560       2.35645536       0.24576025        4      -0.00000000       0.00074606      -0.00108048
O        7.25969583       5.21053776       1.18792728        5      -0.00062371       0.00115543      -0.00000000
O        8.33958924       2.24819100       2.58088106        6       0.00062371      -0.00040938      -0.00108048
O        4.26321005       4.55484020       2.11651639        7      -0.00062371       0.00040938       0.00108048
O        6.45561368       4.44657585       4.45163719        8       0.00000000      -0.00074606       0.00108048
O        5.34310346       1.59249344       3.50947017        9       0.00062371      -0.00115543       0.00000000
