10
Lattice="5.703676420588628 -0.023852983713703202 -0.016470150072859093 3.109790640189446 4.78139057699754 -0.016470150072862212 3.1097906401894484 1.678674893310082 4.477054580660662" Properties=species:S:1:pos:R:3:spacegroup_kinds:I:1:forces:R:3 spacegroup="P 1" unit_cell=conventional occupancy="_JSON {\"0\": {\"In\": 1}, \"1\": {\"In\": 1}, \"2\": {\"In\": 1}, \"3\": {\"In\": 1}, \"4\": {\"O\": 1}, \"5\": {\"O\": 1}, \"6\": {\"O\": 1}, \"7\": {\"O\": 1}, \"8\": {\"O\": 1}, \"9\": {\"O\": 1}}" n_minim_iter=5 energy=-11287.282855418316 stress="-0.08485693370227715 2.211028154713789e-06 1.5266842380922124e-06 2.211028154713789e-06 -0.08485983617127019 8.241085911549223e-07 1.5266842380922124e-06 8.241085911549223e-07 -0.08486046065673102" free_energy=-11287.282855418316 pbc="T T T"
In      10.24234233       5.52884902       3.81759255        0       0.00022375       0.00012078       0.00008340
In       7.64254424       4.12546973       2.84857887        1      -0.00022375      -0.00012078      -0.00008340
In       4.28071347       2.31074277       1.59553541        2       0.00022375       0.00012078       0.00008340
In       1.68091538       0.90736348       0.62652173        3      -0.00022375      -0.00012078      -0.00008340
O        5.83265264       2.24459885       0.16508837        4      -0.00000000      -0.00050756       0.00073508
O        6.84625796       4.99057629       1.09455842        5       0.00042433      -0.00078607       0.00000000
O        7.92883796       2.08118193       2.40361566        6      -0.00042433       0.00027851       0.00073508
O        3.99441975       4.35503057       2.04049863        7       0.00042433      -0.00027851      -0.00073508
O        6.09060507       4.19161365       4.27902592        8       0.00000000       0.00050756      -0.00073508
O        5.07699975       1.44563621       3.34955586        9      -0.00042433       0.00078607       0.00000000
