10
Lattice="6.243563760767608 0.08750242050737919 0.06041919177877674 3.4991322911301945 5.171635942091748 0.06041919177877044 3.499132291130194 1.8888427566728385 4.814742136068652" Properties=species:S:1:pos:R:3:spacegroup_kinds:I:1:forces:R:3 spacegroup="P 1" unit_cell=conventional occupancy="_JSON {\"0\": {\"In\": 1}, \"1\": {\"In\": 1}, \"2\": {\"In\": 1}, \"3\": {\"In\": 1}, \"4\": {\"O\": 1}, \"5\": {\"O\": 1}, \"6\": {\"O\": 1}, \"7\": {\"O\": 1}, \"8\": {\"O\": 1}, \"9\": {\"O\": 1}}" n_minim_iter=4 energy=-11286.612525704992 stress="0.0931228423369089 3.202818928151786e-05 2.211501394871751e-05 3.202818928151786e-05 0.09308079817037765 1.1937754821378891e-05 2.211501394871751e-05 1.1937754821378891e-05 0.09307175210425299" free_energy=-11286.612525704992 pbc="T T T"
In      11.27223301       6.08478729       4.20146012        0      -0.00803700      -0.00433840      -0.00299560
In       8.59050951       4.63718440       3.20191067        1       0.00803700       0.00433840       0.00299560
In       4.65131884       2.51079673       1.73366986        2      -0.00803700      -0.00433840      -0.00299560
In       1.96959534       1.06319384       0.73412041        3       0.00803700       0.00433840       0.00299560
O        6.43223897       2.49013505       0.30914170        4      -0.00000000      -0.00450363       0.00652241
O        7.63055300       5.43777393       1.29431432        5       0.00376506      -0.00697487      -0.00000000
O        8.73305724       2.41334697       2.71651276        6      -0.00376506       0.00247124       0.00652241
O        4.50877112       4.73463416       2.21906776        7       0.00376506      -0.00247124      -0.00652241
O        6.80958938       4.65784608       4.62643883        8       0.00000000       0.00450363      -0.00652241
O        5.61127536       1.71020720       3.64126620        9      -0.00376506       0.00697487       0.00000000
