10
Lattice="5.087544510782589 -0.2719925803580953 -0.18780705470513 2.5642596614544013 4.402460846117955 -0.1878070547051232 2.564259661454409 1.3841955332880773 4.183411970751141" Properties=species:S:1:pos:R:3:spacegroup_kinds:I:1:forces:R:3 spacegroup="P 1" unit_cell=conventional occupancy="_JSON {\"0\": {\"In\": 1}, \"1\": {\"In\": 1}, \"2\": {\"In\": 1}, \"3\": {\"In\": 1}, \"4\": {\"O\": 1}, \"5\": {\"O\": 1}, \"6\": {\"O\": 1}, \"7\": {\"O\": 1}, \"8\": {\"O\": 1}, \"9\": {\"O\": 1}}" n_minim_iter=6 energy=-11283.114123995438 stress="-0.3688127699956604 8.295520577308544e-05 5.727940357548778e-05 8.295520577308544e-05 -0.3689216672720618 3.09196048002619e-05 5.727940357548778e-05 3.09196048002619e-05 -0.3689450972046443" free_energy=-11283.114123995438 pbc="T T T"
In       8.90963557       4.80944966       3.32085741        0      -0.00243874      -0.00131644      -0.00090898
In       6.41446017       3.46254604       2.39083938        1       0.00243874       0.00131644       0.00090898
In       3.80160365       2.05211776       1.41695848        2      -0.00243874      -0.00131644      -0.00090898
In       1.30642826       0.70521414       0.48694045        3       0.00243874       0.00131644       0.00090898
O        5.09778821       1.89328089      -0.08420529        4       0.00000000       0.00183116      -0.00265199
O        5.83600381       4.45151590       0.76414241        5      -0.00153086       0.00283596      -0.00000000
O        6.92383227       1.57776283       2.00750070        6       0.00153086      -0.00100480      -0.00265199
O        3.29223155       3.93690097       1.80029716        7      -0.00153086       0.00100480       0.00265199
O        5.11827561       3.62138291       3.89200314        8      -0.00000000      -0.00183116       0.00265199
O        4.38006001       1.06314789       3.04365545        9       0.00153086      -0.00283596      -0.00000000
