10
Lattice="6.040162254844516 0.019819128346386505 0.013684829625343568 3.330937871669408 5.038730570071709 0.01368482962534225 3.3309378716694065 1.7980508732917437 4.7070166867552" Properties=species:S:1:pos:R:3:spacegroup_kinds:I:1:forces:R:3 spacegroup="P 1" unit_cell=conventional occupancy="_JSON {\"0\": {\"In\": 1}, \"1\": {\"In\": 1}, \"2\": {\"In\": 1}, \"3\": {\"In\": 1}, \"4\": {\"O\": 1}, \"5\": {\"O\": 1}, \"6\": {\"O\": 1}, \"7\": {\"O\": 1}, \"8\": {\"O\": 1}, \"9\": {\"O\": 1}}" n_minim_iter=7 energy=-11287.531791462192 stress="0.04279249846159227 -7.538991536200573e-06 -5.2055671039872325e-06 -7.538991536200573e-06 0.04280239507607204 -2.80998237507207e-06 -5.2055671039872325e-06 -2.80998237507207e-06 0.04280452439324508" free_energy=-11287.531791462192 pbc="T T T"
In      10.86538078       5.86516716       4.04981550        0       0.00039791       0.00021479       0.00014831
In       8.18767623       4.41973371       3.05176402        1      -0.00039791      -0.00021479      -0.00014831
In       4.51436178       2.43686687       1.68262233        2       0.00039791       0.00021479       0.00014831
In       1.83665723       0.99143343       0.68457085        3      -0.00039791      -0.00021479      -0.00014831
O        6.19559063       2.37501089       0.24769545        4      -0.00000000       0.00074606      -0.00108048
O        7.31686114       5.25156730       1.19728142        5      -0.00062371       0.00115543      -0.00000000
O        8.40525800       2.26589402       2.60120379        6       0.00062371      -0.00040938      -0.00108048
O        4.29678001       4.59070656       2.13318256        7      -0.00062371       0.00040938       0.00108048
O        6.50644738       4.48158969       4.48669090        8       0.00000000      -0.00074606       0.00108048
O        5.38517687       1.60503328       3.53710493        9       0.00062371      -0.00115543       0.00000000
