10
Lattice="6.41560216210287 0.08600326602344 0.05938404667368577 3.5922802196409385 5.316283522134801 0.05938404667367636 3.5922802196409456 1.9391243051906353 4.950373105306335" Properties=species:S:1:pos:R:3:spacegroup_kinds:I:1:forces:R:3 spacegroup="P 1" unit_cell=conventional occupancy="_JSON {\"0\": {\"In\": 1}, \"1\": {\"In\": 1}, \"2\": {\"In\": 1}, \"3\": {\"In\": 1}, \"4\": {\"O\": 1}, \"5\": {\"O\": 1}, \"6\": {\"O\": 1}, \"7\": {\"O\": 1}, \"8\": {\"O\": 1}, \"9\": {\"O\": 1}}" n_minim_iter=5 energy=-11285.575827458895 stress="0.11363384526556865 -4.848576336414884e-06 -3.3478739935343234e-06 -4.848576336414884e-06 0.11364021010854028 -1.8071929370387237e-06 -3.3478739935343234e-06 -1.8071929370387237e-06 0.11364157954292331" free_energy=-11285.575827458895 pbc="T T T"
In      11.55788014       6.23898052       4.30792837        0      -0.00001051      -0.00000568      -0.00000392
In       8.84236378       4.77313614       3.29578343        1       0.00001051       0.00000568       0.00000392
In       4.75779883       2.56827497       1.77335778        2      -0.00001051      -0.00000568      -0.00000392
In       2.04228248       1.10243059       0.76121283        3       0.00001051       0.00000568       0.00000392
O        6.60784174       2.57709722       0.28501928        4      -0.00000000      -0.00002421       0.00003506
O        7.81982937       5.61865443       1.32666935        5       0.00002024      -0.00003749       0.00000000
O        8.98813432       2.46450112       2.76020583        6      -0.00002024       0.00001328       0.00003506
O        4.61202829       4.87690999       2.30893537        7       0.00002024      -0.00001328      -0.00003506
O        6.99232088       4.76431388       4.78412192        8      -0.00000000       0.00002421      -0.00003506
O        5.78033324       1.72275668       3.74247185        9      -0.00002024       0.00003749      -0.00000000
