10
Lattice="5.772675801198796 -0.0053456506859565 -0.0036910966817190883 3.163124330359645 4.828919025249253 -0.003691096681719942 3.16312433035965 1.7074645891498 4.516972133344245" Properties=species:S:1:pos:R:3:spacegroup_kinds:I:1:forces:R:3 spacegroup="P 1" unit_cell=conventional occupancy="_JSON {\"0\": {\"In\": 1}, \"1\": {\"In\": 1}, \"2\": {\"In\": 1}, \"3\": {\"In\": 1}, \"4\": {\"O\": 1}, \"5\": {\"O\": 1}, \"6\": {\"O\": 1}, \"7\": {\"O\": 1}, \"8\": {\"O\": 1}, \"9\": {\"O\": 1}}" n_minim_iter=5 energy=-11287.63723552227 stress="-0.024776096866524776 -8.649572143329965e-06 -5.972408321955403e-06 -8.649572143329965e-06 -0.024764742367786727 -3.2239255257079153e-06 -5.972408321955403e-06 -3.2239255257079153e-06 -0.02476229937595407" free_energy=-11287.63723552227 pbc="T T T"
In      10.37750512       5.60181032       3.86797131        0       0.00012165       0.00006567       0.00004534
In       7.77088158       4.19474663       2.89641360        1      -0.00012165      -0.00006567      -0.00004534
In       4.32804289       2.33629134       1.61317634        2       0.00012165       0.00006567       0.00004534
In       1.72141935       0.92922765       0.64161863        3      -0.00012165      -0.00006567      -0.00004534
O        5.91106902       2.27041421       0.19819413        4      -0.00000000      -0.00009885       0.00014317
O        6.95731417       5.03623543       1.12370639        5       0.00008264      -0.00015310       0.00000000
O        8.02794820       2.13245726       2.45668019        6      -0.00008264       0.00005424       0.00014317
O        4.07097627       4.39858072       2.05290975        7       0.00008264      -0.00005424      -0.00014317
O        6.18785545       4.26062377       4.31139582        8       0.00000000       0.00009885      -0.00014317
O        5.14161030       1.49480254       3.38588355        9      -0.00008264       0.00015310      -0.00000000
