10
Lattice="6.371593346888905 0.08446678190989747 0.05832312598392283 3.5668471129449837 5.280335035605321 0.05832312598391825 3.5668471129449886 1.9253954331830927 4.917132507991149" Properties=species:S:1:pos:R:3:spacegroup_kinds:I:1:forces:R:3 spacegroup="P 1" unit_cell=conventional occupancy="_JSON {\"0\": {\"In\": 1}, \"1\": {\"In\": 1}, \"2\": {\"In\": 1}, \"3\": {\"In\": 1}, \"4\": {\"O\": 1}, \"5\": {\"O\": 1}, \"6\": {\"O\": 1}, \"7\": {\"O\": 1}, \"8\": {\"O\": 1}, \"9\": {\"O\": 1}}" n_minim_iter=6 energy=-11285.942246299795 stress="0.10741353948573257 1.0000894642272287e-06 6.905483264021615e-07 1.0000894642272287e-06 0.10741222664288924 3.727597174971124e-07 6.905483264021615e-07 3.727597174971124e-07 0.1074119441766181" free_energy=-11285.942246299795 pbc="T T T"
In      11.48138401       6.19768767       4.27941624        0      -0.00003220      -0.00001738      -0.00001200
In       8.77654736       4.73760822       3.27125190        1       0.00003220       0.00001738       0.00001200
In       4.72874023       2.55258904       1.76252686        2      -0.00003220      -0.00001738      -0.00001200
In       2.02390357       1.09250960       0.75436252        3       0.00003220       0.00001738       0.00001200
O        6.56211857       2.55191164       0.29246807        4       0.00000000      -0.00004666       0.00006757
O        7.77109891       5.56912182       1.31676782        5       0.00003901      -0.00007226      -0.00000000
O        8.91998534       2.45043777       2.75103432        6      -0.00003901       0.00002560       0.00006757
O        4.58530224       4.83975949       2.28274444        7       0.00003901      -0.00002560      -0.00006757
O        6.94316901       4.73828562       4.74131070        8       0.00000000       0.00004666      -0.00006757
O        5.73418867       1.72107544       3.71701095        9      -0.00003901       0.00007226       0.00000000
