10
Lattice="4.45458312974679 -1.1270298845635498 -0.7781982982986729 1.5021244749441718 4.342479623705541 -0.7781982982986089 1.5021244749441773 0.8108515763496684 4.336501077470627" Properties=species:S:1:pos:R:3:spacegroup_kinds:I:1:forces:R:3 spacegroup="P 1" unit_cell=conventional occupancy="_JSON {\"0\": {\"In\": 1}, \"1\": {\"In\": 1}, \"2\": {\"In\": 1}, \"3\": {\"In\": 1}, \"4\": {\"O\": 1}, \"5\": {\"O\": 1}, \"6\": {\"O\": 1}, \"7\": {\"O\": 1}, \"8\": {\"O\": 1}, \"9\": {\"O\": 1}}" n_minim_iter=1 energy=-11325.207480734236 stress="0.21220131382952062 0.010709154194393472 0.007394520491948077 0.010709154194393472 0.1981431515955125 0.003991585718282966 0.007394520491948077 0.003991585718282966 0.19511844989158594" free_energy=-11325.207480734236 pbc="T T T"
In       7.05719058       3.80949396       2.63040205        0      -0.27116713      -0.14637688      -0.10107118
In       4.13105753       2.22995801       1.53975467        1       0.27116713       0.14637688       0.10107118
In       3.32777454       1.79634330       1.24034981        2      -0.27116713      -0.14637688      -0.10107118
In       0.40164149       0.21680736       0.14970243        3       0.27116713       0.14637688       0.10107118
O        4.09199958       1.23029915      -0.83419582        4      -0.00000000      -0.19894934       0.28812945
O        4.18492629       3.83351407      -0.08317218        5       0.16632264      -0.30811718      -0.00000000
O        5.50119735       0.41651107       1.33405472        6      -0.16632264       0.10916785       0.28812945
O        1.95763472       3.60979025       1.44604976        7       0.16632264      -0.10916785      -0.28812945
O        3.36683249       2.79600217       3.61430029        8       0.00000000       0.19894933      -0.28812945
O        3.27390578       0.19278725       2.86327666        9      -0.16632264       0.30811718      -0.00000000
10
Lattice="4.4446419171266145 -1.1441797007328132 -0.790040005374811 1.4823321825862088 4.343579199176327 -0.7900400053747464 1.4823321825862141 0.8001676338896899 4.341724913819984" Properties=species:S:1:pos:R:3:spacegroup_kinds:I:1:forces:R:3 spacegroup="P 1" unit_cell=conventional occupancy="_JSON {\"0\": {\"In\": 1}, \"1\": {\"In\": 1}, \"2\": {\"In\": 1}, \"3\": {\"In\": 1}, \"4\": {\"O\": 1}, \"5\": {\"O\": 1}, \"6\": {\"O\": 1}, \"7\": {\"O\": 1}, \"8\": {\"O\": 1}, \"9\": {\"O\": 1}}" n_minim_iter=2 energy=-11325.221315524417 stress="0.20396687614597547 -0.0003527640162302031 -0.00024357860039884104 -0.0003527640162302031 0.204429957871428 -0.00013148449950853685 -0.00024357860039884104 -0.00013148449950853685 0.2045295928130845" free_energy=-11325.221315524417 pbc="T T T"
In       7.00937809       3.78368463       2.61258106        0      -0.43257913      -0.23350759      -0.16123371
In       4.10458132       2.21566607       1.52988629        1       0.43257913       0.23350759       0.16123371
In       3.30472495       1.78390106       1.23175861        2      -0.43257913      -0.23350759      -0.16123371
In       0.39992818       0.21588251       0.14906384        3       0.43257913       0.23350759       0.16123371
O        4.07464752       1.21696075      -0.84751229        4      -0.00000000      -0.11917725       0.17259909
O        4.15607291       3.82177903      -0.09962878        5       0.09963277      -0.18457240      -0.00000000
O        5.47555432       0.39485707       1.32335016        6      -0.09963277       0.06539516       0.17259909
O        1.93375195       3.60471007       1.43829474        7       0.09963277      -0.06539516      -0.17259909
O        3.33465875       2.78260638       3.60915719        8      -0.00000000       0.11917725      -0.17259909
O        3.25323336       0.17778810       2.86127368        9      -0.09963277       0.18457240       0.00000000
10
Lattice="4.441201704365416 -1.1501605082792654 -0.7941696689434953 1.475444477763226 4.343984963912926 -0.7941696689434304 1.4754444777632316 0.7964496288865729 4.3435675220281444" Properties=species:S:1:pos:R:3:spacegroup_kinds:I:1:forces:R:3 spacegroup="P 1" unit_cell=conventional occupancy="_JSON {\"0\": {\"In\": 1}, \"1\": {\"In\": 1}, \"2\": {\"In\": 1}, \"3\": {\"In\": 1}, \"4\": {\"O\": 1}, \"5\": {\"O\": 1}, \"6\": {\"O\": 1}, \"7\": {\"O\": 1}, \"8\": {\"O\": 1}, \"9\": {\"O\": 1}}" n_minim_iter=3 energy=-11325.232477647429 stress="0.21053388886057872 -0.0018176729905279895 -0.0012550776574930423 -0.0018176729905279895 0.21291999154849847 -0.000677494914444436 -0.0012550776574930423 -0.000677494914444436 0.21343337650609828" free_energy=-11325.232477647429 pbc="T T T"
In       6.98550167       3.77079606       2.60368169        0       0.05030364       0.02715407       0.01874950
In       4.10263431       2.21461507       1.52916059        1      -0.05030364      -0.02715407      -0.01874950
In       3.28945634       1.77565901       1.22606760        2       0.05030364       0.02715407       0.01874950
In       0.40658898       0.21947803       0.15154649        3      -0.05030364      -0.02715407      -0.01874950
O        4.06862351       1.21020319      -0.84909017        4      -0.00000000      -0.03907384       0.05658891
O        4.14781215       3.81443205      -0.10536262        5       0.03266593      -0.06051452      -0.00000000
O        5.46487935       0.38847670       1.32269359        6      -0.03266593       0.02144067       0.05658891
O        1.92721130       3.60179739       1.43253459        7       0.03266593      -0.02144067      -0.05658891
O        3.32346714       2.78007090       3.60431835        8       0.00000000       0.03907384      -0.05658891
O        3.24427850       0.17584203       2.86059081        9      -0.03266593       0.06051452      -0.00000000
10
Lattice="4.443365859834039 -1.1463953266784588 -0.7915698639563652 1.4797797077365091 4.343728171276403 -0.7915698639563004 1.4797797077365145 0.7987897998353258 4.342406260490034" Properties=species:S:1:pos:R:3:spacegroup_kinds:I:1:forces:R:3 spacegroup="P 1" unit_cell=conventional occupancy="_JSON {\"0\": {\"In\": 1}, \"1\": {\"In\": 1}, \"2\": {\"In\": 1}, \"3\": {\"In\": 1}, \"4\": {\"O\": 1}, \"5\": {\"O\": 1}, \"6\": {\"O\": 1}, \"7\": {\"O\": 1}, \"8\": {\"O\": 1}, \"9\": {\"O\": 1}}" n_minim_iter=4 energy=-11325.233421116518 stress="0.21179047268018067 0.0004385503032440894 0.0003028128229489738 0.0004385503032440894 0.21121477722171628 0.00016345932197192413 0.0003028128229489738 0.00016345932197192413 0.21109091274595565" free_energy=-11325.233421116518 pbc="T T T"
In       6.99647844       3.77672135       2.60777302        0       0.04336333       0.02340766       0.01616266
In       4.10790946       2.21746262       1.53112678        1      -0.04336333      -0.02340766      -0.01616266
In       3.29501580       1.77866003       1.22813975        2       0.04336333       0.02340766       0.01616266
In       0.40644683       0.21940129       0.15149351        3      -0.04336333      -0.02340766      -0.01616266
O        4.07241424       1.21228380      -0.84494992        4      -0.00000000      -0.03613540       0.05233329
O        4.15482731       3.81569062      -0.10175323        5       0.03020938      -0.05596368       0.00000000
O        5.46978089       0.39368516       1.32625321        6      -0.03020938       0.01982828       0.05233329
O        1.93314438       3.60243748       1.43301332        7       0.03020938      -0.01982828      -0.05233329
O        3.33051102       2.78383884       3.60421645        8       0.00000000       0.03613540      -0.05233329
O        3.24809796       0.18043202       2.86101976        9      -0.03020938       0.05596368       0.00000000
10
Lattice="4.444319999031647 -1.1447383389651635 -0.7904257372242794 1.4816885147475543 4.343616611045991 -0.7904257372242146 1.4816885147475605 0.7998201799400847 4.341896565969952" Properties=species:S:1:pos:R:3:spacegroup_kinds:I:1:forces:R:3 spacegroup="P 1" unit_cell=conventional occupancy="_JSON {\"0\": {\"In\": 1}, \"1\": {\"In\": 1}, \"2\": {\"In\": 1}, \"3\": {\"In\": 1}, \"4\": {\"O\": 1}, \"5\": {\"O\": 1}, \"6\": {\"O\": 1}, \"7\": {\"O\": 1}, \"8\": {\"O\": 1}, \"9\": {\"O\": 1}}" n_minim_iter=5 energy=-11325.233941738012 stress="0.21196460846921583 0.00036646329574607843 0.00025303774379919683 0.00036646329574607843 0.2114835433638786 0.0001365905845025632 0.00025303774379919683 0.0001365905845025632 0.21138003917675818" free_energy=-11325.233941738012 pbc="T T T"
In       7.00177069       3.77957813       2.60974558        0      -0.00010617      -0.00005731      -0.00003957
In       4.10977484       2.21846955       1.53182205        1       0.00010617       0.00005731       0.00003957
In       3.29792218       1.78022890       1.22922304        2      -0.00010617      -0.00005731      -0.00003957
In       0.40592633       0.21912033       0.15129950        3       0.00010617       0.00005731       0.00003957
O        4.07408425       1.21238740      -0.84195078        4      -0.00000000      -0.01134744       0.01643399
O        4.15859608       3.81498733      -0.10016447        5       0.00948652      -0.01757403       0.00000000
O        5.47126094       0.39642391       1.32899750        6      -0.00948652       0.00622659       0.01643399
O        1.93643608       3.60227454       1.43204759        7       0.00948652      -0.00622659      -0.01643399
O        3.33361277       2.78631105       3.60299587        8       0.00000000       0.01134744      -0.01643399
O        3.24910094       0.18371112       2.86120955        9      -0.00948652       0.01757403       0.00000000
10
Lattice="4.444330405836578 -1.1447202763227502 -0.7904132652235092 1.4817093256478757 4.343615399820312 -0.790413265223444 1.4817093256478822 0.799831413730368 4.341891014409204" Properties=species:S:1:pos:R:3:spacegroup_kinds:I:1:forces:R:3 spacegroup="P 1" unit_cell=conventional occupancy="_JSON {\"0\": {\"In\": 1}, \"1\": {\"In\": 1}, \"2\": {\"In\": 1}, \"3\": {\"In\": 1}, \"4\": {\"O\": 1}, \"5\": {\"O\": 1}, \"6\": {\"O\": 1}, \"7\": {\"O\": 1}, \"8\": {\"O\": 1}, \"9\": {\"O\": 1}}" n_minim_iter=6 energy=-11325.233984727818 stress="0.2120960758102109 7.727812284351891e-05 5.335944549006776e-05 7.727812284351891e-05 0.21199463096428559 2.8803604623010938e-05 5.335944549006776e-05 2.8803604623010938e-05 0.21197280447063865" free_energy=-11325.233984727818 pbc="T T T"
In       7.00179733       3.77959251       2.60975551        0      -0.00037948      -0.00020484      -0.00014144
In       4.10982624       2.21849730       1.53184121        1       0.00037948       0.00020484       0.00014144
In       3.29792280       1.78022924       1.22922327        2      -0.00037948      -0.00020484      -0.00014144
In       0.40595172       0.21913403       0.15130897        3       0.00037948       0.00020484       0.00014144
O        4.07410246       1.21201393      -0.84137556        4       0.00000000      -0.00072130       0.00104463
O        4.15895034       3.81439951      -0.10014715        5       0.00060301      -0.00111710      -0.00000000
O        5.47096391       0.39665933       1.32956995        6      -0.00060301       0.00039579       0.00104463
O        1.93678514       3.60206721       1.43149453        7       0.00060301      -0.00039579      -0.00104463
O        3.33364658       2.78671261       3.60244004        8      -0.00000000       0.00072130      -0.00104463
O        3.24879871       0.18432703       2.86121163        9      -0.00060301       0.00111710       0.00000000
