10
Lattice="5.575020564327565 -0.10352920197404226 -0.07148545917362338 2.972584645567889 4.717553721291429 -0.07148545917362034 2.972584645567893 1.6046106603658117 4.436851125830596" Properties=species:S:1:pos:R:3:spacegroup_kinds:I:1:forces:R:3 spacegroup="P 1" unit_cell=conventional occupancy="_JSON {\"0\": {\"In\": 1}, \"1\": {\"In\": 1}, \"2\": {\"In\": 1}, \"3\": {\"In\": 1}, \"4\": {\"O\": 1}, \"5\": {\"O\": 1}, \"6\": {\"O\": 1}, \"7\": {\"O\": 1}, \"8\": {\"O\": 1}, \"9\": {\"O\": 1}}" n_minim_iter=5 energy=-11287.392489788544 stress="-0.032836857225428416 -0.0005721730283872781 -0.0003950774380759867 -0.0005721730283872781 -0.03208575203847828 -0.00021326405766941624 -0.0003950774380759867 -0.00021326405766941624 -0.031924147053445276" free_energy=-11287.392489788544 pbc="T T T"
In       9.92240764       5.35614725       3.69834441        0       0.00788126       0.00425433       0.00293755
In       7.35787716       3.97180553       2.74247590        1      -0.00788126      -0.00425433      -0.00293755
In       4.16231271       2.24682966       1.55140431        2       0.00788126       0.00425433       0.00293755
In       1.59778223       0.86248794       0.59553580        3      -0.00788126      -0.00425433      -0.00293755
O        5.66755775       2.14545996       0.10712800        4       0.00000000       0.00450255      -0.00652084
O        6.61666189       4.85682669       1.00198459        5      -0.00376415       0.00697319       0.00000000
O        7.69103825       1.95260966       2.32555356        6       0.00376415      -0.00247065      -0.00652084
O        3.82915161       4.26602553       1.96832665        7      -0.00376415       0.00247065       0.00652084
O        5.85263211       4.07317523       4.18675222        8      -0.00000000      -0.00450255       0.00652084
O        4.90352797       1.36180850       3.29189562        9       0.00376415      -0.00697319      -0.00000000
