10
Lattice="5.308713661132311 -0.2777425963598114 -0.19177735995525275 2.6808129638293097 4.590514517860741 -0.19177735995524559 2.680812963829318 1.4471113771717692 4.36067319992471" Properties=species:S:1:pos:R:3:spacegroup_kinds:I:1:forces:R:3 spacegroup="P 1" unit_cell=conventional occupancy="_JSON {\"0\": {\"In\": 1}, \"1\": {\"In\": 1}, \"2\": {\"In\": 1}, \"3\": {\"In\": 1}, \"4\": {\"O\": 1}, \"5\": {\"O\": 1}, \"6\": {\"O\": 1}, \"7\": {\"O\": 1}, \"8\": {\"O\": 1}, \"9\": {\"O\": 1}}" n_minim_iter=1 energy=-11287.708059113373 stress="0.0926586048934393 -0.0060135517708476095 -0.004152273001008133 -0.0060135517708476095 0.10055273779303957 -0.0022414101916406488 -0.004152273001008133 -0.0022414101916406488 0.10225120995417634" free_energy=-11287.708059113373 pbc="T T T"
In       9.34774533       5.04594271       3.48415253        0       0.22498369       0.12144691       0.08385739
In       6.65776404       3.59388224       2.48152518        1      -0.22498369      -0.12144691      -0.08385739
In       4.01257554       2.16600106       1.49559329        2       0.22498369       0.12144691       0.08385739
In       1.32259424       0.71394059       0.49296594        3      -0.22498369      -0.12144691      -0.08385739
O        5.32194172       1.95799073      -0.05295529        4      -0.00000000      -0.05756228       0.08336488
O        6.11318388       4.61369854       0.80250226        5       0.04812235      -0.08914796      -0.00000000
O        7.21151252       1.66420466       2.12738131        6      -0.04812235       0.03158568       0.08336488
O        3.45882705       4.09567864       1.84973717        7       0.04812235      -0.03158568      -0.08336488
O        5.34839785       3.80189257       4.03007377        8      -0.00000000       0.05756228      -0.08336488
O        4.55715569       1.14618476       3.17461622        9      -0.04812235       0.08914796       0.00000000
10
Lattice="5.319952638104382 -0.2651139326547303 -0.18305744512452404 2.6975376618372695 4.592980734983651 -0.18305744512451694 2.6975376618372766 1.4561394224302904 4.359889911751306" Properties=species:S:1:pos:R:3:spacegroup_kinds:I:1:forces:R:3 spacegroup="P 1" unit_cell=conventional occupancy="_JSON {\"0\": {\"In\": 1}, \"1\": {\"In\": 1}, \"2\": {\"In\": 1}, \"3\": {\"In\": 1}, \"4\": {\"O\": 1}, \"5\": {\"O\": 1}, \"6\": {\"O\": 1}, \"7\": {\"O\": 1}, \"8\": {\"O\": 1}, \"9\": {\"O\": 1}}" n_minim_iter=2 energy=-11287.712403726104 stress="0.10209553573800163 0.000830641443085104 0.0005735462339631036 0.000830641443085104 0.10100513288743412 0.00030960209213746787 0.0005735462339631036 0.00030960209213746787 0.1007705258908742" free_energy=-11287.712403726104 pbc="T T T"
In       9.38768293       5.06750115       3.49903834        0       0.21916061       0.11830360       0.08168697
In       6.68485900       3.60850818       2.49162419        1      -0.21916061      -0.11830360      -0.08168697
In       4.03016895       2.17549804       1.50215083        2       0.21916061       0.11830360       0.08168697
In       1.32734501       0.71650507       0.49473668        3      -0.21916061      -0.11830360      -0.08168697
O        5.33873330       1.96876409      -0.04215497        4      -0.00000000      -0.01657717       0.02400797
O        6.13965176       4.62484259       0.81538631        5       0.01385859      -0.02567342       0.00000000
O        7.23535250       1.68192617       2.13778998        6      -0.01385859       0.00909625       0.02400797
O        3.47967544       4.10208005       1.85598504        7       0.01385859      -0.00909625      -0.02400797
O        5.37629465       3.81524213       4.03592999        8       0.00000000       0.01657717      -0.02400797
O        4.57537619       1.15916364       3.17838871        9      -0.01385859       0.02567342      -0.00000000
10
Lattice="5.317660481810181 -0.2676850928139162 -0.18483279508457118 2.694130402892794 4.592475332642432 -0.18483279508456407 2.6941304028928004 1.4543001731987895 4.360046312747372" Properties=species:S:1:pos:R:3:spacegroup_kinds:I:1:forces:R:3 spacegroup="P 1" unit_cell=conventional occupancy="_JSON {\"0\": {\"In\": 1}, \"1\": {\"In\": 1}, \"2\": {\"In\": 1}, \"3\": {\"In\": 1}, \"4\": {\"O\": 1}, \"5\": {\"O\": 1}, \"6\": {\"O\": 1}, \"7\": {\"O\": 1}, \"8\": {\"O\": 1}, \"9\": {\"O\": 1}}" n_minim_iter=3 energy=-11287.726982997092 stress="0.10589632664421353 -0.0006615372078745212 -0.0004567821421742175 -0.0006615372078745212 0.10676474230488919 -0.0002465724561898137 -0.0004567821421742175 -0.0002465724561898137 0.10695158738533633" free_energy=-11287.726982997092 pbc="T T T"
In       9.39757076       5.07283863       3.50272379        0       0.06316342       0.03409581       0.02354268
In       6.66131116       3.59579698       2.48284729        1      -0.06316342      -0.03409581      -0.02354268
In       4.04461012       2.18329343       1.50753343        2       0.06316342       0.03409581       0.02354268
In       1.30835051       0.70625178       0.48765693        3      -0.06316342      -0.03409581      -0.02354268
O        5.33531056       1.96481974      -0.04182049        4       0.00000000       0.01726429      -0.02500310
O        6.13572072       4.61986097       0.81276238        5      -0.01443303       0.02673759      -0.00000000
O        7.22903080       1.67927659       2.13820267        6       0.01443303      -0.00947329      -0.02500310
O        3.47689048       4.09981383       1.85217805        7      -0.01443303       0.00947329       0.02500310
O        5.37061072       3.81427067       4.03220121        8       0.00000000      -0.01726429       0.02500310
O        4.57020056       1.15922945       3.17761834        9       0.01443303      -0.02673759       0.00000000
10
Lattice="5.319136531923007 -0.26602911797943246 -0.18368936773107228 2.6963247470528575 4.592800648327904 -0.18368936773106515 2.6963247470528637 1.4554846871661211 4.359945401553046" Properties=species:S:1:pos:R:3:spacegroup_kinds:I:1:forces:R:3 spacegroup="P 1" unit_cell=conventional occupancy="_JSON {\"0\": {\"In\": 1}, \"1\": {\"In\": 1}, \"2\": {\"In\": 1}, \"3\": {\"In\": 1}, \"4\": {\"O\": 1}, \"5\": {\"O\": 1}, \"6\": {\"O\": 1}, \"7\": {\"O\": 1}, \"8\": {\"O\": 1}, \"9\": {\"O\": 1}}" n_minim_iter=4 energy=-11287.728391216831 stress="0.10785883699246847 -0.0005587100469853527 -0.00038578144272217335 -0.0005587100469853527 0.10859226901427091 -0.0002082460493848923 -0.00038578144272217335 -0.0002082460493848923 0.10875007149735619" free_energy=-11287.728391216831 pbc="T T T"
In       9.40932221       5.07918211       3.50710387        0       0.00958994       0.00517668       0.00357443
In       6.65835681       3.59420222       2.48174613        1      -0.00958994      -0.00517668      -0.00357443
In       4.05342920       2.18805400       1.51082054        2       0.00958994       0.00517668       0.00357443
In       1.30246380       0.70307411       0.48546279        3      -0.00958994      -0.00517668      -0.00357443
O        5.33751477       1.96612182      -0.04024267        4      -0.00000000       0.02691401      -0.03897837
O        6.13928742       4.62115156       0.81445230        5      -0.02250025       0.04168232       0.00000000
O        7.23206686       1.68166243       2.13973003        6       0.02250025      -0.01476831      -0.03897837
O        3.47971915       4.10059379       1.85283663        7      -0.02250025       0.01476831       0.03897837
O        5.37427125       3.81613440       4.03280933        8       0.00000000      -0.02691401       0.03897837
O        4.57249860       1.16110466       3.17811437        9       0.02250025      -0.04168232       0.00000000
10
Lattice="5.323000259358485 -0.2616988333963176 -0.1806993670754696 2.7020649982034803 4.593654621977491 -0.18069936707546244 2.702064998203487 1.458583293021871 4.359684601504339" Properties=species:S:1:pos:R:3:spacegroup_kinds:I:1:forces:R:3 spacegroup="P 1" unit_cell=conventional occupancy="_JSON {\"0\": {\"In\": 1}, \"1\": {\"In\": 1}, \"2\": {\"In\": 1}, \"3\": {\"In\": 1}, \"4\": {\"O\": 1}, \"5\": {\"O\": 1}, \"6\": {\"O\": 1}, \"7\": {\"O\": 1}, \"8\": {\"O\": 1}, \"9\": {\"O\": 1}}" n_minim_iter=5 energy=-11287.72885542642 stress="0.11042914511107854 0.0006172132279701309 0.0004261770613604594 0.0006172132279701309 0.10961891459224814 0.0002300517295553434 0.0004261770613604594 0.0002300517295553434 0.10944458840378839" free_energy=-11287.72885542642 pbc="T T T"
In       9.42622359       5.08830552       3.51340346        0      -0.00657322      -0.00354825      -0.00245001
In       6.66447178       3.59750310       2.48402534        1       0.00657322       0.00354825       0.00245001
In       4.06265846       2.19303598       1.51426053        2      -0.00657322      -0.00354825      -0.00245001
In       1.30090665       0.70223356       0.48488240        3       0.00657322       0.00354825       0.00245001
O        5.34328269       1.97091836      -0.03812988        4      -0.00000000       0.02054907      -0.02976030
O        6.14745673       4.62668275       0.81887210        5      -0.01717913       0.03182480      -0.00000000
O        7.24117364       1.68713993       2.14171242        6       0.01717913      -0.01127572      -0.02976030
O        3.48595660       4.10339915       1.85657344        7      -0.01717913       0.01127572       0.02976030
O        5.38384756       3.81962072       4.03641574        8       0.00000000      -0.02054907       0.02976030
O        4.57967351       1.16385634       3.17941377        9       0.01717913      -0.03182480       0.00000000
10
Lattice="5.322625965933807 -0.26211804503869485 -0.18098882682378073 2.7015091522015706 4.593571741394588 -0.18098882682377365 2.7015091522015764 1.4582832455794823 4.359709654832081" Properties=species:S:1:pos:R:3:spacegroup_kinds:I:1:forces:R:3 spacegroup="P 1" unit_cell=conventional occupancy="_JSON {\"0\": {\"In\": 1}, \"1\": {\"In\": 1}, \"2\": {\"In\": 1}, \"3\": {\"In\": 1}, \"4\": {\"O\": 1}, \"5\": {\"O\": 1}, \"6\": {\"O\": 1}, \"7\": {\"O\": 1}, \"8\": {\"O\": 1}, \"9\": {\"O\": 1}}" n_minim_iter=6 energy=-11287.729062087483 stress="0.10940467751558805 -4.647654715463158e-05 -3.2091400898836895e-05 -4.647654715463158e-05 0.10946568839385672 -1.7323043123156318e-05 -3.2091400898836895e-05 -1.7323043123156318e-05 0.10947881526679812" free_energy=-11287.729062087483 pbc="T T T"
In       9.42422837       5.08722850       3.51265979        0      -0.00155542      -0.00083962      -0.00057974
In       6.66423802       3.59737691       2.48393821        1       0.00155542       0.00083962       0.00057974
In       4.06140624       2.19236003       1.51379379        2      -0.00155542      -0.00083962      -0.00057974
In       1.30141588       0.70250844       0.48507221        3       0.00155542       0.00083962       0.00057974
O        5.34272404       1.97150131      -0.03985132        4       0.00000000      -0.00025294       0.00036632
O        6.14578994       4.62776918       0.81844417        5       0.00021146      -0.00039173       0.00000000
O        7.24116730       1.68603484       2.14000351        6      -0.00021146       0.00013879       0.00036632
O        3.48447696       4.10370211       1.85772849        7       0.00021146      -0.00013879      -0.00036632
O        5.38292021       3.81823563       4.03758331        8       0.00000000       0.00025294      -0.00036632
O        4.57985432       1.16196776       3.17928783        9      -0.00021146       0.00039173       0.00000000
