10
Lattice="5.929445844088368 0.0043163094305199564 0.0029803510091167425 3.257224924491964 4.954677834105083 0.0029803510091156323 3.2572249244919633 1.7582603896046658 4.632209162442003" Properties=species:S:1:pos:R:3:spacegroup_kinds:I:1:forces:R:3 spacegroup="P 1" unit_cell=conventional occupancy="_JSON {\"0\": {\"In\": 1}, \"1\": {\"In\": 1}, \"2\": {\"In\": 1}, \"3\": {\"In\": 1}, \"4\": {\"O\": 1}, \"5\": {\"O\": 1}, \"6\": {\"O\": 1}, \"7\": {\"O\": 1}, \"8\": {\"O\": 1}, \"9\": {\"O\": 1}}" n_minim_iter=1 energy=-11287.672735321356 stress="0.00020564131771407568 -0.004685319018118842 -0.0032351469465518195 -0.004685319018118842 0.006356171392402231 -0.001746342623739592 -0.0032351469465518195 -0.001746342623739592 0.0076794964826478445" free_energy=-11287.672735321356 pbc="T T T"
In      10.66673626       5.75793821       3.97577542        0      -0.09808725      -0.05294781      -0.03655972
In       7.99910729       4.31794360       2.98147938        1       0.09808725       0.05294781       0.03655972
In       4.44478841       2.39931095       1.65669049        2      -0.09808725      -0.05294781      -0.03655972
In       1.77715944       0.95931633       0.66239445        3       0.09808725       0.05294781       0.03655972
O        6.07569685       2.33213751       0.21870250        4       0.00000000      -0.02577139       0.03732355
O        7.16034953       5.16651093       1.16252282        5       0.02154501      -0.03991271       0.00000000
O        8.24826910       2.20356749       2.53480709        6      -0.02154501       0.01414132       0.03732355
O        4.19562660       4.51368705       2.10336278        7       0.02154501      -0.01414132      -0.03732355
O        6.36819885       4.38511703       4.41946736        8       0.00000000       0.02577139      -0.03732355
O        5.28354618       1.55074362       3.47564705        9      -0.02154501       0.03991271      -0.00000000
10
Lattice="5.982402676306725 0.05849116317812285 0.04038732625830444 3.3315739430419242 4.969223084114442 0.040387326258303304 3.331573943041924 1.7983942266447248 4.632557328451433" Properties=species:S:1:pos:R:3:spacegroup_kinds:I:1:forces:R:3 spacegroup="P 1" unit_cell=conventional occupancy="_JSON {\"0\": {\"In\": 1}, \"1\": {\"In\": 1}, \"2\": {\"In\": 1}, \"3\": {\"In\": 1}, \"4\": {\"O\": 1}, \"5\": {\"O\": 1}, \"6\": {\"O\": 1}, \"7\": {\"O\": 1}, \"8\": {\"O\": 1}, \"9\": {\"O\": 1}}" n_minim_iter=2 energy=-11287.684364520024 stress="-0.002561826508861943 0.0025026129550614505 0.001728019082645199 0.0025026129550614505 -0.005847066247699412 0.000932790202793812 0.001728019082645199 0.000932790202793812 -0.006553906171754846" free_energy=-11287.684364520024 pbc="T T T"
In      10.83816809       5.85047766       4.03967261        0      -0.32983673      -0.17804692      -0.12293889
In       8.13015777       4.38868506       3.03032537        1       0.32983673       0.17804692       0.12293889
In       4.51539280       2.43742342       1.68300662        2      -0.32983673      -0.17804692      -0.12293889
In       1.80738249       0.97563083       0.67365937        3       0.32983673       0.17804692       0.12293889
O        6.15258898       2.38086437       0.26426917        4       0.00000000      -0.06179919       0.08950102
O        7.27907610       5.21945181       1.21872032        5       0.05166443      -0.09570976      -0.00000000
O        8.35767581       2.28099393       2.58054784        6      -0.05166443       0.03391057       0.08950102
O        4.28787477       4.54511456       2.13278415        7       0.05166443      -0.03391057      -0.08950102
O        6.49296159       4.44524411       4.44906281        8      -0.00000000       0.06179919      -0.08950102
O        5.36647447       1.60665668       3.49461166        9      -0.05166443       0.09570976       0.00000000
10
Lattice="5.959715763712054 0.035378196259840504 0.024428147383996207 3.2998025829116777 4.962939301947779 0.024428147383995052 3.2998025829116777 1.7812439452438813 4.632335615727187" Properties=species:S:1:pos:R:3:spacegroup_kinds:I:1:forces:R:3 spacegroup="P 1" unit_cell=conventional occupancy="_JSON {\"0\": {\"In\": 1}, \"1\": {\"In\": 1}, \"2\": {\"In\": 1}, \"3\": {\"In\": 1}, \"4\": {\"O\": 1}, \"5\": {\"O\": 1}, \"6\": {\"O\": 1}, \"7\": {\"O\": 1}, \"8\": {\"O\": 1}, \"9\": {\"O\": 1}}" n_minim_iter=3 energy=-11287.699562515005 stress="-0.011376212218269855 -0.004749500165643903 -0.0032794631291789534 -0.004749500165643903 -0.0051414300234531125 -0.0017702646354522146 -0.0032794631291789534 -0.0017702646354522146 -0.0037999775587982836" free_energy=-11287.699562515005 pbc="T T T"
In      10.75279756       5.80439438       4.00785275        0      -0.15688603      -0.08468758      -0.05847558
In       8.08618384       4.36494780       3.01393512        1       0.15688603       0.08468758       0.05847558
In       4.47313710       2.41461366       1.66725680        2      -0.15688603      -0.08468758      -0.05847558
In       1.80652338       0.97516708       0.67333916        3       0.15688603       0.08468758       0.05847558
O        6.11968812       2.35773266       0.24816546        4       0.00000000      -0.03890305       0.05634155
O        7.23023812       5.19321196       1.19472613        5       0.03252314      -0.06025000      -0.00000000
O        8.30894070       2.24919178       2.56433326        6      -0.03252314       0.02134695       0.05634155
O        4.25038024       4.53036967       2.11685865        7       0.03252314      -0.02134695      -0.05634155
O        6.43963282       4.42182879       4.43302646        8       0.00000000       0.03890305      -0.05634155
O        5.32908282       1.58634949       3.48646579        9      -0.03252314       0.06025000      -0.00000000
10
Lattice="6.031810832736734 0.10834901201107819 0.07481347027636034 3.4003666880316525 4.983170458377738 0.07481347027635925 3.4003666880316525 1.835528769518358 4.633402530414754" Properties=species:S:1:pos:R:3:spacegroup_kinds:I:1:forces:R:3 spacegroup="P 1" unit_cell=conventional occupancy="_JSON {\"0\": {\"In\": 1}, \"1\": {\"In\": 1}, \"2\": {\"In\": 1}, \"3\": {\"In\": 1}, \"4\": {\"O\": 1}, \"5\": {\"O\": 1}, \"6\": {\"O\": 1}, \"7\": {\"O\": 1}, \"8\": {\"O\": 1}, \"9\": {\"O\": 1}}" n_minim_iter=4 energy=-11287.785612584355 stress="-0.01078751753334865 -6.619242880954978e-05 -4.570494536092457e-05 -6.619242880954978e-05 -0.010700625146013637 -2.4671675144104954e-05 -4.570494536092457e-05 -2.4671675144104954e-05 -0.010681929706149085" free_energy=-11287.785612584355 pbc="T T T"
In      10.93337601       5.90187120       4.07515913        0       0.08703341       0.04698091       0.03243966
In       8.31544031       4.48870117       3.09938508        1      -0.08703341      -0.04698091      -0.03243966
In       4.51710391       2.43834708       1.68364440        2       0.08703341       0.04698091       0.03243966
In       1.89916820       1.02517705       0.70787034        3      -0.08703341      -0.04698091      -0.03243966
O        6.22404147       2.41414300       0.32336075        4      -0.00000000      -0.02463041       0.03567112
O        7.39904111       5.25043883       1.27057084        5       0.02059114      -0.03814565      -0.00000000
O        8.44940853       2.35899036       2.64006202        6      -0.02059114       0.01351524       0.03567112
O        4.38313569       4.56805789       2.14296746        7       0.02059114      -0.01351524      -0.03567112
O        6.60850275       4.51290525       4.45966873        8       0.00000000       0.02463041      -0.03567112
O        5.43350311       1.67660943       3.51245864        9      -0.02059114       0.03814565       0.00000000
10
Lattice="6.02735706137541 0.10388092347242446 0.07172831792587527 3.394187462095056 4.981898821105282 0.07172831792587418 3.3941874620950565 1.8321932036748585 4.6333064737539615" Properties=species:S:1:pos:R:3:spacegroup_kinds:I:1:forces:R:3 spacegroup="P 1" unit_cell=conventional occupancy="_JSON {\"0\": {\"In\": 1}, \"1\": {\"In\": 1}, \"2\": {\"In\": 1}, \"3\": {\"In\": 1}, \"4\": {\"O\": 1}, \"5\": {\"O\": 1}, \"6\": {\"O\": 1}, \"7\": {\"O\": 1}, \"8\": {\"O\": 1}, \"9\": {\"O\": 1}}" n_minim_iter=5 energy=-11287.78667430229 stress="-0.0131722375266863 -0.0011088585575710715 -0.0007656512571117994 -0.0011088585575710715 -0.011716612437343118 -0.0004133009826878159 -0.0007656512571117994 -0.0004133009826878159 -0.01140342558077683" free_energy=-11287.78667430229 pbc="T T T"
In      10.92403040       5.89682641       4.07167577        0       0.02895591       0.01563049       0.01079263
In       8.29956759       4.48013303       3.09346890        1      -0.02895591      -0.01563049      -0.01079264
In       4.51616440       2.43783993       1.68329422        2       0.02895591       0.01563049       0.01079264
In       1.89170160       1.02114655       0.70508734        3      -0.02895591      -0.01563049      -0.01079264
O        6.21761153       2.41078123       0.31859899        4      -0.00000000      -0.02199591       0.03185570
O        7.38856759       5.24706738       1.26591910        5       0.01838869      -0.03406555      -0.00000000
O        8.44084293       2.35219357       2.63525223        6      -0.01838869       0.01206964       0.03185570
O        4.37488906       4.56577939       2.14151089        7       0.01838869      -0.01206964      -0.03185570
O        6.59812046       4.50719173       4.45816412        8      -0.00000000       0.02199591      -0.03185570
O        5.42716440       1.67090558       3.51084402        9      -0.01838869       0.03406555       0.00000000
10
Lattice="6.031714289253007 0.1082522122864071 0.07474663142670195 3.4002327874606304 4.9831428636676165 0.07474663142670074 3.400232787460631 1.8354564895636032 4.633400407211752" Properties=species:S:1:pos:R:3:spacegroup_kinds:I:1:forces:R:3 spacegroup="P 1" unit_cell=conventional occupancy="_JSON {\"0\": {\"In\": 1}, \"1\": {\"In\": 1}, \"2\": {\"In\": 1}, \"3\": {\"In\": 1}, \"4\": {\"O\": 1}, \"5\": {\"O\": 1}, \"6\": {\"O\": 1}, \"7\": {\"O\": 1}, \"8\": {\"O\": 1}, \"9\": {\"O\": 1}}" n_minim_iter=6 energy=-11287.78712302256 stress="-0.011589499387822097 0.00013335011846063888 9.207638313031602e-05 0.00013335011846063888 -0.011764551271191024 4.9703122600809965e-05 9.207638313031602e-05 4.9703122600809965e-05 -0.011802214782146988" free_energy=-11287.78712302256 pbc="T T T"
In      10.93947818       5.90516517       4.07743357        0       0.00633437       0.00341931       0.00236099
In       8.30879163       4.48511219       3.09690694        1      -0.00633437      -0.00341931      -0.00236099
In       4.52338825       2.44173939       1.68598673        2       0.00633437       0.00341931       0.00236099
In       1.89270170       1.02168641       0.70546011        3      -0.00633437      -0.00341931      -0.00236099
O        6.22390212       2.41457725       0.32252317        4       0.00000000      -0.01919669       0.02780172
O        7.39839020       5.25115110       1.27047005        5       0.01604853      -0.02973034      -0.00000000
O        8.44964682       2.35856484       2.63922338        6      -0.01604853       0.01053365       0.02780172
O        4.38253305       4.56828674       2.14367030        7       0.01604853      -0.01053365      -0.02780172
O        6.60827776       4.51227432       4.46037050        8      -0.00000000       0.01919669      -0.02780172
O        5.43378968       1.67570048       3.51242362        9      -0.01604853       0.02973034       0.00000000
10
Lattice="6.032669504921158 0.10920985793777484 0.07540787229216145 3.401557531704182 4.983415947639029 0.07540787229216009 3.4015575317041824 1.83617159072603 4.633421494295258" Properties=species:S:1:pos:R:3:spacegroup_kinds:I:1:forces:R:3 spacegroup="P 1" unit_cell=conventional occupancy="_JSON {\"0\": {\"In\": 1}, \"1\": {\"In\": 1}, \"2\": {\"In\": 1}, \"3\": {\"In\": 1}, \"4\": {\"O\": 1}, \"5\": {\"O\": 1}, \"6\": {\"O\": 1}, \"7\": {\"O\": 1}, \"8\": {\"O\": 1}, \"9\": {\"O\": 1}}" n_minim_iter=7 energy=-11287.787320418665 stress="-0.011410546450613283 0.00023069252581002075 0.00015928995246091595 0.00023069252581002075 -0.011713382031469507 8.5985221987537e-05 0.00015928995246091595 8.5985221987537e-05 -0.01177853900883664" free_energy=-11287.787320418665 pbc="T T T"
In      10.94254962       5.90682314       4.07857838        0      -0.00221139      -0.00119372      -0.00082424
In       8.31112724       4.48637296       3.09777749        1       0.00221139       0.00119372       0.00082424
In       4.52465734       2.44242445       1.68645976        2      -0.00221139      -0.00119372      -0.00082424
In       1.89323496       1.02197426       0.70565887        3       0.00221139       0.00119372       0.00082424
O        6.22528090       2.41430899       0.32497618        4      -0.00000000      -0.00110587       0.00160158
O        7.40146261       5.25034250       1.27146718        5       0.00092451      -0.00171268       0.00000000
O        8.45065673       2.36056454       2.64168692        6      -0.00092451       0.00060681       0.00160158
O        4.38512785       4.56823287       2.14255032        7       0.00092451      -0.00060681      -0.00160158
O        6.61050368       4.51448842       4.45926107        8       0.00000000       0.00110587      -0.00160158
O        5.43432197       1.67845491       3.51277006        9      -0.00092451       0.00171268       0.00000000
