10
Lattice="5.685982234785552 -0.041464533215116325 -0.02863067752657989 3.085358110708249 4.776261991400648 -0.02863067752657989 3.0853581107082517 1.6654861360702478 4.4765672402804215" Properties=species:S:1:pos:R:3:spacegroup_kinds:I:1:forces:R:3 spacegroup="P 1" unit_cell=conventional occupancy="_JSON {\"0\": {\"In\": 1}, \"1\": {\"In\": 1}, \"2\": {\"In\": 1}, \"3\": {\"In\": 1}, \"4\": {\"O\": 1}, \"5\": {\"O\": 1}, \"6\": {\"O\": 1}, \"7\": {\"O\": 1}, \"8\": {\"O\": 1}, \"9\": {\"O\": 1}}" n_minim_iter=1 energy=-11287.504786691525 stress="-0.03836195005949756 0.00567950174046282 0.0039216161440466775 0.00567950174046282 -0.04581756750794253 0.0021169008897288775 0.0039216161440466775 0.0021169008897288775 -0.04742169031765864" free_energy=-11287.504786691525 pbc="T T T"
In      10.17342807       5.49164888       3.79190638        0       0.08961174       0.04837270       0.03340067
In       7.61161962       4.10877652       2.83705245        1      -0.08961174      -0.04837270      -0.03340067
In       4.24507885       2.29150709       1.58225344        2       0.08961174       0.04837270       0.03340067
In       1.68327039       0.90863472       0.62739951        3      -0.08961174      -0.04837270      -0.03340067
O        5.80716574       2.21631231       0.16801058        4       0.00000000       0.00634536      -0.00918970
O        6.81733163       4.95396467       1.07619580        5      -0.00530475       0.00982719      -0.00000000
O        7.88235796       2.06256034       2.40629420        6       0.00530475      -0.00348184      -0.00918970
O        3.97434051       4.33772327       2.01301169        7      -0.00530475       0.00348184       0.00918970
O        6.04953273       4.18397130       4.25129531        8      -0.00000000      -0.00634536       0.00918970
O        5.03936684       1.44631893       3.34311009        9       0.00530475      -0.00982719      -0.00000000
10
Lattice="5.669135084923804 -0.05909650913987595 -0.040805309138593 3.0613732917604977 4.771852740498394 -0.040805309138593024 3.061373291760499 1.6525390544024838 4.47675756814354" Properties=species:S:1:pos:R:3:spacegroup_kinds:I:1:forces:R:3 spacegroup="P 1" unit_cell=conventional occupancy="_JSON {\"0\": {\"In\": 1}, \"1\": {\"In\": 1}, \"2\": {\"In\": 1}, \"3\": {\"In\": 1}, \"4\": {\"O\": 1}, \"5\": {\"O\": 1}, \"6\": {\"O\": 1}, \"7\": {\"O\": 1}, \"8\": {\"O\": 1}, \"9\": {\"O\": 1}}" n_minim_iter=2 energy=-11287.509953715271 stress="-0.04030101722914465 -0.00015820094335607525 -0.00010923552166410045 -0.00015820094335607525 -0.04009334308611633 -5.896568673087502e-05 -0.00010923552166410045 -5.896568673087502e-05 -0.040048660693001024" free_energy=-11287.509953715271 pbc="T T T"
In      10.11821006       5.46184203       3.77132517        0       0.13705765       0.07398416       0.05108502
In       7.56961245       4.08610091       2.82139526        1      -0.13705765      -0.07398416      -0.05108502
In       4.22226923       2.27919438       1.57375169        2       0.13705765       0.07398416       0.05108502
In       1.67367161       0.90345327       0.62382179        3      -0.13705765      -0.07398416      -0.05108502
O        5.78253796       2.20052581       0.15331060        4      -0.00000000      -0.00624700       0.00904725
O        6.77922622       4.93694840       1.05798143        5       0.00522252      -0.00967487       0.00000000
O        7.84722300       2.03754889       2.39168938        6      -0.00522252       0.00342787       0.00904725
O        3.94465868       4.32774641       2.00345757        7       0.00522252      -0.00342787      -0.00904725
O        6.00934371       4.16476948       4.24183635        8      -0.00000000       0.00624700      -0.00904725
O        5.01265545       1.42834690       3.33716552        9      -0.00522252       0.00967487       0.00000000
10
Lattice="5.665143685665348 -0.06328710718002069 -0.04369885819914636 3.0556797629378525 4.77081538351059 -0.04369885819914639 3.0556797629378534 1.6494656694082037 4.476812707629495" Properties=species:S:1:pos:R:3:spacegroup_kinds:I:1:forces:R:3 spacegroup="P 1" unit_cell=conventional occupancy="_JSON {\"0\": {\"In\": 1}, \"1\": {\"In\": 1}, \"2\": {\"In\": 1}, \"3\": {\"In\": 1}, \"4\": {\"O\": 1}, \"5\": {\"O\": 1}, \"6\": {\"O\": 1}, \"7\": {\"O\": 1}, \"8\": {\"O\": 1}, \"9\": {\"O\": 1}}" n_minim_iter=3 energy=-11287.513298132128 stress="-0.03704826332501186 0.00010233733665372243 7.066248548051071e-05 0.00010233733665372243 -0.03718260398876143 3.814383128471866e-05 7.066248548051071e-05 3.814383128471866e-05 -0.03721150822675981" free_energy=-11287.513298132128 pbc="T T T"
In      10.11349511       5.45929688       3.76956778        0       0.00608636       0.00328543       0.00226855
In       7.55125972       4.07619405       2.81455471        1      -0.00608636      -0.00328543      -0.00226855
In       4.22524350       2.28079990       1.57486028        2       0.00608636       0.00328543       0.00226855
In       1.66300812       0.89769708       0.61984722        3      -0.00608636      -0.00328543      -0.00226855
O        5.77669765       2.19640730       0.15035536        4      -0.00000000       0.03375408      -0.04888453
O        6.77049558       4.93233980       1.05365489        5      -0.02821858       0.05227569      -0.00000000
O        7.83857949       2.03181296       2.38876171        6       0.02821858      -0.01852160      -0.04888453
O        3.93792373       4.32518099       2.00065328        7      -0.02821858       0.01852160       0.04888453
O        5.99980557       4.16058666       4.23905964        8       0.00000000      -0.03375408       0.04888453
O        5.00600764       1.42465416       3.33576010        9       0.02821858      -0.05227569      -0.00000000
10
Lattice="5.663289842365634 -0.0652352138137496 -0.04504399845499619 3.0530338917623268 4.770334529937476 -0.045043998454996195 3.0530338917623276 1.64803741971966 4.476839638909834" Properties=species:S:1:pos:R:3:spacegroup_kinds:I:1:forces:R:3 spacegroup="P 1" unit_cell=conventional occupancy="_JSON {\"0\": {\"In\": 1}, \"1\": {\"In\": 1}, \"2\": {\"In\": 1}, \"3\": {\"In\": 1}, \"4\": {\"O\": 1}, \"5\": {\"O\": 1}, \"6\": {\"O\": 1}, \"7\": {\"O\": 1}, \"8\": {\"O\": 1}, \"9\": {\"O\": 1}}" n_minim_iter=4 energy=-11287.513948609969 stress="-0.03640240705949043 -0.00028624027614486587 -0.00019764488477320047 -0.00028624027614486587 -0.036026652611289414 -0.00010668933427176633 -0.00019764488477320047 -0.00010668933427176633 -0.035945806699506005" free_energy=-11287.513948609969 pbc="T T T"
In      10.10990435       5.45735857       3.76822941        0      -0.00262038      -0.00141449      -0.00097668
In       7.54413210       4.07234654       2.81189806        1       0.00262038       0.00141449       0.00097668
In       4.22522554       2.28079021       1.57485359        2      -0.00262038      -0.00141449      -0.00097668
In       1.65945329       0.89577817       0.61852224        3       0.00262038       0.00141449       0.00097668
O        5.77398433       2.19656523       0.14598099        4      -0.00000000       0.00267494      -0.00387400
O        6.76470681       4.93340759       1.05164391        5      -0.00223627       0.00414275       0.00000000
O        7.83629574       2.02801020       2.38440081        6       0.00223627      -0.00146780      -0.00387400
O        3.93306189       4.32512654       2.00235084        7      -0.00223627       0.00146780       0.00387400
O        5.99537330       4.15657151       4.24077066        8       0.00000000      -0.00267494       0.00387400
O        5.00465082       1.41972916       3.33510773        9       0.00223627      -0.00414275      -0.00000000
