10
Lattice="6.131721745009402 0.06681289747650497 0.04613336685456329 3.4204655893994818 5.089488252587329 0.0461333668545649 3.4204655893994778 1.8463782204985093 4.7429849702092195" Properties=species:S:1:pos:R:3:spacegroup_kinds:I:1:forces:R:3 spacegroup="P 1" unit_cell=conventional occupancy="_JSON {\"0\": {\"In\": 1}, \"1\": {\"In\": 1}, \"2\": {\"In\": 1}, \"3\": {\"In\": 1}, \"4\": {\"O\": 1}, \"5\": {\"O\": 1}, \"6\": {\"O\": 1}, \"7\": {\"O\": 1}, \"8\": {\"O\": 1}, \"9\": {\"O\": 1}}" n_minim_iter=1 energy=-11287.678453907818 stress="0.02691628722918466 0.004896899497770448 0.0033812402966121604 0.004896899497770448 0.020488010408707062 0.001825204279831132 0.0033812402966121604 0.001825204279831132 0.019104926367666128" free_energy=-11287.678453907818 pbc="T T T"
In      11.06972587       5.97547329       4.12598034        0      -0.05680605      -0.03066409      -0.02117312
In       8.38925352       4.52854578       3.12689722        1       0.05680605       0.03066409       0.02117312
In       4.58339941       2.47413360       1.70835449        2      -0.05680605      -0.03066409      -0.02117312
In       1.90292706       1.02720609       0.70927137        3       0.05680605       0.03066409       0.02117312
O        6.30902411       2.43529535       0.28874811        4       0.00000000      -0.00959789       0.01390019
O        7.47483453       5.33737759       1.25494630        5       0.00802388      -0.01486446       0.00000000
O        8.56367927       2.34992729       2.66024060        6      -0.00802388       0.00526657       0.01390019
O        4.40897366       4.65275209       2.17501111        7       0.00802388      -0.00526657      -0.01390019
O        6.66362883       4.56738404       4.54650360        8      -0.00000000       0.00959789      -0.01390019
O        5.49781840       1.66530179       3.58030541        9      -0.00802388       0.01486446      -0.00000000
10
Lattice="6.070821399236205 0.0045690567625672005 0.003154869490300735 3.3350120780969377 5.072729815065211 0.003154869490302449 3.3350120780969323 1.8002501428990374 4.742541212561576" Properties=species:S:1:pos:R:3:spacegroup_kinds:I:1:forces:R:3 spacegroup="P 1" unit_cell=conventional occupancy="_JSON {\"0\": {\"In\": 1}, \"1\": {\"In\": 1}, \"2\": {\"In\": 1}, \"3\": {\"In\": 1}, \"4\": {\"O\": 1}, \"5\": {\"O\": 1}, \"6\": {\"O\": 1}, \"7\": {\"O\": 1}, \"8\": {\"O\": 1}, \"9\": {\"O\": 1}}" n_minim_iter=2 energy=-11287.696582867608 stress="0.003919035145874792 0.000618132629251163 0.00042681189854352504 0.000618132629251163 0.0031075976882195006 0.00023039442430213366 0.00042681189854352504 0.00023039442430213366 0.002933011833250243" free_energy=-11287.696582867608 pbc="T T T"
In      10.87112475       5.86826777       4.05195643        0      -0.01410434      -0.00761357      -0.00525706
In       8.24014359       4.44805576       3.07132000        1       0.01410434       0.00761357       0.00525706
In       4.50070197       2.42949327       1.67753096        2      -0.01410434      -0.00761357      -0.00525706
In       1.86972081       1.00928125       0.69689452        3       0.01410434       0.00761357       0.00525706
O        6.22062209       2.37864993       0.23731804        4       0.00000000      -0.06291567       0.09111795
O        7.33889113       5.27551309       1.19036761        5       0.05259781      -0.09743887       0.00000000
O        8.43736513       2.26129860       2.60858864        6      -0.05259781       0.03452320       0.09111795
O        4.30348043       4.61625043       2.14026231        7       0.05259781      -0.03452320      -0.09111795
O        6.52022347       4.49889910       4.51153292        8       0.00000000       0.06291567      -0.09111795
O        5.40195443       1.60203593       3.55848335        9      -0.05259781       0.09743887       0.00000000
10
Lattice="6.053185971318453 -0.013646970664594275 -0.009423041477045452 3.3101064437914247 5.06798204159657 -0.009423041477043939 3.310106443791421 1.7868060021680463 4.742557862406346" Properties=species:S:1:pos:R:3:spacegroup_kinds:I:1:forces:R:3 spacegroup="P 1" unit_cell=conventional occupancy="_JSON {\"0\": {\"In\": 1}, \"1\": {\"In\": 1}, \"2\": {\"In\": 1}, \"3\": {\"In\": 1}, \"4\": {\"O\": 1}, \"5\": {\"O\": 1}, \"6\": {\"O\": 1}, \"7\": {\"O\": 1}, \"8\": {\"O\": 1}, \"9\": {\"O\": 1}}" n_minim_iter=3 energy=-11287.699621401423 stress="-0.0053423577309349955 -0.0006270036114438064 -0.0004329371822555108 -0.0006270036114438064 -0.004519275116889296 -0.00023370086542400914 -0.0004329371822555108 -0.00023370086542400914 -0.004342183740774101" free_energy=-11287.699621401423 pbc="T T T"
In      10.81317173       5.83698455       4.03035581        0      -0.01692152      -0.00913429      -0.00630710
In       8.19692657       4.42472707       3.05521187        1       0.01692152       0.00913429       0.00630710
In       4.47647230       2.41641401       1.66849992        2      -0.01692152      -0.00913429      -0.00630710
In       1.86022714       1.00415654       0.69335598        3       0.01692152       0.00913429       0.00630710
O        6.19494271       2.36049683       0.22466189        4       0.00000000      -0.07223246       0.10461106
O        7.30071136       5.25501733       1.17150491        5       0.06038670      -0.11186800      -0.00000000
O        8.39928050       2.23633531       2.59594082        6      -0.06038670       0.03963553       0.10461106
O        4.27411837       4.60480577       2.12777097        7       0.06038670      -0.03963553      -0.10461106
O        6.47845616       4.48064426       4.49904990        8       0.00000000       0.07223246      -0.10461106
O        5.37268751       1.58612376       3.55220688        9      -0.06038670       0.11186800       0.00000000
10
Lattice="6.0479252116020215 -0.01909811014535151 -0.013186976689248515 3.302662570226376 5.066575179563428 -0.013186976689247148 3.3026625702263743 1.7827877755063757 4.742575850107975" Properties=species:S:1:pos:R:3:spacegroup_kinds:I:1:forces:R:3 spacegroup="P 1" unit_cell=conventional occupancy="_JSON {\"0\": {\"In\": 1}, \"1\": {\"In\": 1}, \"2\": {\"In\": 1}, \"3\": {\"In\": 1}, \"4\": {\"O\": 1}, \"5\": {\"O\": 1}, \"6\": {\"O\": 1}, \"7\": {\"O\": 1}, \"8\": {\"O\": 1}, \"9\": {\"O\": 1}}" n_minim_iter=4 energy=-11287.70050236216 stress="-0.00688734082796683 -0.0021836486645661953 -0.001507778712859061 -0.0021836486645661953 -0.004020813118870243 -0.0008139037577816893 -0.001507778712859061 -0.0008139037577816893 -0.0034040617187303937" free_energy=-11287.70050236216 pbc="T T T"
In      10.79559748       5.82749791       4.02380542        0      -0.01204193      -0.00650027      -0.00448835
In       8.18427806       4.41789937       3.05049743        1       0.01204193       0.00650027       0.00448835
In       4.46897230       2.41236549       1.66570447        2      -0.01204193      -0.00650027      -0.00448835
In       1.85765288       1.00276695       0.69239648        3       0.01204193       0.00650027       0.00448835
O        6.18727520       2.35399712       0.22243047        4       0.00000000      -0.04490363       0.06503193
O        7.29020397       5.24723525       1.16586350        5       0.03753966      -0.06954323       0.00000000
O        8.38700900       2.22946051       2.59371839        6      -0.03753966       0.02463960       0.06503193
O        4.26624136       4.60080434       2.12248351        7       0.03753966      -0.02463960      -0.06503193
O        6.46597516       4.47626773       4.49377143        8      -0.00000000       0.04490363      -0.06503193
O        5.36304640       1.58302961       3.55033840        9      -0.03753966       0.06954323       0.00000000
10
Lattice="6.056354005085086 -0.010368120112686214 -0.007159041245269324 3.3145859485358526 5.068831356692935 -0.007159041245267915 3.3145859485358513 1.7892240530978274 4.742549932502686" Properties=species:S:1:pos:R:3:spacegroup_kinds:I:1:forces:R:3 spacegroup="P 1" unit_cell=conventional occupancy="_JSON {\"0\": {\"In\": 1}, \"1\": {\"In\": 1}, \"2\": {\"In\": 1}, \"3\": {\"In\": 1}, \"4\": {\"O\": 1}, \"5\": {\"O\": 1}, \"6\": {\"O\": 1}, \"7\": {\"O\": 1}, \"8\": {\"O\": 1}, \"9\": {\"O\": 1}}" n_minim_iter=5 energy=-11287.703449935647 stress="-0.0028887893682416044 -0.0005636499457302921 -0.0003891923581523836 -0.0005636499457302921 -0.0021488726410292297 -0.00021008727698588743 -0.0003891923581523836 -0.00021008727698588743 -0.0019896749188179257" free_energy=-11287.703449935647 pbc="T T T"
In      10.82238796       5.84195950       4.03379094        0      -0.02122337      -0.01145644      -0.00791051
In       8.20590090       4.42957145       3.05855684        1       0.02122337       0.01145644       0.00791051
In       4.47962501       2.41811585       1.66967502        2      -0.02122337      -0.01145645      -0.00791051
In       1.86313795       1.00572780       0.69444091        3       0.02122337       0.01145644       0.00791051
O        6.19955848       2.35890273       0.23397702        4      -0.00000000      -0.01040310       0.01506635
O        7.31163830       5.25117557       1.17489892        5       0.00869705      -0.01611151       0.00000000
O        8.40206462       2.24349263       2.60525198        6      -0.00869705       0.00570841       0.01506635
O        4.28346129       4.60419467       2.12297987        7       0.00869705      -0.00570841      -0.01506635
O        6.48596743       4.48878457       4.49425484        8      -0.00000000       0.01040310      -0.01506635
O        5.37388762       1.59651173       3.55333293        9      -0.00869705       0.01611152       0.00000000
10
Lattice="6.059382819021563 -0.007236039776770579 -0.004996383785224864 3.3188663596858 5.069644819341025 -0.004996383785223511 3.3188663596857984 1.7915346326711263 4.74254438229756" Properties=species:S:1:pos:R:3:spacegroup_kinds:I:1:forces:R:3 spacegroup="P 1" unit_cell=conventional occupancy="_JSON {\"0\": {\"In\": 1}, \"1\": {\"In\": 1}, \"2\": {\"In\": 1}, \"3\": {\"In\": 1}, \"4\": {\"O\": 1}, \"5\": {\"O\": 1}, \"6\": {\"O\": 1}, \"7\": {\"O\": 1}, \"8\": {\"O\": 1}, \"9\": {\"O\": 1}}" n_minim_iter=6 energy=-11287.70370850203 stress="-0.0015463343910953945 -2.9694450650868147e-06 -2.0503608631507692e-06 -2.9694450650868147e-06 -0.0015424363302321143 -1.1067919093147461e-06 -2.0503608631507692e-06 -1.1067919093147461e-06 -0.0015415976320316623" free_energy=-11287.70370850203 pbc="T T T"
In      10.83166857       5.84696920       4.03725007        0      -0.02076725      -0.01121023      -0.00774050
In       8.21400475       4.43394593       3.06157736        1       0.02076725       0.01121023       0.00774050
In       4.48311080       2.41999749       1.67097426        2      -0.02076725      -0.01121023      -0.00774050
In       1.86544698       1.00697423       0.69530155        3       0.02076725       0.01121023       0.00774050
O        6.20397030       2.36067375       0.23810654        4      -0.00000000       0.00194102      -0.00281110
O        7.31932649       5.25260759       1.17814152        5      -0.00162271       0.00300611       0.00000000
O        8.40748047       2.24852373       2.60937873        6       0.00162271      -0.00106508      -0.00281110
O        4.28963508       4.60541969       2.12317289        7      -0.00162271       0.00106508       0.00281110
O        6.49314525       4.49326967       4.49444508        8      -0.00000000      -0.00194102       0.00281110
O        5.37778906       1.60133584       3.55441010        9       0.00162271      -0.00300611      -0.00000000
10
Lattice="6.060735202499161 -0.0058383910290190745 -0.004031326964623633 3.3207768833651006 5.070008498270036 -0.004031326964622335 3.3207768833650992 1.7925659394388787 4.74254254349827" Properties=species:S:1:pos:R:3:spacegroup_kinds:I:1:forces:R:3 spacegroup="P 1" unit_cell=conventional occupancy="_JSON {\"0\": {\"In\": 1}, \"1\": {\"In\": 1}, \"2\": {\"In\": 1}, \"3\": {\"In\": 1}, \"4\": {\"O\": 1}, \"5\": {\"O\": 1}, \"6\": {\"O\": 1}, \"7\": {\"O\": 1}, \"8\": {\"O\": 1}, \"9\": {\"O\": 1}}" n_minim_iter=7 energy=-11287.703797476679 stress="-0.0010810168824100298 0.0002036622894739029 0.00014062594582684365 0.0002036622894739029 -0.0013483692232563662 7.591033693713993e-05 0.00014062594582684365 7.591033693713993e-05 -0.0014058917581858629" free_energy=-11287.703797476679 pbc="T T T"
In      10.83449794       5.84849650       4.03830465        0      -0.00546966      -0.00295254      -0.00203869
In       8.21893553       4.43660758       3.06341519        1       0.00546966       0.00295254       0.00203869
In       4.48335345       2.42012848       1.67106470        2      -0.00546966      -0.00295254      -0.00203869
In       1.86779104       1.00823956       0.69617525        3       0.00546966       0.00295254       0.00203869
O        6.20593985       2.36166159       0.23966368        4       0.00000000       0.00346247      -0.00501454
O        7.32259335       5.25355275       1.17958865        5      -0.00289464       0.00536240       0.00000000
O        8.41006323       2.25066088       2.61093495        6       0.00289464      -0.00189993      -0.00501454
O        4.29222575       4.60607518       2.12354494        7      -0.00289464       0.00189993       0.00501454
O        6.49634913       4.49507447       4.49481621        8       0.00000000      -0.00346247       0.00501454
O        5.37969563       1.60318330       3.55489125        9       0.00289464      -0.00536240      -0.00000000
