10
Lattice="6.084912883338181 0.06630285546777134 0.04578119001462645 3.394354146760113 5.05063568205336 0.045781190014626015 3.3943541467601106 1.832283180587997 4.706777566055581" Properties=species:S:1:pos:R:3:spacegroup_kinds:I:1:forces:R:3 spacegroup="P 1" unit_cell=conventional occupancy="_JSON {\"0\": {\"In\": 1}, \"1\": {\"In\": 1}, \"2\": {\"In\": 1}, \"3\": {\"In\": 1}, \"4\": {\"O\": 1}, \"5\": {\"O\": 1}, \"6\": {\"O\": 1}, \"7\": {\"O\": 1}, \"8\": {\"O\": 1}, \"9\": {\"O\": 1}}" n_minim_iter=5 energy=-11287.746227396843 stress="0.017720103627790966 4.786044006651516e-05 3.3046958089355256e-05 4.786044006651516e-05 0.01765727609236684 1.7838852672720355e-05 3.3046958089355256e-05 1.7838852672720355e-05 0.017643758352156435" free_energy=-11287.746227396843 pbc="T T T"
In      10.98522085       5.92985721       4.09448308        0       0.00079995       0.00043181       0.00029816
In       8.32521092       4.49397538       3.10302685        1      -0.00079995      -0.00043181      -0.00029816
In       4.54841026       2.45524635       1.69531310        2       0.00079995       0.00043181       0.00029816
In       1.88840033       1.01936452       0.70385687        3      -0.00079995      -0.00043181      -0.00029816
O        6.26086174       2.41670458       0.28654384        4      -0.00000000      -0.00251665       0.00364475
O        7.41777250       5.29663266       1.24536618        5       0.00210393      -0.00389758       0.00000000
O        8.49830513       2.33198821       2.63993262        6      -0.00210393       0.00138094       0.00364474
O        4.37531606       4.61723352       2.15840733        7       0.00210393      -0.00138094      -0.00364474
O        6.61275945       4.53251715       4.51179611        8      -0.00000000       0.00251665      -0.00364474
O        5.45584869       1.65258907       3.55297377        9      -0.00210393       0.00389758      -0.00000000
