10
Lattice="6.306321768715522 0.01887269108270976 0.013031327994087964 3.476194185133682 5.261760581429631 0.01303132799408873 3.476194185133682 1.8764606939902768 4.915810156597341" Properties=species:S:1:pos:R:3:spacegroup_kinds:I:1:forces:R:3 spacegroup="P 1" unit_cell=conventional occupancy="_JSON {\"0\": {\"In\": 1}, \"1\": {\"In\": 1}, \"2\": {\"In\": 1}, \"3\": {\"In\": 1}, \"4\": {\"O\": 1}, \"5\": {\"O\": 1}, \"6\": {\"O\": 1}, \"7\": {\"O\": 1}, \"8\": {\"O\": 1}, \"9\": {\"O\": 1}}" n_minim_iter=5 energy=-11287.516599480025 stress="0.010610421425275449 1.3524794104727552e-05 9.338674458937128e-06 1.3524794104727552e-05 0.010592667105491933 5.041048808674883e-06 9.338674458937128e-06 5.041048808674883e-06 0.010588847143428854" free_energy=-11287.516599480025 pbc="T T T"
In      11.26964357       6.08338950       4.20049496        0      -0.00075049      -0.00040511      -0.00027973
In       8.61842165       4.65225146       3.21231426        1       0.00075049       0.00040511       0.00027973
In       4.64028850       2.50484252       1.72955856        2      -0.00075049      -0.00040511      -0.00027973
In       1.98906658       1.07370448       0.74137785        3       0.00075049       0.00040511       0.00027973
O        6.46783842       2.49552606       0.23281602        4      -0.00000000       0.00009848      -0.00014262
O        7.62339369       5.50876463       1.24849953        5      -0.00008233       0.00015251      -0.00000000
O        8.78847735       2.35458191       2.69072110        6       0.00008233      -0.00005404      -0.00014262
O        4.47023280       4.80251207       2.25115171        7      -0.00008233       0.00005404       0.00014262
O        6.79087173       4.66156792       4.70905679        8       0.00000000      -0.00009848       0.00014262
O        5.63531646       1.64832935       3.69337328        9       0.00008233      -0.00015251      -0.00000000
