10
Lattice="5.8033731500652825 -0.024773290130202668 -0.017105608721322118 3.163727032858175 4.865242532121583 -0.0171056087213235 3.163727032858174 1.7077899298783135 4.555692159663647" Properties=species:S:1:pos:R:3:spacegroup_kinds:I:1:forces:R:3 spacegroup="P 1" unit_cell=conventional occupancy="_JSON {\"0\": {\"In\": 1}, \"1\": {\"In\": 1}, \"2\": {\"In\": 1}, \"3\": {\"In\": 1}, \"4\": {\"O\": 1}, \"5\": {\"O\": 1}, \"6\": {\"O\": 1}, \"7\": {\"O\": 1}, \"8\": {\"O\": 1}, \"9\": {\"O\": 1}}" n_minim_iter=4 energy=-11287.671952629986 stress="-0.008947110184107954 2.3727554167182732e-05 1.6383544633433803e-05 2.3727554167182732e-05 -0.008978257916244526 8.84388958675441e-06 1.6383544633433803e-05 8.84388958675441e-06 -0.008984959543179405" free_energy=-11287.671952629986 pbc="T T T"
In      10.40464393       5.61645994       3.87808666        0       0.00337990       0.00182448       0.00125978
In       7.79159690       4.20592883       2.90413475        1      -0.00337990      -0.00182448      -0.00125978
In       4.33923032       2.34233035       1.61734619        2       0.00337990       0.00182448       0.00125978
In       1.72618329       0.93179924       0.64339428        3      -0.00337990      -0.00182448      -0.00125978
O        5.93439338       2.27027606       0.18682678        4      -0.00000000      -0.00281515       0.00407706
O        6.97653383       5.05715100       1.11326463        5       0.00235348      -0.00435989       0.00000000
O        8.05597997       2.12431944       2.46467286        6      -0.00235348       0.00154474       0.00407706
O        4.07484726       4.42393974       2.05680809        7       0.00235348      -0.00154474      -0.00407706
O        6.19643384       4.27798312       4.33465417        8       0.00000000       0.00281515      -0.00407706
O        5.15429340       1.49110818       3.40821632        9      -0.00235348       0.00435989       0.00000000
