10
Lattice="6.348933343523162 0.019000213133981297 0.013119380178550525 3.4996826961862793 5.297314096276872 0.013119380178550525 3.49968269618628 1.8891398670753323 4.949026097665735" Properties=species:S:1:pos:R:3:spacegroup_kinds:I:1:forces:R:3 spacegroup="P 1" unit_cell=conventional occupancy="_JSON {\"0\": {\"In\": 1}, \"1\": {\"In\": 1}, \"2\": {\"In\": 1}, \"3\": {\"In\": 1}, \"4\": {\"O\": 1}, \"5\": {\"O\": 1}, \"6\": {\"O\": 1}, \"7\": {\"O\": 1}, \"8\": {\"O\": 1}, \"9\": {\"O\": 1}}" n_minim_iter=1 energy=-11287.466279666796 stress="0.016360436707645275 -0.004206621961531678 -0.00290461335246092 -0.004206621961531678 0.021882569722705133 -0.0015679195404736312 -0.00290461335246092 -0.0015679195404736312 0.023070691246282964" free_energy=-11287.466279666796 pbc="T T T"
In      11.34579212       6.12449473       4.22887755        0      -0.02131417      -0.01150546      -0.00794436
In       8.67665600       4.68368655       3.23401974        1       0.02131417       0.01150546       0.00794436
In       4.67164275       2.52176764       1.74124512        2      -0.02131417      -0.01150546      -0.00794436
In       2.00250663       1.08095946       0.74638732        3       0.02131417       0.01150546       0.00794436
O        6.51154136       2.51238823       0.23438915        4       0.00000000       0.06054649      -0.08768678
O        7.67490467       5.54598714       1.25693560        5      -0.05061717       0.09376967       0.00000000
O        8.84786075       2.37049173       2.70890220        6       0.05061717      -0.03322318      -0.08768678
O        4.50043799       4.83496246       2.26636266        7      -0.05061717       0.03322318       0.08768678
O        6.83675739       4.69306596       4.74087571        8       0.00000000      -0.06054649       0.08768678
O        5.67339408       1.65946705       3.71832927        9       0.05061717      -0.09376967      -0.00000000
10
Lattice="6.375713952488477 0.04640239319801188 0.03204020045809456 3.5372861605193333 5.304666644064368 0.03204020045809461 3.537286160519335 1.909438336902078 4.949197916497498" Properties=species:S:1:pos:R:3:spacegroup_kinds:I:1:forces:R:3 spacegroup="P 1" unit_cell=conventional occupancy="_JSON {\"0\": {\"In\": 1}, \"1\": {\"In\": 1}, \"2\": {\"In\": 1}, \"3\": {\"In\": 1}, \"4\": {\"O\": 1}, \"5\": {\"O\": 1}, \"6\": {\"O\": 1}, \"7\": {\"O\": 1}, \"8\": {\"O\": 1}, \"9\": {\"O\": 1}}" n_minim_iter=2 energy=-11287.473802818908 stress="0.016120721841943565 1.1014333171395061e-05 7.605245691114033e-06 1.1014333171395061e-05 0.016106263069010307 4.105335535173696e-06 7.605245691114033e-06 4.105335535173696e-06 0.016103152172275086" free_energy=-11287.473802818908 pbc="T T T"
In      11.43234684       6.17121725       4.26113879        0      -0.05827754      -0.03145840      -0.02172159
In       8.74308258       4.71954383       3.25877869        1       0.05827754       0.03145840       0.02172159
In       4.70720371       2.54096356       1.75449963        2      -0.05827754      -0.03145840      -0.02172159
In       2.01793944       1.08929014       0.75213953        3       0.05827754       0.03145840       0.02172159
O        6.55042855       2.53756051       0.25667249        4       0.00000000       0.03245683      -0.04700577
O        7.73450981       5.57357796       1.28535978        5      -0.02713407       0.05026660      -0.00000000
O        8.90363346       2.40936309       2.73127145        6       0.02713407      -0.01780977      -0.04700577
O        4.54665283       4.85114430       2.28200687        7      -0.02713407       0.01780977       0.04700577
O        6.89985773       4.72294688       4.75660583        8      -0.00000000      -0.03245683       0.04700577
O        5.71577648       1.68692943       3.72791854        9       0.02713407      -0.05026660       0.00000000
10
Lattice="6.3772941674235275 0.04801345302741991 0.03315261463173308 3.5395001130247463 5.30510368790503 0.03315261463173309 3.539500113024748 1.9106334355166879 4.949212473754403" Properties=species:S:1:pos:R:3:spacegroup_kinds:I:1:forces:R:3 spacegroup="P 1" unit_cell=conventional occupancy="_JSON {\"0\": {\"In\": 1}, \"1\": {\"In\": 1}, \"2\": {\"In\": 1}, \"3\": {\"In\": 1}, \"4\": {\"O\": 1}, \"5\": {\"O\": 1}, \"6\": {\"O\": 1}, \"7\": {\"O\": 1}, \"8\": {\"O\": 1}, \"9\": {\"O\": 1}}" n_minim_iter=3 energy=-11287.475384663414 stress="0.015579114750705373 0.0003854872444659401 0.0002661735271583486 0.0003854872444659401 0.015073076448536971 0.0001436813235806675 0.0002661735271583486 0.0001436813235806675 0.014964199136178727" free_energy=-11287.475384663414 pbc="T T T"
In      11.43314449       6.17164782       4.26143609        0       0.00072718       0.00039253       0.00027104
In       8.75129712       4.72397806       3.26184047        1      -0.00072718      -0.00039253      -0.00027104
In       4.70499729       2.53977253       1.75367724        2       0.00072718       0.00039253       0.00027104
In       2.02314992       1.09210277       0.75408162        3      -0.00072718      -0.00039253      -0.00027104
O        6.55272069       2.54139171       0.25458084        4       0.00000000       0.00841809      -0.01219154
O        7.73605727       5.57884304       1.28703204        5      -0.00703756       0.01303728      -0.00000000
O        8.90888422       2.41036162       2.72918708        6       0.00703756      -0.00461919      -0.01219154
O        4.54741019       4.85338897       2.28633063        7      -0.00703756       0.00461919       0.01219154
O        6.90357372       4.72235887       4.76093686        8      -0.00000000      -0.00841809       0.01219154
O        5.72023713       1.68490755       3.72848567        9       0.00703756      -0.01303728      -0.00000000
10
Lattice="6.374749278076976 0.04541857233186014 0.031360885974640096 3.5359343434466113 5.304400015448522 0.03136088597464013 3.5359343434466135 1.9087086217402267 4.949189269603051" Properties=species:S:1:pos:R:3:spacegroup_kinds:I:1:forces:R:3 spacegroup="P 1" unit_cell=conventional occupancy="_JSON {\"0\": {\"In\": 1}, \"1\": {\"In\": 1}, \"2\": {\"In\": 1}, \"3\": {\"In\": 1}, \"4\": {\"O\": 1}, \"5\": {\"O\": 1}, \"6\": {\"O\": 1}, \"7\": {\"O\": 1}, \"8\": {\"O\": 1}, \"9\": {\"O\": 1}}" n_minim_iter=4 energy=-11287.475491283745 stress="0.015478280994994632 -8.108824133597934e-07 -5.598991823271299e-07 -8.108824133597934e-07 0.015479345446635755 -3.022350644019697e-07 -5.598991823271299e-07 -3.022350644019697e-07 0.01547957447692493" free_energy=-11287.475491283745 pbc="T T T"
In      11.42438149       6.16691752       4.25816989        0       0.01148315       0.00619864       0.00428008
In       8.74554546       4.72087330       3.25969668        1      -0.01148315      -0.00619864      -0.00428008
In       4.70107251       2.53765392       1.75221437        2       0.01148315       0.00619864       0.00428008
In       2.02223648       1.09160970       0.75374116        3      -0.01148315      -0.00619864      -0.00428008
O        6.54902914       2.53951736       0.25172765        4       0.00000000       0.00618721      -0.00896067
O        7.72997345       5.57701682       1.28433865        5      -0.00517254       0.00958227      -0.00000000
O        8.90401916       2.40639595       2.72632228        6       0.00517254      -0.00339506      -0.00896067
O        4.54259881       4.85213127       2.28558877        7      -0.00517254       0.00339506       0.00896067
O        6.89758884       4.71900987       4.76018340        8       0.00000000      -0.00618721       0.00896067
O        5.71664452       1.68151040       3.72757240        9       0.00517254      -0.00958227      -0.00000000
10
Lattice="6.3733981332322225 0.04404020650773993 0.030409143741843215 3.5340406200525005 5.304026791061298 0.030409143741843253 3.534040620052503 1.9076863838199356 4.9491774647215045" Properties=species:S:1:pos:R:3:spacegroup_kinds:I:1:forces:R:3 spacegroup="P 1" unit_cell=conventional occupancy="_JSON {\"0\": {\"In\": 1}, \"1\": {\"In\": 1}, \"2\": {\"In\": 1}, \"3\": {\"In\": 1}, \"4\": {\"O\": 1}, \"5\": {\"O\": 1}, \"6\": {\"O\": 1}, \"7\": {\"O\": 1}, \"8\": {\"O\": 1}, \"9\": {\"O\": 1}}" n_minim_iter=5 energy=-11287.475535989122 stress="0.015439492475452772 -0.00011357934348369543 -7.842494244877484e-05 -0.00011357934348369543 0.01558859079120235 -4.233402915934297e-05 -7.842494244877484e-05 -4.233402915934297e-05 0.015620670230258345" free_energy=-11287.475535989122 pbc="T T T"
In      11.42036649       6.16475021       4.25667339        0       0.00601827       0.00324868       0.00224317
In       8.74185258       4.71887987       3.25832024        1      -0.00601827      -0.00324868      -0.00224317
In       4.69962680       2.53687352       1.75167552        2       0.00601827       0.00324868       0.00224317
In       2.02111290       1.09100318       0.75332236        3      -0.00601827      -0.00324868      -0.00224317
O        6.54706892       2.53885095       0.24973567        4      -0.00000000       0.00060184      -0.00087162
O        7.72646760       5.57655681       1.28290808        5      -0.00050314       0.00093209      -0.00000000
O        8.90171085       2.40410918       2.72432440        6       0.00050314      -0.00033024      -0.00087162
O        4.53976853       4.85164421       2.28567135        7      -0.00050314       0.00033024       0.00087162
O        6.89441047       4.71690245       4.76026009        8      -0.00000000      -0.00060184       0.00087162
O        5.71501179       1.67919659       3.72708767        9       0.00050314      -0.00093209      -0.00000000
