10
Lattice="6.060735202499161 -0.0058383910290190745 -0.004031326964623633 3.3207768833651006 5.070008498270036 -0.004031326964622335 3.3207768833650992 1.7925659394388787 4.74254254349827" Properties=species:S:1:pos:R:3:spacegroup_kinds:I:1:forces:R:3 spacegroup="P 1" unit_cell=conventional occupancy="_JSON {\"0\": {\"In\": 1}, \"1\": {\"In\": 1}, \"2\": {\"In\": 1}, \"3\": {\"In\": 1}, \"4\": {\"O\": 1}, \"5\": {\"O\": 1}, \"6\": {\"O\": 1}, \"7\": {\"O\": 1}, \"8\": {\"O\": 1}, \"9\": {\"O\": 1}}" n_minim_iter=7 energy=-11287.703797476679 stress="-0.0010810168824100298 0.0002036622894739029 0.00014062594582684365 0.0002036622894739029 -0.0013483692232563662 7.591033693713993e-05 0.00014062594582684365 7.591033693713993e-05 -0.0014058917581858629" free_energy=-11287.703797476679 pbc="T T T"
In      10.83449794       5.84849650       4.03830465        0      -0.00546966      -0.00295254      -0.00203869
In       8.21893553       4.43660758       3.06341519        1       0.00546966       0.00295254       0.00203869
In       4.48335345       2.42012848       1.67106470        2      -0.00546966      -0.00295254      -0.00203869
In       1.86779104       1.00823956       0.69617525        3       0.00546966       0.00295254       0.00203869
O        6.20593985       2.36166159       0.23966368        4       0.00000000       0.00346247      -0.00501454
O        7.32259335       5.25355275       1.17958865        5      -0.00289464       0.00536240       0.00000000
O        8.41006323       2.25066088       2.61093495        6       0.00289464      -0.00189993      -0.00501454
O        4.29222575       4.60607518       2.12354494        7      -0.00289464       0.00189993       0.00501454
O        6.49634913       4.49507447       4.49481621        8       0.00000000      -0.00346247       0.00501454
O        5.37969563       1.60318330       3.55489125        9       0.00289464      -0.00536240      -0.00000000
