10
Lattice="6.249315947878369 0.0045380175042780465 0.0031334373186175345 3.4329299873229187 5.221969179547956 0.003133437318621264 3.4329299873229147 1.8531065422009045 4.882106929782517" Properties=species:S:1:pos:R:3:spacegroup_kinds:I:1:forces:R:3 spacegroup="P 1" unit_cell=conventional occupancy="_JSON {\"0\": {\"In\": 1}, \"1\": {\"In\": 1}, \"2\": {\"In\": 1}, \"3\": {\"In\": 1}, \"4\": {\"O\": 1}, \"5\": {\"O\": 1}, \"6\": {\"O\": 1}, \"7\": {\"O\": 1}, \"8\": {\"O\": 1}, \"9\": {\"O\": 1}}" n_minim_iter=3 energy=-11287.553159422952 stress="0.012613489328061717 0.000562509822595415 0.00038840512811629007 0.000562509822595415 0.011875069267676227 0.00020966232583171954 0.00038840512811629007 0.00020966232583171954 0.011716193563524909" free_energy=-11287.553159422952 pbc="T T T"
In      11.15576481       6.02191738       4.15804933        0      -0.00006601      -0.00003563      -0.00002460
In       8.51699909       4.59750324       3.17451138        1       0.00006601       0.00003563       0.00002460
In       4.59817685       2.48211051       1.71386243        2      -0.00006601      -0.00003563      -0.00002460
In       1.95941113       1.05769637       0.73032448        3       0.00006601       0.00003563       0.00002460
O        6.40345196       2.46097119       0.22610368        4      -0.00000000      -0.00075977       0.00110034
O        7.54407777       5.44991470       1.22522689        5       0.00063517      -0.00117667      -0.00000000
O        8.69575614       2.32076680       2.66715714        6      -0.00063517       0.00041690       0.00110034
O        4.41941980       4.75884695       2.22121667        7       0.00063517      -0.00041690      -0.00110034
O        6.71172397       4.61864256       4.66227013        8      -0.00000000       0.00075977      -0.00110034
O        5.57109816       1.62969905       3.66314692        9      -0.00063517       0.00117667      -0.00000000
