10
Lattice="5.663289842365634 -0.0652352138137496 -0.04504399845499619 3.0530338917623268 4.770334529937476 -0.045043998454996195 3.0530338917623276 1.64803741971966 4.476839638909834" Properties=species:S:1:pos:R:3:spacegroup_kinds:I:1:forces:R:3 spacegroup="P 1" unit_cell=conventional occupancy="_JSON {\"0\": {\"In\": 1}, \"1\": {\"In\": 1}, \"2\": {\"In\": 1}, \"3\": {\"In\": 1}, \"4\": {\"O\": 1}, \"5\": {\"O\": 1}, \"6\": {\"O\": 1}, \"7\": {\"O\": 1}, \"8\": {\"O\": 1}, \"9\": {\"O\": 1}}" n_minim_iter=4 energy=-11287.513948609969 stress="-0.03640240705949043 -0.00028624027614486587 -0.00019764488477320047 -0.00028624027614486587 -0.036026652611289414 -0.00010668933427176633 -0.00019764488477320047 -0.00010668933427176633 -0.035945806699506005" free_energy=-11287.513948609969 pbc="T T T"
In      10.10990435       5.45735857       3.76822941        0      -0.00262038      -0.00141449      -0.00097668
In       7.54413210       4.07234654       2.81189806        1       0.00262038       0.00141449       0.00097668
In       4.22522554       2.28079021       1.57485359        2      -0.00262038      -0.00141449      -0.00097668
In       1.65945329       0.89577817       0.61852224        3       0.00262038       0.00141449       0.00097668
O        5.77398433       2.19656523       0.14598099        4      -0.00000000       0.00267494      -0.00387400
O        6.76470681       4.93340759       1.05164391        5      -0.00223627       0.00414275       0.00000000
O        7.83629574       2.02801020       2.38440081        6       0.00223627      -0.00146780      -0.00387400
O        3.93306189       4.32512654       2.00235084        7      -0.00223627       0.00146780       0.00387400
O        5.99537330       4.15657151       4.24077066        8       0.00000000      -0.00267494       0.00387400
O        5.00465082       1.41972916       3.33510773        9       0.00223627      -0.00414275      -0.00000000
