10
Lattice="4.530910697413689 -1.1871850502695886 -0.8197345949199877 1.493717060322908 4.439298304374709 -0.8197345949199223 1.4937170603229064 0.8063132271568609 4.441755646255727" Properties=species:S:1:pos:R:3:spacegroup_kinds:I:1:forces:R:3 spacegroup="P 1" unit_cell=conventional occupancy="_JSON {\"0\": {\"In\": 1}, \"1\": {\"In\": 1}, \"2\": {\"In\": 1}, \"3\": {\"In\": 1}, \"4\": {\"O\": 1}, \"5\": {\"O\": 1}, \"6\": {\"O\": 1}, \"7\": {\"O\": 1}, \"8\": {\"O\": 1}, \"9\": {\"O\": 1}}" n_minim_iter=19 energy=-11323.816621432474 stress="0.1938424176634947 7.245702006324958e-05 5.0030552157861466e-05 7.245702006324958e-05 0.19374730161357 2.700665309753856e-05 5.0030552157861466e-05 2.700665309753856e-05 0.19372683679798564" free_energy=-11323.816621432474 pbc="T T T"
In       7.11178431       3.83896383       2.65075058        0       0.00004654       0.00002512       0.00001735
In       4.16573290       2.24867589       1.55267910        1      -0.00004654      -0.00002512      -0.00001735
In       3.35261190       1.80975059       1.24960735        2       0.00004654       0.00002512       0.00001735
In       0.40656049       0.21946265       0.15153588        3      -0.00004654      -0.00002512      -0.00001735
O        4.14504155       1.25050802      -0.91061474        4      -0.00000000       0.00071780      -0.00103955
O        4.19843902       3.92531861      -0.11916298        5      -0.00060008       0.00111167      -0.00000000
O        5.58536113       0.36900927       1.31026309        6       0.00060008      -0.00039387      -0.00103955
O        1.93298367       3.68941721       1.49202337        7      -0.00060008       0.00039387       0.00103955
O        3.37330326       2.80791846       3.71290119        8       0.00000000      -0.00071780       0.00103955
O        3.31990579       0.13310787       2.92144944        9       0.00060008      -0.00111167       0.00000000
