10
Lattice="6.1668051245302635 -0.03569417391958229 -0.024646325517931725 3.354020183423651 5.175066002204343 -0.024646325517925005 3.3540201834236467 1.8105107787016383 4.848088931603667" Properties=species:S:1:pos:R:3:spacegroup_kinds:I:1:forces:R:3 spacegroup="P 1" unit_cell=conventional occupancy="_JSON {\"0\": {\"In\": 1}, \"1\": {\"In\": 1}, \"2\": {\"In\": 1}, \"3\": {\"In\": 1}, \"4\": {\"O\": 1}, \"5\": {\"O\": 1}, \"6\": {\"O\": 1}, \"7\": {\"O\": 1}, \"8\": {\"O\": 1}, \"9\": {\"O\": 1}}" n_minim_iter=4 energy=-11287.650951070993 stress="0.014447758589323356 -1.926163558796182e-06 -1.3299889545669106e-06 -1.926163558796182e-06 0.014450287117986323 -7.179297859207871e-07 -1.3299889545669106e-06 -7.179297859207871e-07 0.014450831147533958" free_energy=-11287.650951070993 pbc="T T T"
In      10.97727231       5.92556656       4.09152044        0      -0.00251739      -0.00135890      -0.00093830
In       8.33499594       4.49925736       3.10667398        1       0.00251739       0.00135889       0.00093830
In       4.53984956       2.45062526       1.69212230        2      -0.00251739      -0.00135890      -0.00093830
In       1.89757320       1.02431606       0.70727584        3       0.00251739       0.00135890       0.00093830
O        6.30211394       2.39917136       0.20321716        4       0.00000000      -0.00046228       0.00066950
O        7.41101869       5.35958707       1.17505275        5       0.00038647      -0.00071594       0.00000000
O        8.54722937       2.25199624       2.62726163        6      -0.00038647       0.00025366       0.00066950
O        4.32761613       4.69788637       2.17153466        7       0.00038647      -0.00025366      -0.00066950
O        6.57273156       4.55071126       4.59557912        8      -0.00000000       0.00046228      -0.00066950
O        5.46382681       1.59029555       3.62374354        9      -0.00038647       0.00071594      -0.00000000
