10
Lattice="6.3489333435231625 0.01900021313397613 0.013119380178551123 3.4996826961862797 5.297314096276869 0.013119380178551895 3.4996826961862797 1.889139867075327 4.9490260976657385" Properties=species:S:1:pos:R:3:spacegroup_kinds:I:1:forces:R:3 spacegroup="P 1" unit_cell=conventional occupancy="_JSON {\"0\": {\"In\": 1}, \"1\": {\"In\": 1}, \"2\": {\"In\": 1}, \"3\": {\"In\": 1}, \"4\": {\"O\": 1}, \"5\": {\"O\": 1}, \"6\": {\"O\": 1}, \"7\": {\"O\": 1}, \"8\": {\"O\": 1}, \"9\": {\"O\": 1}}" n_minim_iter=5 energy=-11287.516599480025 stress="0.010610421425275449 1.3524794104727552e-05 9.338674458937128e-06 1.3524794104727552e-05 0.010592667105491933 5.041048808674883e-06 9.338674458937128e-06 5.041048808674883e-06 0.010588847143428854" free_energy=-11287.516599480025 pbc="T T T"
In      11.34579212       6.12449473       4.22887755        0      -0.00075049      -0.00040511      -0.00027973
In       8.67665600       4.68368655       3.23401974        1       0.00075049       0.00040511       0.00027973
In       4.67164275       2.52176764       1.74124512        2      -0.00075049      -0.00040511      -0.00027973
In       2.00250663       1.08095946       0.74638732        3       0.00075049       0.00040511       0.00027973
O        6.51154136       2.51238823       0.23438915        4      -0.00000000       0.00009848      -0.00014262
O        7.67490467       5.54598714       1.25693560        5      -0.00008233       0.00015251      -0.00000000
O        8.84786075       2.37049173       2.70890220        6       0.00008233      -0.00005404      -0.00014262
O        4.50043799       4.83496246       2.26636266        7      -0.00008233       0.00005404       0.00014262
O        6.83675739       4.69306596       4.74087571        8       0.00000000      -0.00009848       0.00014262
O        5.67339408       1.65946705       3.71832927        9       0.00008233      -0.00015251      -0.00000000
