10
Lattice="6.106306351230188 -0.005882290354273148 -0.00406163883183943 3.345746068158389 5.108130294326555 -0.004061638831838123 3.3457460681583875 1.8060443849256007 4.77820209706594" Properties=species:S:1:pos:R:3:spacegroup_kinds:I:1:forces:R:3 spacegroup="P 1" unit_cell=conventional occupancy="_JSON {\"0\": {\"In\": 1}, \"1\": {\"In\": 1}, \"2\": {\"In\": 1}, \"3\": {\"In\": 1}, \"4\": {\"O\": 1}, \"5\": {\"O\": 1}, \"6\": {\"O\": 1}, \"7\": {\"O\": 1}, \"8\": {\"O\": 1}, \"9\": {\"O\": 1}}" n_minim_iter=7 energy=-11287.703797476679 stress="-0.0010810168824100298 0.0002036622894739029 0.00014062594582684365 0.0002036622894739029 -0.0013483692232563662 7.591033693713993e-05 0.00014062594582684365 7.591033693713993e-05 -0.0014058917581858629" free_energy=-11287.703797476679 pbc="T T T"
In      10.91596339       5.89247181       4.06866898        0      -0.00546966      -0.00295254      -0.00203869
In       8.28073436       4.46996679       3.08644925        1       0.00546966       0.00295254       0.00203869
In       4.51706414       2.43832562       1.68362957        2      -0.00546966      -0.00295254      -0.00203869
In       1.88183511       1.01582059       0.70140984        3       0.00546966       0.00295254       0.00203869
O        6.25260280       2.37941911       0.24146573        4       0.00000000       0.00346247      -0.00501454
O        7.37765251       5.29305463       1.18845807        5      -0.00289464       0.00536240       0.00000000
O        8.47329916       2.26758377       2.63056678        6       0.00289464      -0.00189993      -0.00501454
O        4.32449933       4.64070863       2.13951204        7      -0.00289464       0.00189993       0.00501454
O        6.54519569       4.52887329       4.52861309        8       0.00000000      -0.00346247       0.00501454
O        5.42014599       1.61523777       3.58162076        9       0.00289464      -0.00536240      -0.00000000
