10
Lattice="5.831420469022829 0.004244952365806024 0.0029310799586383337 3.2033766048864343 4.872767287017232 0.002931079958637453 3.203376604886433 1.7291928951564766 4.555629655272185" Properties=species:S:1:pos:R:3:spacegroup_kinds:I:1:forces:R:3 spacegroup="P 1" unit_cell=conventional occupancy="_JSON {\"0\": {\"In\": 1}, \"1\": {\"In\": 1}, \"2\": {\"In\": 1}, \"3\": {\"In\": 1}, \"4\": {\"O\": 1}, \"5\": {\"O\": 1}, \"6\": {\"O\": 1}, \"7\": {\"O\": 1}, \"8\": {\"O\": 1}, \"9\": {\"O\": 1}}" n_minim_iter=1 energy=-11287.683982123064 stress="0.0001752363790406304 0.00010562909493465035 7.293540291497919e-05 0.00010562909493465035 3.6574534326336255e-05 3.9370758263258996e-05 7.293540291497919e-05 3.9370758263258996e-05 6.740576331533709e-06" free_energy=-11287.683982123064 pbc="T T T"
In      10.49039418       5.66274820       3.91004805        0       0.00063668       0.00034368       0.00023731
In       7.86686635       4.24655952       2.93218967        1      -0.00063668      -0.00034368      -0.00023731
In       4.37130734       2.35964563       1.62930215        2       0.00063668       0.00034368       0.00023731
In       1.74777951       0.94345695       0.65144377        3      -0.00063668      -0.00034368      -0.00023731
O        5.97525366       2.29358270       0.21508692        4      -0.00000000       0.00149253      -0.00216157
O        7.04197490       5.08109836       1.14330404        5      -0.00124776       0.00231152      -0.00000000
O        8.11190902       2.16713820       2.49290175        6       0.00124776      -0.00081898      -0.00216157
O        4.12626466       4.43906695       2.06859007        7      -0.00124776       0.00081898       0.00216157
O        6.26292003       4.31262244       4.34640490        8      -0.00000000      -0.00149253       0.00216157
O        5.19619879       1.52510678       3.41818778        9       0.00124776      -0.00231152      -0.00000000
