10
Lattice="5.914794440631529 -0.017315464079272067 -0.01195608463032058 3.231101108842071 4.9542990144581935 -0.011956084630323023 3.231101108842073 1.7441586707036627 4.637146989694236" Properties=species:S:1:pos:R:3:spacegroup_kinds:I:1:forces:R:3 spacegroup="P 1" unit_cell=conventional occupancy="_JSON {\"0\": {\"In\": 1}, \"1\": {\"In\": 1}, \"2\": {\"In\": 1}, \"3\": {\"In\": 1}, \"4\": {\"O\": 1}, \"5\": {\"O\": 1}, \"6\": {\"O\": 1}, \"7\": {\"O\": 1}, \"8\": {\"O\": 1}, \"9\": {\"O\": 1}}" n_minim_iter=4 energy=-11287.673467586974 stress="0.0071179001758168246 -5.000685144236392e-06 -3.4528966476431684e-06 -5.000685144236392e-06 0.007124464688046616 -1.8638864169662305e-06 -3.4528966476431684e-06 -1.8638864169662305e-06 0.0071258770881229335" free_energy=-11287.673467586974 pbc="T T T"
In      10.62351514       5.73460731       3.95966577        0       0.00138595       0.00074814       0.00051658
In       7.94197986       4.28710603       2.96018647        1      -0.00138595      -0.00074814      -0.00051658
In       4.43501681       2.39403620       1.65304836        2       0.00138595       0.00074814       0.00051658
In       1.75348153       0.94653492       0.65356906        3      -0.00138595      -0.00074814      -0.00051658
O        6.05164639       2.31855726       0.19592908        4       0.00000000       0.00026995      -0.00039095
O        7.11800067       5.15617829       1.14135262        5      -0.00022568       0.00041807      -0.00000000
O        8.21639322       2.17323564       2.51450257        6       0.00022568      -0.00014813      -0.00039095
O        4.16060345       4.50790660       2.09873225        7      -0.00022568       0.00014813       0.00039095
O        6.32535028       4.36258498       4.41730575        8      -0.00000000      -0.00026995       0.00039095
O        5.25899600       1.52496394       3.47188220        9       0.00022568      -0.00041807      -0.00000000
