10
Lattice="6.173112923849953 -0.0359687281460741 -0.024835901353304008 3.357251882007266 5.1804900077855995 -0.02483590135330379 3.357251882007269 1.8122552598911503 4.853228246822865" Properties=species:S:1:pos:R:3:spacegroup_kinds:I:1:forces:R:3 spacegroup="P 1" unit_cell=conventional occupancy="_JSON {\"0\": {\"In\": 1}, \"1\": {\"In\": 1}, \"2\": {\"In\": 1}, \"3\": {\"In\": 1}, \"4\": {\"O\": 1}, \"5\": {\"O\": 1}, \"6\": {\"O\": 1}, \"7\": {\"O\": 1}, \"8\": {\"O\": 1}, \"9\": {\"O\": 1}}" n_minim_iter=6 energy=-11287.107839942593 stress="0.06575455660966463 -8.440243189780816e-05 -5.827869617404085e-05 -8.440243189780816e-05 0.06586535370173477 -3.145902502411009e-05 -5.827869617404085e-05 -3.145902502411009e-05 0.06588919239024256" free_energy=-11287.107839942593 pbc="T T T"
In      11.03862153       5.95868306       4.11438692        0       0.00007855       0.00004240       0.00002928
In       8.29280352       4.47648176       3.09094775        1      -0.00007855      -0.00004240      -0.00002928
In       4.59481318       2.48029480       1.71260870        2       0.00007855       0.00004240       0.00002928
In       1.84899517       0.99809349       0.68916953        3      -0.00007855      -0.00004240      -0.00002928
O        6.30846064       2.41152732       0.18871505        4       0.00000000      -0.00364355       0.00527679
O        7.40997767       5.38056465       1.17605321        5       0.00304603      -0.00564285      -0.00000000
O        8.56419549       2.24854509       2.61532917        6      -0.00304603       0.00199930       0.00527679
O        4.32342121       4.70823146       2.18822728        7       0.00304603      -0.00199930      -0.00527679
O        6.57915606       4.54524923       4.61484140        8       0.00000000       0.00364355      -0.00527679
O        5.47763903       1.57621190       3.62750324        9      -0.00304603       0.00564285      -0.00000000
