10
Lattice="6.173112923849956 -0.0359687281460757 -0.02483590135330634 3.357251882007268 5.180490007785601 -0.024835901353307672 3.3572518820072714 1.8122552598911497 4.853228246822864" Properties=species:S:1:pos:R:3:spacegroup_kinds:I:1:forces:R:3 spacegroup="P 1" unit_cell=conventional occupancy="_JSON {\"0\": {\"In\": 1}, \"1\": {\"In\": 1}, \"2\": {\"In\": 1}, \"3\": {\"In\": 1}, \"4\": {\"O\": 1}, \"5\": {\"O\": 1}, \"6\": {\"O\": 1}, \"7\": {\"O\": 1}, \"8\": {\"O\": 1}, \"9\": {\"O\": 1}}" n_minim_iter=1 energy=-11286.86079178548 stress="0.07956670980556002 -0.0036198114472942478 -0.0024994289369734226 -0.0036198114472942478 0.08431852266145212 -0.0013491996990744426 -0.0024994289369734226 -0.0013491996990744426 0.08534090497291445" free_energy=-11286.86079178548 pbc="T T T"
In      11.03862153       5.95868306       4.11438692        0      -0.10588934      -0.05715940      -0.03946777
In       8.29280352       4.47648176       3.09094775        1       0.10588934       0.05715940       0.03946777
In       4.59481318       2.48029480       1.71260870        2      -0.10588934      -0.05715940      -0.03946777
In       1.84899517       0.99809349       0.68916953        3       0.10588934       0.05715940       0.03946777
O        6.30846064       2.41152732       0.18871505        4       0.00000000       0.03655024      -0.05293408
O        7.40997767       5.38056465       1.17605321        5      -0.03055618       0.05660616      -0.00000000
O        8.56419549       2.24854509       2.61532917        6       0.03055618      -0.02005592      -0.05293408
O        4.32342121       4.70823146       2.18822728        7      -0.03055618       0.02005592       0.05293408
O        6.57915606       4.54524923       4.61484140        8      -0.00000000      -0.03655024       0.05293408
O        5.47763903       1.57621190       3.62750324        9       0.03055618      -0.05660616      -0.00000000
10
Lattice="6.196545817227641 -0.011642858532103308 -0.008039230211298832 3.3904465707903397 5.186731887400021 -0.008039230211300237 3.390446570790342 1.830173858632571 4.8531140464832" Properties=species:S:1:pos:R:3:spacegroup_kinds:I:1:forces:R:3 spacegroup="P 1" unit_cell=conventional occupancy="_JSON {\"0\": {\"In\": 1}, \"1\": {\"In\": 1}, \"2\": {\"In\": 1}, \"3\": {\"In\": 1}, \"4\": {\"O\": 1}, \"5\": {\"O\": 1}, \"6\": {\"O\": 1}, \"7\": {\"O\": 1}, \"8\": {\"O\": 1}, \"9\": {\"O\": 1}}" n_minim_iter=2 energy=-11286.866464190523 stress="0.08019483167099604 0.00015488708577513586 0.0001069473594902217 0.00015488708577513586 0.07999150769519078 5.77305216711297e-05 0.0001069473594902217 5.77305216711297e-05 0.079947761269445" free_energy=-11286.866464190523 pbc="T T T"
In      11.11481618       5.99981318       4.14278669        0      -0.10253744      -0.05535004      -0.03821842
In       8.35134227       4.50808116       3.11276669        1       0.10253744       0.05535004       0.03821842
In       4.62609670       2.49718174       1.72426890        2      -0.10253744      -0.05535004      -0.03821842
In       1.86262279       1.00544972       0.69424890        3       0.10253744       0.05535004       0.03821842
O        6.34263265       2.43367175       0.20858258        4       0.00000000       0.02700293      -0.03910713
O        7.46253616       5.40465569       1.20121967        5      -0.02257458       0.04182002      -0.00000000
O        8.61317572       2.28296323       2.63513960        6       0.02257458      -0.01481710      -0.03910713
O        4.36426325       4.72229967       2.20189599        7      -0.02257458       0.01481710       0.03910713
O        6.63480632       4.57159115       4.62845301        8       0.00000000      -0.02700293       0.03910713
O        5.51490281       1.60060721       3.63581592        9       0.02257458      -0.04182002      -0.00000000
10
Lattice="6.196747876300507 -0.011433772388944748 -0.007894859167520514 3.390732242075864 5.18678607965791 -0.00789485916752187 3.3907322420758668 1.8303280649024576 4.853113571694438" Properties=species:S:1:pos:R:3:spacegroup_kinds:I:1:forces:R:3 spacegroup="P 1" unit_cell=conventional occupancy="_JSON {\"0\": {\"In\": 1}, \"1\": {\"In\": 1}, \"2\": {\"In\": 1}, \"3\": {\"In\": 1}, \"4\": {\"O\": 1}, \"5\": {\"O\": 1}, \"6\": {\"O\": 1}, \"7\": {\"O\": 1}, \"8\": {\"O\": 1}, \"9\": {\"O\": 1}}" n_minim_iter=3 energy=-11286.870541379258 stress="0.07826374408029202 0.0002827056476843131 0.00019520427670446374 0.0002827056476843131 0.07789262962319964 0.00010537189069217074 0.00019520427670446374 0.00010537189069217074 0.07781278202288897" free_energy=-11286.870541379258 pbc="T T T"
In      11.10763704       5.99593786       4.14011083        0      -0.05072005      -0.02737885      -0.01890471
In       8.35968151       4.51258271       3.11587495        1       0.05072005       0.02737885       0.01890471
In       4.61853086       2.49309767       1.72144891        2      -0.05072005      -0.02737885      -0.01890471
In       1.87057533       1.00974253       0.69721302        3       0.05072005       0.02737885       0.01890471
O        6.34292703       2.43591053       0.20578706        4       0.00000000       0.00680541      -0.00985598
O        7.46127640       5.40803540       1.20143611        5      -0.00568936       0.01053969      -0.00000000
O        8.61530991       2.28213541       2.63234385        6       0.00568936      -0.00373428      -0.00985598
O        4.36290246       4.72354497       2.20498001        7      -0.00568936       0.00373428       0.00985598
O        6.63528534       4.56976985       4.63153679        8      -0.00000000      -0.00680541       0.00985598
O        5.51693597       1.59764498       3.63588775        9       0.00568936      -0.01053969       0.00000000
10
Lattice="6.194539504241122 -0.013719565095172241 -0.00947316691127528 3.3876095259847627 5.1861941339991855 -0.009473166911276646 3.387609525984765 1.828642412809573 4.853119230195446" Properties=species:S:1:pos:R:3:spacegroup_kinds:I:1:forces:R:3 spacegroup="P 1" unit_cell=conventional occupancy="_JSON {\"0\": {\"In\": 1}, \"1\": {\"In\": 1}, \"2\": {\"In\": 1}, \"3\": {\"In\": 1}, \"4\": {\"O\": 1}, \"5\": {\"O\": 1}, \"6\": {\"O\": 1}, \"7\": {\"O\": 1}, \"8\": {\"O\": 1}, \"9\": {\"O\": 1}}" n_minim_iter=4 energy=-11286.871665860264 stress="0.07661965607479546 5.069969706138944e-05 3.500743128731012e-05 5.069969706138944e-05 0.07655310136826265 1.8897120603430484e-05 3.500743128731012e-05 1.8897120603430484e-05 0.07653878170790389" free_energy=-11286.871665860264 pbc="T T T"
In      11.09375789       5.98844585       4.13493771        0      -0.00686223      -0.00370425      -0.00255774
In       8.36087996       4.51322964       3.11632164        1       0.00686223       0.00370425       0.00255774
In       4.60887861       2.48788736       1.71785126        2      -0.00686223      -0.00370425      -0.00255774
In       1.87600068       1.01267115       0.69923519        3       0.00686223       0.00370425       0.00255774
O        6.33970940       2.43542833       0.20160107        4       0.00000000      -0.00774113       0.01121114
O        7.45499130       5.40824578       1.19907006        5       0.00647162      -0.01198886       0.00000000
O        8.61203702       2.27802029       2.62816069        6      -0.00647162       0.00424773       0.01121114
O        4.35772155       4.72309670       2.20601221        7       0.00647162      -0.00424773      -0.01121114
O        6.63004917       4.56568866       4.63257183        8       0.00000000       0.00774113      -0.01121114
O        5.51476727       1.59287121       3.63510284        9      -0.00647162       0.01198886      -0.00000000
10
Lattice="6.1933119395186775 -0.014990755886268923 -0.010350906289790027 3.3858732125654156 5.18586541392839 -0.010350906289791373 3.3858732125654174 1.8277051452950643 4.85312282293593" Properties=species:S:1:pos:R:3:spacegroup_kinds:I:1:forces:R:3 spacegroup="P 1" unit_cell=conventional occupancy="_JSON {\"0\": {\"In\": 1}, \"1\": {\"In\": 1}, \"2\": {\"In\": 1}, \"3\": {\"In\": 1}, \"4\": {\"O\": 1}, \"5\": {\"O\": 1}, \"6\": {\"O\": 1}, \"7\": {\"O\": 1}, \"8\": {\"O\": 1}, \"9\": {\"O\": 1}}" n_minim_iter=5 energy=-11286.87170849258 stress="0.07645910956009994 -0.0001554882401727697 -0.0001073624430040044 -0.0001554882401727697 0.07666322268719775 -5.795458872196626e-05 -0.0001073624430040044 -5.795458872196626e-05 0.07670713890266753" free_energy=-11286.87170849258 pbc="T T T"
In      11.08883389       5.98578786       4.13310240        0      -0.00057657      -0.00031123      -0.00021490
In       8.35875366       4.51208186       3.11552912        1       0.00057657       0.00031123       0.00021490
In       4.60630471       2.48649796       1.71689190        2      -0.00057657      -0.00031123      -0.00021490
In       1.87622448       1.01279195       0.69931861        3       0.00057657       0.00031123       0.00021490
O        6.33792057       2.43398766       0.20097157        4      -0.00000000      -0.00365480       0.00529308
O        7.45247709       5.40654704       1.19775435        5       0.00305543      -0.00566027       0.00000000
O        8.60923726       2.27637548       2.62753298        6      -0.00305543       0.00200547       0.00529308
O        4.35582112       4.72220433       2.20488804        7       0.00305543      -0.00200547      -0.00529308
O        6.62713781       4.56459215       4.63144945        8      -0.00000000       0.00365480      -0.00529308
O        5.51258129       1.59203278       3.63466667        9      -0.00305543       0.00566027       0.00000000
