10
Lattice="5.797792528187504 0.3316098323927552 0.228971929495093 3.458602890926215 4.6650218995973844 0.2289719294950835 3.4586028909262163 1.8669648573428712 4.28127313887664" Properties=species:S:1:pos:R:3:spacegroup_kinds:I:1:forces:R:3 spacegroup="P 1" unit_cell=conventional occupancy="_JSON {\"0\": {\"In\": 1}, \"1\": {\"In\": 1}, \"2\": {\"In\": 1}, \"3\": {\"In\": 1}, \"4\": {\"O\": 1}, \"5\": {\"O\": 1}, \"6\": {\"O\": 1}, \"7\": {\"O\": 1}, \"8\": {\"O\": 1}, \"9\": {\"O\": 1}}" n_minim_iter=4 energy=-11289.189433626585 stress="0.07509046968630735 -5.346346079294288e-06 -3.6915716564930516e-06 -5.346346079294288e-06 0.07509748795120794 -1.9927195180934958e-06 -3.6915716564930516e-06 -1.9927195180934958e-06 0.0750989979733462" free_energy=-11289.189433626585 pbc="T T T"
In      10.68477211       5.76767402       3.98249786        0       0.00071575       0.00038637       0.00026678
In       8.38772536       4.52772087       3.12632764        1      -0.00071575      -0.00038637      -0.00026678
In       4.32727296       2.33587573       1.61288937        2       0.00071575       0.00038637       0.00026678
In       2.03022621       1.09592258       0.75671914        3      -0.00071575      -0.00038637      -0.00026678
O        6.07764585       2.36585737       0.59811258        4      -0.00000000       0.00078194      -0.00113245
O        7.40219272       4.96403382       1.41377618        5      -0.00065371       0.00121101       0.00000000
O        8.21170187       2.54952100       2.73874915        6       0.00065371      -0.00042907      -0.00113245
O        4.50329645       4.31407560       2.00046785        7      -0.00065371       0.00042907       0.00113245
O        6.63735247       4.49773923       4.14110442        8      -0.00000000      -0.00078194       0.00113245
O        5.31280560       1.89956279       3.32544082        9       0.00065371      -0.00121101       0.00000000
