10
Lattice="6.293883776443566 -0.0007884734548172441 -0.0005444298409464141 3.45293235548018 5.2621508683757785 -0.0005444298409475862 3.4529323554801836 1.863903884246518 4.920985101404249" Properties=species:S:1:pos:R:3:spacegroup_kinds:I:1:forces:R:3 spacegroup="P 1" unit_cell=conventional occupancy="_JSON {\"0\": {\"In\": 1}, \"1\": {\"In\": 1}, \"2\": {\"In\": 1}, \"3\": {\"In\": 1}, \"4\": {\"O\": 1}, \"5\": {\"O\": 1}, \"6\": {\"O\": 1}, \"7\": {\"O\": 1}, \"8\": {\"O\": 1}, \"9\": {\"O\": 1}}" n_minim_iter=4 energy=-11286.594785957222 stress="0.09013702221322031 3.81541886386207e-05 2.6344931385488517e-05 3.81541886386207e-05 0.09008693629965318 1.4221080005875185e-05 2.6344931385488517e-05 1.4221080005875185e-05 0.09007615999829277" free_energy=-11286.594785957222 pbc="T T T"
In      11.27399645       6.08573920       4.20211740        0      -0.00455163      -0.00245698      -0.00169651
In       8.52562629       4.60216023       3.17772697        1       0.00455163       0.00245698       0.00169651
In       4.67412221       2.52310606       1.74216928        2      -0.00455163      -0.00245698      -0.00169651
In       1.92575205       1.03952709       0.71777885        3       0.00455163       0.00245698       0.00169651
O        6.44687902       2.48534717       0.20951479        4       0.00000000      -0.00422312       0.00611615
O        7.58444253       5.50295589       1.22942963        5       0.00353055      -0.00654044      -0.00000000
O        8.76224786       2.32634099       2.67000734        6      -0.00353055       0.00231732       0.00611615
O        4.43750064       4.79892530       2.24988890        7       0.00353055      -0.00231732      -0.00611615
O        6.75286948       4.63991913       4.71038145        8      -0.00000000       0.00422312      -0.00611615
O        5.61530597       1.62231040       3.69046661        9      -0.00353055       0.00654044       0.00000000
