10
Lattice="5.962496455814771 -0.01745511094928673 -0.012052508831751792 3.257159501183448 4.994254764261862 -0.012052508831754256 3.25715950118345 1.7582250738943381 4.674544951420477" Properties=species:S:1:pos:R:3:spacegroup_kinds:I:1:forces:R:3 spacegroup="P 1" unit_cell=conventional occupancy="_JSON {\"0\": {\"In\": 1}, \"1\": {\"In\": 1}, \"2\": {\"In\": 1}, \"3\": {\"In\": 1}, \"4\": {\"O\": 1}, \"5\": {\"O\": 1}, \"6\": {\"O\": 1}, \"7\": {\"O\": 1}, \"8\": {\"O\": 1}, \"9\": {\"O\": 1}}" n_minim_iter=4 energy=-11287.673467586974 stress="0.0071179001758168246 -5.000685144236392e-06 -3.4528966476431684e-06 -5.000685144236392e-06 0.007124464688046616 -1.8638864169662305e-06 -3.4528966476431684e-06 -1.8638864169662305e-06 0.0071258770881229335" free_energy=-11287.673467586974 pbc="T T T"
In      10.70919235       5.78085614       3.99159993        0       0.00138595       0.00074814       0.00051658
In       8.00603085       4.32168096       2.98405997        1      -0.00138595      -0.00074814      -0.00051658
In       4.47078462       2.41334378       1.66637997        2       0.00138595       0.00074814       0.00051658
In       1.76762312       0.95416860       0.65884001        3      -0.00138595      -0.00074814      -0.00051658
O        6.10045210       2.33725611       0.19750922        4       0.00000000       0.00026995      -0.00039095
O        7.17540638       5.19776217       1.15055748        5      -0.00022568       0.00041807      -0.00000000
O        8.28265732       2.19076249       2.53478170        6       0.00022568      -0.00014813      -0.00039095
O        4.19415815       4.54426225       2.11565824        7      -0.00022568       0.00014813       0.00039095
O        6.37636337       4.39776863       4.45293072        8      -0.00000000      -0.00026995       0.00039095
O        5.30140909       1.53726257       3.49988246        9       0.00022568      -0.00041807      -0.00000000
