10
Lattice="5.769013847129453 0.30434393055687 0.2101452074171023 3.4200169700644967 4.655924174737933 0.21014520741709175 3.4200169700645002 1.8461360543525014 4.279436014001049" Properties=species:S:1:pos:R:3:spacegroup_kinds:I:1:forces:R:3 spacegroup="P 1" unit_cell=conventional occupancy="_JSON {\"0\": {\"In\": 1}, \"1\": {\"In\": 1}, \"2\": {\"In\": 1}, \"3\": {\"In\": 1}, \"4\": {\"O\": 1}, \"5\": {\"O\": 1}, \"6\": {\"O\": 1}, \"7\": {\"O\": 1}, \"8\": {\"O\": 1}, \"9\": {\"O\": 1}}" n_minim_iter=7 energy=-11289.360650583112 stress="0.026115559359455268 -1.457411573892441e-05 -1.0063220274781978e-05 -1.457411573892441e-05 0.026134691147029047 -5.432162238960159e-06 -1.0063220274781978e-05 -5.432162238960159e-06 0.026138807475958606" free_energy=-11289.360650583112 pbc="T T T"
In      10.60903205       5.72678930       3.95426754        0       0.00014841       0.00008011       0.00005532
In       8.30453964       4.48281695       3.09532211        1      -0.00014841      -0.00008011      -0.00005532
In       4.30450816       2.32358722       1.60440432        2       0.00014841       0.00008011       0.00005532
In       2.00001575       1.07961487       0.74545890        3      -0.00014841      -0.00008011      -0.00005532
O        6.03676888       2.34906861       0.56268968        4      -0.00000000      -0.00019904       0.00028827
O        7.33270777       4.94881022       1.38507682        5       0.00016640      -0.00030826       0.00000000
O        8.16084695       2.50506152       2.70240769        6      -0.00016640       0.00010922       0.00028827
O        4.44820084       4.30134265       1.99731874        7       0.00016640      -0.00010922      -0.00028827
O        6.57227892       4.45733556       4.13703675        8       0.00000000       0.00019904      -0.00028827
O        5.27634003       1.85759395       3.31464962        9      -0.00016640       0.00030826      -0.00000000
