10
Lattice="5.589109328730637 0.24319026055807094 0.1679194576125898 3.2701746576509128 4.539079455108918 0.16791945761258617 3.2701746576509167 1.7652506968131572 4.185131924018333" Properties=species:S:1:pos:R:3:spacegroup_kinds:I:1:forces:R:3 spacegroup="P 1" unit_cell=conventional occupancy="_JSON {\"0\": {\"In\": 1}, \"1\": {\"In\": 1}, \"2\": {\"In\": 1}, \"3\": {\"In\": 1}, \"4\": {\"O\": 1}, \"5\": {\"O\": 1}, \"6\": {\"O\": 1}, \"7\": {\"O\": 1}, \"8\": {\"O\": 1}, \"9\": {\"O\": 1}}" n_minim_iter=7 energy=-11289.394162339051 stress="0.01627083136253085 -1.8720968324281087e-08 -1.2929110295878715e-08 -1.8720968324281087e-08 0.01627085593745338 -6.978156116983001e-09 -1.2929110295878715e-08 -6.978156116983001e-09 0.016270861226342345" free_energy=-11289.394162339051 pbc="T T T"
In      10.22701094       5.52057309       3.81187814        0       0.00014981       0.00008087       0.00005584
In       7.96717703       4.30070754       2.96957812        1      -0.00014981      -0.00008087      -0.00005584
In       4.16228162       2.24681288       1.55139272        2       0.00014981       0.00008087       0.00005584
In       1.90244771       1.02694734       0.70909270        3      -0.00014981      -0.00008087      -0.00005584
O        5.82691933       2.25712413       0.49203149        4      -0.00000000       0.00000018      -0.00000025
O        7.04513370       4.80028340       1.29816217        5      -0.00000015       0.00000027       0.00000000
O        7.87887962       2.36748105       2.58459745        6       0.00000015      -0.00000010      -0.00000025
O        4.25057903       4.18003938       1.93637339        7      -0.00000015       0.00000010       0.00000025
O        6.30253932       4.29039629       4.02893935        8      -0.00000000      -0.00000018       0.00000025
O        5.08432496       1.74723702       3.22280867        9       0.00000015      -0.00000027      -0.00000000
