10
Lattice="5.7082828754209425 0.30114007230204726 0.2079329883126688 3.3840141176957244 4.606910806625857 0.2079329883126648 3.384014117695728 1.8267015999625604 4.234385973494731" Properties=species:S:1:pos:R:3:spacegroup_kinds:I:1:forces:R:3 spacegroup="P 1" unit_cell=conventional occupancy="_JSON {\"0\": {\"In\": 1}, \"1\": {\"In\": 1}, \"2\": {\"In\": 1}, \"3\": {\"In\": 1}, \"4\": {\"O\": 1}, \"5\": {\"O\": 1}, \"6\": {\"O\": 1}, \"7\": {\"O\": 1}, \"8\": {\"O\": 1}, \"9\": {\"O\": 1}}" n_minim_iter=1 energy=-11289.35321317091 stress="-0.018553688412902582 0.010225710491876348 0.007060709394732376 0.010225710491876348 -0.031977222546567555 0.003811393423268496 0.007060709394732376 0.003811393423268496 -0.03486538004308676" free_energy=-11289.35321317091 pbc="T T T"
In      10.49734974       5.66650283       3.91264058        0       0.23578512       0.12727756       0.08788337
In       8.21711694       4.43562590       3.06273735        1      -0.23578512      -0.12727756      -0.08788337
In       4.25919418       2.29912659       1.58751460        2       0.23578512       0.12727756       0.08788337
In       1.97896138       1.06824966       0.73761138        3      -0.23578512      -0.12727756      -0.08788337
O        5.97321922       2.32433974       0.55676619        4       0.00000000       0.07155964      -0.10363664
O        7.25551564       4.89671361       1.37049598        5      -0.05982422       0.11082598       0.00000000
O        8.07493692       2.47869049       2.67395918        6       0.05982422      -0.03926634      -0.10363664
O        4.40137420       4.25606200       1.97629277        7      -0.05982422       0.03926634       0.10363664
O        6.50309190       4.41041275       4.09348576        8       0.00000000      -0.07155964       0.10363664
O        5.22079548       1.83803888       3.27975598        9       0.05982422      -0.11082598      -0.00000000
10
Lattice="5.684194756272999 0.27817670424718055 0.19207710535139028 3.3515989503148353 4.599373520630364 0.19207710535138625 3.3515989503148402 1.8092037893570756 4.2329554740455135" Properties=species:S:1:pos:R:3:spacegroup_kinds:I:1:forces:R:3 spacegroup="P 1" unit_cell=conventional occupancy="_JSON {\"0\": {\"In\": 1}, \"1\": {\"In\": 1}, \"2\": {\"In\": 1}, \"3\": {\"In\": 1}, \"4\": {\"O\": 1}, \"5\": {\"O\": 1}, \"6\": {\"O\": 1}, \"7\": {\"O\": 1}, \"8\": {\"O\": 1}, \"9\": {\"O\": 1}}" n_minim_iter=2 energy=-11289.363519980001 stress="-0.019698657151521658 -0.0017203090487195533 -0.001187849225441726 -0.0017203090487195533 -0.017440366420791647 -0.0006412047899868774 -0.001187849225441726 -0.0006412047899868774 -0.016954481020613036" free_energy=-11289.363519980001 pbc="T T T"
In      10.42343418       5.62660298       3.88509029        0       0.51053430       0.27558804       0.19028967
In       8.15765481       4.40352805       3.04057424        1      -0.51053430      -0.27558804      -0.19028967
In       4.22973786       2.28322597       1.57653545        2       0.51053430       0.27558804       0.19028967
In       1.96395848       1.06015105       0.73201940        3      -0.51053430      -0.27558804      -0.19028967
O        5.93894555       2.30288998       0.53761050        4       0.00000000       0.03800168      -0.05503613
O        7.20333600       4.87260996       1.34635453        5      -0.03176959       0.05885403      -0.00000000
O        8.02615404       2.44534554       2.65408824        6       0.03176959      -0.02085235      -0.05503613
O        4.36123862       4.24140849       1.96302145        7      -0.03176959       0.02085235       0.05503613
O        6.44844712       4.38386405       4.07949919        8       0.00000000      -0.03800168       0.05503613
O        5.18405666       1.81414407       3.27075516        9       0.03176959      -0.05885403       0.00000000
10
Lattice="5.658828474076861 0.2538508223719983 0.17528042574319005 3.317343358600171 4.591515325052644 0.17528042574318606 3.3173433586001755 1.790712511833845 4.231558212739568" Properties=species:S:1:pos:R:3:spacegroup_kinds:I:1:forces:R:3 spacegroup="P 1" unit_cell=conventional occupancy="_JSON {\"0\": {\"In\": 1}, \"1\": {\"In\": 1}, \"2\": {\"In\": 1}, \"3\": {\"In\": 1}, \"4\": {\"O\": 1}, \"5\": {\"O\": 1}, \"6\": {\"O\": 1}, \"7\": {\"O\": 1}, \"8\": {\"O\": 1}, \"9\": {\"O\": 1}}" n_minim_iter=3 energy=-11289.387251166832 stress="0.009207071270296074 0.002887317327068638 0.0019936520416452925 0.002887317327068638 0.005416820926727731 0.0010761797199043209 0.0019936520416452925 0.0010761797199043209 0.004601324807073858" free_energy=-11289.387251166832 pbc="T T T"
In      10.36167692       5.59326621       3.86207172        0      -0.08823563      -0.04762987      -0.03288776
In       8.07859588       4.36085179       3.01110688        1       0.08823563       0.04762987       0.03288776
In       4.21491932       2.27522688       1.57101219        2      -0.08823563      -0.04762987      -0.03288776
In       1.93183828       1.04281246       0.72004735        3       0.08823563       0.04762987       0.03288776
O        5.90279304       2.28175674       0.51510808        4       0.00000000       0.09395843      -0.13607580
O        7.14696370       4.84957709       1.32081019        5      -0.07854971       0.14551547       0.00000000
O        7.97596574       2.40923865       2.63088718        6       0.07854971      -0.05155704      -0.13607580
O        4.31754947       4.22684002       1.95123189        7      -0.07854971       0.05155704       0.13607580
O        6.39072216       4.35432193       4.06701099        8       0.00000000      -0.09395843       0.13607580
O        5.14655150       1.78650158       3.26130887        9       0.07854971      -0.14551547      -0.00000000
10
Lattice="5.641749699140161 0.2373873183091325 0.16391260753248055 3.294208290215804 4.586271268396094 0.16391260753247683 3.2942082902158085 1.77822412822694 4.2306820301241155" Properties=species:S:1:pos:R:3:spacegroup_kinds:I:1:forces:R:3 spacegroup="P 1" unit_cell=conventional occupancy="_JSON {\"0\": {\"In\": 1}, \"1\": {\"In\": 1}, \"2\": {\"In\": 1}, \"3\": {\"In\": 1}, \"4\": {\"O\": 1}, \"5\": {\"O\": 1}, \"6\": {\"O\": 1}, \"7\": {\"O\": 1}, \"8\": {\"O\": 1}, \"9\": {\"O\": 1}}" n_minim_iter=4 energy=-11289.391576973854 stress="0.01732510736115779 -0.002798039944012472 -0.0019320072596520162 -0.002798039944012472 0.020998161159278803 -0.0010429036744094876 -0.0019320072596520162 -0.0010429036744094876 0.02178844169724291" free_energy=-11289.391576973854 pbc="T T T"
In      10.31159002       5.56622914       3.84340300        0       0.06178111       0.03334964       0.02302746
In       8.03365941       4.33659494       2.99435787        1      -0.06178111      -0.03334964      -0.02302746
In       4.19650688       2.26528778       1.56414938        2       0.06178111       0.03334964       0.02302746
In       1.91857627       1.03565359       0.71510425        3      -0.06178111      -0.03334964      -0.02302746
O        5.87841642       2.26988162       0.49641661        4       0.00000000       0.03927947      -0.05688670
O        7.10691843       4.83777177       1.30353942        5      -0.03283783       0.06083297       0.00000000
O        7.94412271       2.38352190       2.61175763        6       0.03283783      -0.02155350      -0.05688670
O        4.28604358       4.21836083       1.94674962        7      -0.03283783       0.02155350       0.05688670
O        6.35174986       4.33200110       4.06209064        8      -0.00000000      -0.03927947       0.05688670
O        5.12324786       1.76411096       3.25496783        9       0.03283783      -0.06083297       0.00000000
10
Lattice="5.647140913737965 0.24259181759603776 0.16750624115660995 3.301517554792451 4.587922528222887 0.16750624115660623 3.3015175547924556 1.782169692527896 4.2309529249137805" Properties=species:S:1:pos:R:3:spacegroup_kinds:I:1:forces:R:3 spacegroup="P 1" unit_cell=conventional occupancy="_JSON {\"0\": {\"In\": 1}, \"1\": {\"In\": 1}, \"2\": {\"In\": 1}, \"3\": {\"In\": 1}, \"4\": {\"O\": 1}, \"5\": {\"O\": 1}, \"6\": {\"O\": 1}, \"7\": {\"O\": 1}, \"8\": {\"O\": 1}, \"9\": {\"O\": 1}}" n_minim_iter=5 energy=-11289.393941181634 stress="0.019684345233464278 0.00035917231029529683 0.0002480034350307831 0.00035917231029529683 0.019212851173445882 0.00013387304118783248 0.0002480034350307831 0.00013387304118783248 0.019111406267837968" free_energy=-11289.393941181634 pbc="T T T"
In      10.33047299       5.57642223       3.85044119        0      -0.05192705      -0.02803039      -0.01935459
In       8.04479106       4.34260384       2.99850693        1       0.05192705       0.02803039       0.01935459
In       4.20538497       2.27008021       1.56745848        2      -0.05192705      -0.02803039      -0.01935459
In       1.91970305       1.03626182       0.71552423        3       0.05192705       0.02803039       0.01935459
O        5.88611447       2.27860996       0.49511660        4      -0.00000000       0.00966211      -0.01399320
O        7.11540715       4.84920552       1.30899760        5      -0.00807757       0.01496392      -0.00000000
O        7.95833934       2.38891747       2.61059307        6       0.00807757      -0.00530181      -0.01399320
O        4.29183670       4.22376658       1.95537235        7      -0.00807757       0.00530181       0.01399320
O        6.36406157       4.33407409       4.07084881        8       0.00000000      -0.00966211       0.01399320
O        5.13476888       1.76347853       3.25696782        9       0.00807757      -0.01496392      -0.00000000
10
Lattice="5.649555488140311 0.2449205148227776 0.1691141738688853 3.3047892870068485 4.588663317420677 0.16911417386888156 3.3047892870068534 1.7839357839988021 4.231075958076623" Properties=species:S:1:pos:R:3:spacegroup_kinds:I:1:forces:R:3 spacegroup="P 1" unit_cell=conventional occupancy="_JSON {\"0\": {\"In\": 1}, \"1\": {\"In\": 1}, \"2\": {\"In\": 1}, \"3\": {\"In\": 1}, \"4\": {\"O\": 1}, \"5\": {\"O\": 1}, \"6\": {\"O\": 1}, \"7\": {\"O\": 1}, \"8\": {\"O\": 1}, \"9\": {\"O\": 1}}" n_minim_iter=6 energy=-11289.394149645588 stress="0.017144759658395174 3.0272225126823824e-05 2.090254841996865e-05 3.0272225126823824e-05 0.017105020582538558 1.1283262014462368e-05 2.090254841996865e-05 1.1283262014462368e-05 0.017096470474490227" free_energy=-11289.394149645588 pbc="T T T"
In      10.33677535       5.57982427       3.85279025        0      -0.01090969      -0.00588908      -0.00406633
In       8.05192575       4.34645517       3.00116622        1       0.01090969       0.00588909       0.00406633
In       4.20720832       2.27106446       1.56813809        2      -0.01090969      -0.00588908      -0.00406633
In       1.92235872       1.03769536       0.71651406        3       0.01090969       0.00588908       0.00406633
O        5.88956126       2.28100365       0.49672568        4      -0.00000000       0.00194854      -0.00282199
O        7.12047272       4.85198083       1.31144025        5      -0.00162899       0.00301775      -0.00000000
O        7.96343909       2.39216254       2.61226366        6       0.00162899      -0.00106921      -0.00282199
O        4.29569498       4.22535709       1.95704065        7      -0.00162899       0.00106921       0.00282199
O        6.36957281       4.33651598       4.07257863        8       0.00000000      -0.00194854       0.00282199
O        5.13866135       1.76553880       3.25786406        9       0.00162899      -0.00301775       0.00000000
10
Lattice="5.650533030834421 0.24586289500490022 0.16976487414234073 3.3061135205688994 4.588963443393565 0.16976487414233704 3.3061135205689034 1.7846506094937296 4.231126067529624" Properties=species:S:1:pos:R:3:spacegroup_kinds:I:1:forces:R:3 spacegroup="P 1" unit_cell=conventional occupancy="_JSON {\"0\": {\"In\": 1}, \"1\": {\"In\": 1}, \"2\": {\"In\": 1}, \"3\": {\"In\": 1}, \"4\": {\"O\": 1}, \"5\": {\"O\": 1}, \"6\": {\"O\": 1}, \"7\": {\"O\": 1}, \"8\": {\"O\": 1}, \"9\": {\"O\": 1}}" n_minim_iter=7 energy=-11289.394162339051 stress="0.01627083136253085 -1.8720968324281087e-08 -1.2929110295878715e-08 -1.8720968324281087e-08 0.01627085593745338 -6.978156116983001e-09 -1.2929110295878715e-08 -6.978156116983001e-09 0.016270861226342345" free_energy=-11289.394162339051 pbc="T T T"
In      10.33940468       5.58124358       3.85377027        0       0.00014981       0.00008087       0.00005584
In       8.05473544       4.34797185       3.00221346        1      -0.00014981      -0.00008087      -0.00005584
In       4.20802464       2.27150511       1.56844236        2       0.00014981       0.00008087       0.00005584
In       1.92335540       1.03823338       0.71688556        3      -0.00014981      -0.00008087      -0.00005584
O        5.89095654       2.28192968       0.49743886        4      -0.00000000       0.00000018      -0.00000025
O        7.12255895       4.85303799       1.31242883        5      -0.00000015       0.00000027       0.00000000
O        7.96546765       2.39349940       2.61300190        6       0.00000015      -0.00000010      -0.00000025
O        4.29729243       4.22597755       1.95765392        7      -0.00000015       0.00000010       0.00000025
O        6.37180354       4.33754728       4.07321696        8      -0.00000000      -0.00000018       0.00000025
O        5.14020113       1.76643897       3.25822699        9       0.00000015      -0.00000027      -0.00000000
