10
Lattice="5.813892557107485 0.08350932494092775 0.057662015401002416 3.26002406735844 4.814619772441604 0.05766201540100549 3.2600240673584473 1.7597713758402067 4.481862689326749" Properties=species:S:1:pos:R:3:spacegroup_kinds:I:1:forces:R:3 spacegroup="P 1" unit_cell=conventional occupancy="_JSON {\"0\": {\"In\": 1}, \"1\": {\"In\": 1}, \"2\": {\"In\": 1}, \"3\": {\"In\": 1}, \"4\": {\"O\": 1}, \"5\": {\"O\": 1}, \"6\": {\"O\": 1}, \"7\": {\"O\": 1}, \"8\": {\"O\": 1}, \"9\": {\"O\": 1}}" n_minim_iter=5 energy=-11287.640350969223 stress="0.00174258703536488 -4.568406744060065e-05 -3.1544205330054434e-05 -4.568406744060065e-05 0.0018025576078368442 -1.7027663407283218e-05 -3.1544205330054434e-05 -1.7027663407283218e-05 0.0018154606465530954" free_energy=-11287.640350969223 pbc="T T T"
In      10.53300483       5.68574956       3.92593018        0       0.00120513       0.00065054       0.00044919
In       7.96790621       4.30110116       2.96984991        1      -0.00120513      -0.00065054      -0.00044919
In       4.36603449       2.35679933       1.62733682        2       0.00120513       0.00065054       0.00044919
In       1.80093587       0.97215092       0.67125655        3      -0.00120513      -0.00065054      -0.00044919
O        5.99043146       2.31118857       0.30199287        4       0.00000000       0.00270570      -0.00391854
O        7.11469493       5.05045255       1.20695870        5      -0.00226198       0.00419037      -0.00000000
O        8.12619205       2.25416138       2.54292422        6       0.00226198      -0.00148468      -0.00391854
O        4.20774865       4.40373911       2.05426251        7      -0.00226198       0.00148468       0.00391854
O        6.34350925       4.34671192       4.29519385        8      -0.00000000      -0.00270570       0.00391854
O        5.21924577       1.60744793       3.39022803        9       0.00226198      -0.00419037      -0.00000000
