10
Lattice="5.87940641 8.881784197001252e-16 1.3322676295501878e-15 3.226158737651724 4.915213071009489 1.5543122344752192e-15 3.226158737651723 1.741490762991984 4.596360457561627" Properties=species:S:1:pos:R:3:spacegroup_kinds:I:1:forces:R:3 spacegroup="P 1" unit_cell=conventional occupancy="_JSON {\"0\": {\"In\": 1}, \"1\": {\"In\": 1}, \"2\": {\"In\": 1}, \"3\": {\"In\": 1}, \"4\": {\"O\": 1}, \"5\": {\"O\": 1}, \"6\": {\"O\": 1}, \"7\": {\"O\": 1}, \"8\": {\"O\": 1}, \"9\": {\"O\": 1}}" n_minim_iter=1 energy=-11287.683880463319 stress="0.0020702844296526966 -0.0008828978857617359 -0.000609628582700495 -0.0008828978857617359 0.003229285549712034 -0.0003290794511130539 -0.000609628582700495 -0.0003290794511130539 0.003478651902608915" free_energy=-11287.683880463319 pbc="T T T"
In      10.57093869       5.70622638       3.94006913        0       0.00284094       0.00153355       0.00105889
In       7.92664715       4.27882938       2.95447156        1      -0.00284094      -0.00153355      -0.00105889
In       4.40507675       2.37787446       1.64188890        2       0.00284094       0.00153355       0.00105889
In       1.76078520       0.95047747       0.65629133        3      -0.00284094      -0.00153355      -0.00105889
O        6.02263418       2.30932706       0.21474656        4       0.00000000       0.00878816      -0.01272750
O        7.09636402       5.12094210       1.14909012        5      -0.00734695       0.01361042      -0.00000000
O        8.17506308       2.18091285       2.51292679        6       0.00734695      -0.00482226      -0.01272750
O        4.15666081       4.47579100       2.08343367        7      -0.00734695       0.00482226       0.01272750
O        6.30908971       4.34737678       4.38161390        8      -0.00000000      -0.00878816       0.01272750
O        5.23535988       1.53576175       3.44727035        9       0.00734695      -0.01361042       0.00000000
10
Lattice="5.875281232828819 0.0017585023905989296 0.0012142211902828 3.225365279585692 4.910799473650326 0.0012142211902830145 3.225365279585691 1.7410624518005078 4.5918029665554885" Properties=species:S:1:pos:R:3:spacegroup_kinds:I:1:forces:R:3 spacegroup="P 1" unit_cell=conventional occupancy="_JSON {\"0\": {\"In\": 1}, \"1\": {\"In\": 1}, \"2\": {\"In\": 1}, \"3\": {\"In\": 1}, \"4\": {\"O\": 1}, \"5\": {\"O\": 1}, \"6\": {\"O\": 1}, \"7\": {\"O\": 1}, \"8\": {\"O\": 1}, \"9\": {\"O\": 1}}" n_minim_iter=2 energy=-11287.684549947395 stress="-0.0006918527818077715 -0.0004904533250091126 -0.0003386511302345104 -0.0004904533250091126 -4.802299947559902e-05 -0.00018280495891891452 -0.0003386511302345104 -0.00018280495891891452 9.05010122659021e-05" free_energy=-11287.684549947395 pbc="T T T"
In      10.56604945       5.70358715       3.93824678        0       0.00105573       0.00056989       0.00039350
In       7.92296825       4.27684350       2.95310034        1      -0.00105573      -0.00056989      -0.00039350
In       4.40304355       2.37677694       1.64113107        2       0.00105573       0.00056989       0.00039350
In       1.75996236       0.95003329       0.65598463        3      -0.00105573      -0.00056989      -0.00039350
O        6.01914357       2.30864774       0.21596223        4      -0.00000000       0.01337180      -0.01936578
O        7.09313521       5.11762374       1.14977208        5      -0.01117889       0.02070919       0.00000000
O        8.17051720       2.18123933       2.51186371        6       0.01117889      -0.00733740      -0.01936578
O        4.15549460       4.47238111       2.08236770        7      -0.01117889       0.00733740       0.01936578
O        6.30686823       4.34497270       4.37826918        8       0.00000000      -0.01337180       0.01936578
O        5.23287659       1.53599670       3.44445934        9       0.01117889      -0.02070919      -0.00000000
10
Lattice="5.879290759277698 0.0052645686307430245 0.0036351106619573964 3.2304964831961405 4.912227602612523 0.0036351106619576085 3.2304964831961405 1.7438322918540476 4.5922807156994345" Properties=species:S:1:pos:R:3:spacegroup_kinds:I:1:forces:R:3 spacegroup="P 1" unit_cell=conventional occupancy="_JSON {\"0\": {\"In\": 1}, \"1\": {\"In\": 1}, \"2\": {\"In\": 1}, \"3\": {\"In\": 1}, \"4\": {\"O\": 1}, \"5\": {\"O\": 1}, \"6\": {\"O\": 1}, \"7\": {\"O\": 1}, \"8\": {\"O\": 1}, \"9\": {\"O\": 1}}" n_minim_iter=3 energy=-11287.684659568358 stress="9.059061797408293e-05 6.488054312571579e-05 4.479910190204447e-05 6.488054312571579e-05 5.420381631909877e-06 2.4182698413859277e-05 4.479910190204447e-05 2.4182698413859277e-05 -1.2904528145705613e-05" free_energy=-11287.684659568358 pbc="T T T"
In      10.57829361       5.71019659       3.94281050        0      -0.00629843      -0.00339991      -0.00234759
In       7.93213199       4.28179012       2.95651591        1       0.00629843       0.00339991       0.00234759
In       4.40815175       2.37953436       1.64303503        2      -0.00629843      -0.00339991      -0.00234759
In       1.76199013       0.95112789       0.65674044        3       0.00629843       0.00339991       0.00234759
O        6.02471632       2.31217092       0.21872828        4      -0.00000000       0.01173890      -0.01700092
O        7.10140386       5.12177546       1.15352285        5      -0.00981377       0.01818028      -0.00000000
O        8.17852525       2.18638881       2.51486863        6       0.00981377      -0.00644139      -0.01700092
O        4.16175848       4.47493566       2.08468231        7      -0.00981377       0.00644139       0.01700092
O        6.31556742       4.34915355       4.38082266        8       0.00000000      -0.01173890       0.01700092
O        5.23887988       1.53954901       3.44602809        9       0.00981377      -0.01818028       0.00000000
10
Lattice="5.878741287223209 0.005231214250941104 0.0036120799313989972 3.2301670914483673 4.911786543512383 0.0036120799313992136 3.2301670914483656 1.743654485139375 4.591876428281152" Properties=species:S:1:pos:R:3:spacegroup_kinds:I:1:forces:R:3 spacegroup="P 1" unit_cell=conventional occupancy="_JSON {\"0\": {\"In\": 1}, \"1\": {\"In\": 1}, \"2\": {\"In\": 1}, \"3\": {\"In\": 1}, \"4\": {\"O\": 1}, \"5\": {\"O\": 1}, \"6\": {\"O\": 1}, \"7\": {\"O\": 1}, \"8\": {\"O\": 1}, \"9\": {\"O\": 1}}" n_minim_iter=4 energy=-11287.684771021655 stress="-4.1206730432936905e-05 8.93246196646436e-06 6.167739536169759e-06 8.93246196646436e-06 -5.293258564916334e-05 3.329364808381568e-06 6.167739536169759e-06 3.329364808381568e-06 -5.545547949070225e-05" free_energy=-11287.684771021655 pbc="T T T"
In      10.57682323       5.70940287       3.94226245        0       0.00287361       0.00155118       0.00107107
In       7.93178998       4.28160550       2.95638843        1      -0.00287361      -0.00155118      -0.00107107
In       4.40728550       2.37906675       1.64271216        2       0.00287361       0.00155118       0.00107107
In       1.76225225       0.95126938       0.65683814        3      -0.00287361      -0.00155118      -0.00107107
O        6.02413952       2.31288234       0.21731357        4       0.00000000       0.00049857      -0.00072205
O        7.09991736       5.12275534       1.15338723        5      -0.00041681       0.00077214       0.00000000
O        8.17852876       2.18563119       2.51325178        6       0.00041681      -0.00027358      -0.00072205
O        4.16054672       4.47504107       2.08584881        7      -0.00041681       0.00027358       0.00072205
O        6.31493596       4.34778992       4.38178702        8       0.00000000      -0.00049857       0.00072205
O        5.23915812       1.53791692       3.44571336        9       0.00041681      -0.00077214       0.00000000
