10
Lattice="6.138692251578189 0.07702995201204965 0.05318809944159075 3.4328319671599004 5.08970930980721 0.05318809944158698 3.4328319671598955 1.8530536306046865 4.740692151401863" Properties=species:S:1:pos:R:3:spacegroup_kinds:I:1:forces:R:3 spacegroup="P 1" unit_cell=conventional occupancy="_JSON {\"0\": {\"In\": 1}, \"1\": {\"In\": 1}, \"2\": {\"In\": 1}, \"3\": {\"In\": 1}, \"4\": {\"O\": 1}, \"5\": {\"O\": 1}, \"6\": {\"O\": 1}, \"7\": {\"O\": 1}, \"8\": {\"O\": 1}, \"9\": {\"O\": 1}}" n_minim_iter=1 energy=-11287.173606929251 stress="0.07070439301962252 -0.00037829895320452936 -0.0002612101124164928 -0.00037829895320452936 0.07120099508101035 -0.0001410020501452362 -0.0002612101124164928 -0.0001410020501452362 0.07130784212665761" free_energy=-11287.173606929251 pbc="T T T"
In      11.09263188       5.98783803       4.13451801        0      -0.05586696      -0.03015716      -0.02082310
In       8.41390241       4.54185132       3.13608452        1       0.05586696       0.03015716       0.02082310
In       4.59045379       2.47794158       1.71098384        2      -0.05586696      -0.03015716      -0.02082310
In       1.91172432       1.03195488       0.71255034        3       0.05586696       0.03015716       0.02082310
O        6.32043518       2.44157751       0.29972610        4       0.00000000       0.00245134      -0.00355016
O        7.49502437       5.34206664       1.26495519        5      -0.00204933       0.00379644       0.00000000
O        8.57867795       2.36435554       2.67007218        6       0.00204933      -0.00134510      -0.00355016
O        4.42567825       4.65543736       2.17699617        7      -0.00204933       0.00134510       0.00355016
O        6.68392102       4.57821540       4.54734225        8       0.00000000      -0.00245134       0.00355016
O        5.50933182       1.67772627       3.58211317        9       0.00204933      -0.00379644       0.00000000
10
Lattice="6.15219504538082 0.09066077840265013 0.06259999352430862 3.4516366839191908 5.093518180528289 0.06259999352430483 3.4516366839191837 1.8632044766107392 4.740919245557679" Properties=species:S:1:pos:R:3:spacegroup_kinds:I:1:forces:R:3 spacegroup="P 1" unit_cell=conventional occupancy="_JSON {\"0\": {\"In\": 1}, \"1\": {\"In\": 1}, \"2\": {\"In\": 1}, \"3\": {\"In\": 1}, \"4\": {\"O\": 1}, \"5\": {\"O\": 1}, \"6\": {\"O\": 1}, \"7\": {\"O\": 1}, \"8\": {\"O\": 1}, \"9\": {\"O\": 1}}" n_minim_iter=2 energy=-11287.174248074194 stress="0.07149512200611045 0.0006224943249262265 0.00042982358473694893 0.0006224943249262265 0.0706779588529756 0.0002320201396582144 0.00042982358473694893 0.0002320201396582144 0.07050214107951895" free_energy=-11287.174248074194 pbc="T T T"
In      11.13397036       6.01015267       4.14992596        0      -0.07047374      -0.03804195      -0.02626743
In       8.44923227       4.56092250       3.14925289        1       0.07047374       0.03804195       0.02626743
In       4.60623615       2.48646095       1.71686635        2      -0.07047374      -0.03804195      -0.02626743
In       1.92149806       1.03723078       0.71619328        3       0.07047374       0.03804195       0.02626743
O        6.33996463       2.45411921       0.31089119        4       0.00000000       0.00065525      -0.00094898
O        7.52493544       5.35587003       1.27912980        5      -0.00054780       0.00101481       0.00000000
O        8.60663051       2.38378676       2.68135081        6       0.00054780      -0.00035955      -0.00094898
O        4.44883792       4.66359669       2.18476843        7      -0.00054780       0.00035955       0.00094898
O        6.71550379       4.59326424       4.55522805        8       0.00000000      -0.00065525       0.00094898
O        5.53053298       1.69151342       3.58698943        9       0.00054780      -0.00101481      -0.00000000
10
Lattice="6.160422505339619 0.09894328786501586 0.06831894992248051 3.4630754901378857 5.095851584192248 0.0683189499224767 3.4630754901378786 1.8693791806440603 4.741075017968787" Properties=species:S:1:pos:R:3:spacegroup_kinds:I:1:forces:R:3 spacegroup="P 1" unit_cell=conventional occupancy="_JSON {\"0\": {\"In\": 1}, \"1\": {\"In\": 1}, \"2\": {\"In\": 1}, \"3\": {\"In\": 1}, \"4\": {\"O\": 1}, \"5\": {\"O\": 1}, \"6\": {\"O\": 1}, \"7\": {\"O\": 1}, \"8\": {\"O\": 1}, \"9\": {\"O\": 1}}" n_minim_iter=3 energy=-11287.176704831298 stress="0.06991719335748899 0.00012750602479108452 8.80411185016606e-05 0.00012750602479108452 0.06974981315711891 4.752487584894391e-05 8.80411185016606e-05 4.752487584894391e-05 0.06971380025880859" free_energy=-11287.176704831298 pbc="T T T"
In      11.14769577       6.01756169       4.15504179        0      -0.00594799      -0.00321074      -0.00221697
In       8.48216446       4.57869940       3.16152759        1       0.00594799       0.00321074       0.00221697
In       4.60440903       2.48547467       1.71618533        2      -0.00594799      -0.00321074      -0.00221697
In       1.93887772       1.04661237       0.72267113        3       0.00594799       0.00321074       0.00221697
O        6.35185463       2.46207472       0.31720433        4       0.00000000      -0.01221409       0.01768912
O        7.54286536       5.36478187       1.28774718        5       0.01021104      -0.01891622      -0.00000000
O        8.62391939       2.39542340       2.68774184        6      -0.01021104       0.00670214       0.01768912
O        4.46265411       4.66875067       2.18997108        7       0.01021104      -0.00670214      -0.01768912
O        6.73471887       4.60209934       4.56050859        8       0.00000000       0.01221409      -0.01768912
O        5.54370814       1.69939219       3.58996574        9      -0.01021104       0.01891622       0.00000000
10
Lattice="6.158610231866158 0.09712037126460174 0.06706025162546778 3.460557088726145 5.095336788694966 0.06706025162546393 3.4605570887261385 1.8680197395400426 4.741039582229324" Properties=species:S:1:pos:R:3:spacegroup_kinds:I:1:forces:R:3 spacegroup="P 1" unit_cell=conventional occupancy="_JSON {\"0\": {\"In\": 1}, \"1\": {\"In\": 1}, \"2\": {\"In\": 1}, \"3\": {\"In\": 1}, \"4\": {\"O\": 1}, \"5\": {\"O\": 1}, \"6\": {\"O\": 1}, \"7\": {\"O\": 1}, \"8\": {\"O\": 1}, \"9\": {\"O\": 1}}" n_minim_iter=4 energy=-11287.176778128473 stress="0.0695386408753618 -0.00016465076812253603 -0.0001136890437374787 -0.00016465076812253603 0.06975478186860763 -6.136970722234021e-05 -0.0001136890437374787 -6.136970722234021e-05 0.06980128595681563" free_energy=-11287.176778128473 pbc="T T T"
In      11.14060684       6.01373506       4.15239956        0       0.00444218       0.00239790       0.00165572
In       8.47897978       4.57698030       3.16034058        1      -0.00444218      -0.00239790      -0.00165572
In       4.60074464       2.48349661       1.71481951        2       0.00444218       0.00239790       0.00165572
In       1.93911758       1.04674185       0.72276054        3      -0.00444218      -0.00239790      -0.00165572
O        6.34923622       2.46006353       0.31619087        4      -0.00000000      -0.01017066       0.01472971
O        7.53913443       5.36241701       1.28585028        5       0.00850272      -0.01575152      -0.00000000
O        8.61989511       2.39300420       2.68671066        6      -0.00850272       0.00558086       0.01472971
O        4.45982931       4.66747271       2.18844943        7       0.00850272      -0.00558086      -0.01472971
O        6.73048820       4.60041338       4.55896922        8       0.00000000       0.01017066      -0.01472971
O        5.54058999       1.69805990       3.58930981        9      -0.00850272       0.01575152      -0.00000000
10
Lattice="6.161209661382695 0.09973480660097542 0.0688654824872615 3.464169133464237 5.0960753269468855 0.06886548248725757 3.464169133464229 1.8699695327952484 4.74109060649684" Properties=species:S:1:pos:R:3:spacegroup_kinds:I:1:forces:R:3 spacegroup="P 1" unit_cell=conventional occupancy="_JSON {\"0\": {\"In\": 1}, \"1\": {\"In\": 1}, \"2\": {\"In\": 1}, \"3\": {\"In\": 1}, \"4\": {\"O\": 1}, \"5\": {\"O\": 1}, \"6\": {\"O\": 1}, \"7\": {\"O\": 1}, \"8\": {\"O\": 1}, \"9\": {\"O\": 1}}" n_minim_iter=5 energy=-11287.176900299964 stress="0.06977303840967551 2.64330791796981e-05 1.8251668197314803e-05 2.64330791796981e-05 0.06973833907521164 9.852309288979463e-06 1.8251668197314803e-05 9.852309288979463e-06 0.06973087329731219" free_energy=-11287.176900299964 pbc="T T T"
In      11.14827327       6.01787343       4.15525704        0       0.00132961       0.00071773       0.00049558
In       8.48604863       4.58079608       3.16297533        1      -0.00132961      -0.00071773      -0.00049558
In       4.60349931       2.48498359       1.71584625        2       0.00132961       0.00071773       0.00049558
In       1.94127467       1.04790625       0.72356454        3      -0.00132961      -0.00071773      -0.00049558
O        6.35299182       2.46131956       0.32000293        4      -0.00000000      -0.00061395       0.00088915
O        7.54584712       5.36328678       1.28857088        5       0.00051326      -0.00095084      -0.00000000
O        8.62430565       2.39736753       2.69054824        6      -0.00051326       0.00033689       0.00088915
O        4.46524229       4.66841214       2.18827334        7       0.00051326      -0.00033689      -0.00088915
O        6.73655612       4.60446012       4.55881864        8       0.00000000       0.00061395      -0.00088915
O        5.54370082       1.70249290       3.59025070        9      -0.00051326       0.00095084       0.00000000
