10
Lattice="6.287514359470719 0.09122403076008068 0.06298891136230678 3.5263602295013383 5.206336732879452 0.06298891136229656 3.5263602295013348 1.903540484535782 4.84628139946679" Properties=species:S:1:pos:R:3:spacegroup_kinds:I:1:forces:R:3 spacegroup="P 1" unit_cell=conventional occupancy="_JSON {\"0\": {\"In\": 1}, \"1\": {\"In\": 1}, \"2\": {\"In\": 1}, \"3\": {\"In\": 1}, \"4\": {\"O\": 1}, \"5\": {\"O\": 1}, \"6\": {\"O\": 1}, \"7\": {\"O\": 1}, \"8\": {\"O\": 1}, \"9\": {\"O\": 1}}" n_minim_iter=1 energy=-11286.315153215312 stress="0.10277970279374575 0.000686868342782192 0.00047427293894904344 0.000686868342782192 0.10187803433243924 0.0002560140432392714 0.00047427293894904344 0.0002560140432392714 0.10168403471152464" free_energy=-11286.315153215312 pbc="T T T"
In      11.35190712       6.12779562       4.23115677        0      -0.04205387      -0.02270081      -0.01567459
In       8.65844512       4.67385626       3.22723207        1       0.04205387       0.02270081       0.01567459
In       4.68178971       2.52724500       1.74502716        2      -0.04205387      -0.02270081      -0.01567459
In       1.98832771       1.07330564       0.74110246        3       0.04205387       0.02270081       0.01567459
O        6.47881589       2.51086104       0.31150751        4      -0.00000000       0.03743691      -0.05421821
O        7.68607467       5.47891501       1.30605372        5      -0.03129745       0.05797937       0.00000000
O        8.79791734       2.43277198       2.73464821        6       0.03129745      -0.02054245      -0.05421821
O        4.54231749       4.76832928       2.23761102        7      -0.03129745       0.02054245       0.05421821
O        6.86141894       4.69024022       4.66075172        8       0.00000000      -0.03743691       0.05421821
O        5.65416016       1.72218625       3.66620551        9       0.03129745      -0.05797937      -0.00000000
10
Lattice="6.278020418618811 0.08164179093279701 0.056372509410933865 3.513139896484295 5.2036577353196245 0.05637250941092363 3.513139896484291 1.8964041066619464 4.846120422606598" Properties=species:S:1:pos:R:3:spacegroup_kinds:I:1:forces:R:3 spacegroup="P 1" unit_cell=conventional occupancy="_JSON {\"0\": {\"In\": 1}, \"1\": {\"In\": 1}, \"2\": {\"In\": 1}, \"3\": {\"In\": 1}, \"4\": {\"O\": 1}, \"5\": {\"O\": 1}, \"6\": {\"O\": 1}, \"7\": {\"O\": 1}, \"8\": {\"O\": 1}, \"9\": {\"O\": 1}}" n_minim_iter=2 energy=-11286.315858862132 stress="0.10141997507146115 -0.0002666010694069559 -0.0001840842920092863 -0.0002666010694069559 0.10176994865499026 -9.936928691543958e-05 -0.0001840842920092863 -9.936928691543958e-05 0.10184524766604318" free_energy=-11286.315858862132 pbc="T T T"
In      11.32072932       6.11096575       4.21953598        0      -0.02851112      -0.01539039      -0.01062685
In       8.63572101       4.66158971       3.21876219        1       0.02851112       0.01539039       0.01062685
In       4.66857921       2.52011393       1.74010326        2      -0.02851112      -0.01539039      -0.01062685
In       1.98357090       1.07073790       0.73932947        3       0.02851112       0.01539039       0.01062685
O        6.46508527       2.50265348       0.30277556        4       0.00000000       0.03301263      -0.04781072
O        7.66453591       5.47015425       1.29608887        5      -0.02759872       0.05112738       0.00000000
O        8.77877452       2.41877696       2.72583577        6       0.02759872      -0.01811475      -0.04781072
O        4.52552570       4.76292668       2.23302968        7      -0.02759872       0.01811475       0.04781072
O        6.83921495       4.67905016       4.65608989        8       0.00000000      -0.03301263       0.04781072
O        5.63976431       1.71154939       3.66277657        9       0.02759872      -0.05112738       0.00000000
10
Lattice="6.27749670546694 0.08111254353969607 0.056007071522967265 3.512410070177681 5.203510318120088 0.05600707152295707 3.512410070177676 1.8960101440968915 4.846112045374569" Properties=species:S:1:pos:R:3:spacegroup_kinds:I:1:forces:R:3 spacegroup="P 1" unit_cell=conventional occupancy="_JSON {\"0\": {\"In\": 1}, \"1\": {\"In\": 1}, \"2\": {\"In\": 1}, \"3\": {\"In\": 1}, \"4\": {\"O\": 1}, \"5\": {\"O\": 1}, \"6\": {\"O\": 1}, \"7\": {\"O\": 1}, \"8\": {\"O\": 1}, \"9\": {\"O\": 1}}" n_minim_iter=3 energy=-11286.317306266596 stress="0.10006657697352159 -0.0004695415384753773 -0.00032421183308281565 -0.0004695415384753773 0.10068295535536442 -0.0001750105810223157 -0.00032421183308281565 -0.0001750105810223157 0.1008155730264608" free_energy=-11286.317306266596 pbc="T T T"
In      11.31547392       6.10812887       4.21757715        0      -0.00079875      -0.00043117      -0.00029772
In       8.63800136       4.66282065       3.21961214        1       0.00079875       0.00043117       0.00029772
In       4.66431549       2.51781236       1.73851406        2      -0.00079875      -0.00043117      -0.00029772
In       1.98684294       1.07250415       0.74054904        3       0.00079875       0.00043117       0.00029772
O        6.46432757       2.50597476       0.29682709        4      -0.00000000       0.00017233      -0.00024958
O        7.66019171       5.47551635       1.29553862        5      -0.00014407       0.00026689       0.00000000
O        8.78087350       2.41593317       2.71988312        6       0.00014407      -0.00009456      -0.00024958
O        4.52144336       4.76469985       2.23824308        7      -0.00014407       0.00009456       0.00024958
O        6.83798929       4.67465826       4.66129910        8      -0.00000000      -0.00017233       0.00024958
O        5.64212514       1.70511667       3.66258757        9       0.00014407      -0.00026689       0.00000000
