10
Lattice="5.565808906324186 -0.05422715564706326 -0.037443088975819716 3.0087467641137895 4.682799619411661 -0.0374430889758115 3.008746764113789 1.624131087145479 4.3922901170393684" Properties=species:S:1:pos:R:3:spacegroup_kinds:I:1:forces:R:3 spacegroup="P 1" unit_cell=conventional occupancy="_JSON {\"0\": {\"In\": 1}, \"1\": {\"In\": 1}, \"2\": {\"In\": 1}, \"3\": {\"In\": 1}, \"4\": {\"O\": 1}, \"5\": {\"O\": 1}, \"6\": {\"O\": 1}, \"7\": {\"O\": 1}, \"8\": {\"O\": 1}, \"9\": {\"O\": 1}}" n_minim_iter=1 energy=-11286.463921322105 stress="-0.1631437073646684 0.003281264617155904 0.00226566711014056 0.003281264617155904 -0.1674511017214884 0.0012230143232341405 0.00226566711014056 0.0012230143232341405 -0.16837786461127272" free_energy=-11286.463921322105 pbc="T T T"
In       9.96933395       5.38147822       3.71583509        0       0.01705594       0.00920685       0.00635720
In       7.40561971       3.99757711       2.76027082        1      -0.01705594      -0.00920685      -0.00635720
In       4.17768273       2.25512645       1.55713312        2       0.01705594       0.00920685       0.00635720
In       1.61396850       0.87122534       0.60156885        3      -0.01705594      -0.00920685      -0.00635720
O        5.67873007       2.18122379       0.12627085        4      -0.00000000       0.04866012      -0.07047228
O        6.64374524       4.87663780       1.04190790        5      -0.04068010       0.07536099       0.00000000
O        7.72246166       1.99411366       2.32241591        6       0.04068010      -0.02670087      -0.07047228
O        3.86084078       4.25858990       1.99498804        7      -0.04068010       0.02670087       0.07047228
O        5.90457238       4.07147977       4.19113309        8       0.00000000      -0.04866012       0.07047228
O        4.93955721       1.37606576       3.27549605        9       0.04068010      -0.07536099      -0.00000000
10
Lattice="5.552293814341822 -0.06842218292648734 -0.04724455584413514 2.989463624318692 4.679290056704143 -0.047244555844126894 2.989463624318691 1.6137219868607582 4.392480942696207" Properties=species:S:1:pos:R:3:spacegroup_kinds:I:1:forces:R:3 spacegroup="P 1" unit_cell=conventional occupancy="_JSON {\"0\": {\"In\": 1}, \"1\": {\"In\": 1}, \"2\": {\"In\": 1}, \"3\": {\"In\": 1}, \"4\": {\"O\": 1}, \"5\": {\"O\": 1}, \"6\": {\"O\": 1}, \"7\": {\"O\": 1}, \"8\": {\"O\": 1}, \"9\": {\"O\": 1}}" n_minim_iter=2 energy=-11286.466402465983 stress="-0.16519769723241215 -9.537035698556421e-05 -6.585189007099068e-05 -9.537035698556421e-05 -0.1650725022890628 -3.554705981297687e-05 -6.585189007099068e-05 -3.554705981297687e-05 -0.1650455658129885" free_energy=-11286.466402465983 pbc="T T T"
In       9.92462329       5.35734327       3.69917024        0       0.05920988       0.03196168       0.02206909
In       7.37220832       3.97954154       2.74781751        1      -0.05920988      -0.03196168      -0.02206909
In       4.15901276       2.24504834       1.55017433        2       0.05920988       0.03196168       0.02206909
In       1.60659778       0.86724660       0.59882159        3      -0.05920988      -0.03196168      -0.02206909
O        5.65895218       2.16888037       0.11393556        4      -0.00000000       0.02702271      -0.03913578
O        6.61283559       4.86351769       1.02725340        5      -0.02259112       0.04185065       0.00000000
O        7.69453239       1.97380507       2.31017603        6       0.02259112      -0.01482795      -0.03913578
O        3.83668868       4.25078480       1.98781580        7      -0.02259112       0.01482795       0.03913578
O        5.87226889       4.05570950       4.18405627        8      -0.00000000      -0.02702271       0.03913578
O        4.91838548       1.36107218       3.27073843        9       0.02259112      -0.04185065      -0.00000000
10
Lattice="5.549126837296957 -0.07175718856556468 -0.049547330374511915 2.9849377534877455 4.67847243855553 -0.049547330374503665 2.9849377534877437 1.611278907369782 4.392532251325681" Properties=species:S:1:pos:R:3:spacegroup_kinds:I:1:forces:R:3 spacegroup="P 1" unit_cell=conventional occupancy="_JSON {\"0\": {\"In\": 1}, \"1\": {\"In\": 1}, \"2\": {\"In\": 1}, \"3\": {\"In\": 1}, \"4\": {\"O\": 1}, \"5\": {\"O\": 1}, \"6\": {\"O\": 1}, \"7\": {\"O\": 1}, \"8\": {\"O\": 1}, \"9\": {\"O\": 1}}" n_minim_iter=3 energy=-11286.468915530751 stress="-0.16390722787879272 -0.0006242571550143645 -0.0004310407937716944 -0.0006242571550143645 -0.16308775061733424 -0.0002326771938650245 -0.0004310407937716944 -0.0002326771938650245 -0.1629114349467997" free_energy=-11286.468915530751 pbc="T T T"
In       9.92274703       5.35633046       3.69847091        0       0.02835431       0.01530575       0.01056840
In       7.35575649       3.97066079       2.74168548        1      -0.02835431      -0.01530575      -0.01056840
In       4.16324586       2.24733338       1.55175212        2       0.02835431       0.01530575       0.01056840
In       1.59625532       0.86166371       0.59496668        3      -0.02835431      -0.01530575      -0.01056840
O        5.65431401       2.17014823       0.10500639        4       0.00000000      -0.01529290       0.02214803
O        6.60210200       4.86689225       1.02381207        5       0.01278494      -0.02368445       0.00000000
O        7.69146377       1.96675160       2.30127252        6      -0.01278494       0.00839155       0.02214803
O        3.82753858       4.25124256       1.99216508        7       0.01278494      -0.00839155      -0.02214803
O        5.86468834       4.04784594       4.18843120        8       0.00000000       0.01529290      -0.02214803
O        4.91690036       1.35110192       3.26962553        9      -0.01278494       0.02368445      -0.00000000
10
Lattice="5.551235175791718 -0.06953661928059848 -0.0480140584866203 2.9879510518712724 4.679016545171611 -0.04801405848661212 2.9879510518712697 1.6129054954355848 4.3924978136130886" Properties=species:S:1:pos:R:3:spacegroup_kinds:I:1:forces:R:3 spacegroup="P 1" unit_cell=conventional occupancy="_JSON {\"0\": {\"In\": 1}, \"1\": {\"In\": 1}, \"2\": {\"In\": 1}, \"3\": {\"In\": 1}, \"4\": {\"O\": 1}, \"5\": {\"O\": 1}, \"6\": {\"O\": 1}, \"7\": {\"O\": 1}, \"8\": {\"O\": 1}, \"9\": {\"O\": 1}}" n_minim_iter=4 energy=-11286.46906219486 stress="-0.1634784843563137 5.036725745243827e-05 3.4777884186404475e-05 5.036725745243827e-05 -0.16354460265545492 1.8773210738989337e-05 3.4777884186404475e-05 1.8773210738989337e-05 -0.16355882842270664" free_energy=-11286.46906219486 pbc="T T T"
In       9.93043570       5.36048083       3.70133668        0       0.01317678       0.00711287       0.00491133
In       7.36027022       3.97309732       2.74336786        1      -0.01317678      -0.00711287      -0.00491133
In       4.16686706       2.24928812       1.55310184        2       0.01317678       0.00711287       0.00491133
In       1.59670159       0.86190460       0.59513302        3      -0.01317678      -0.00711287      -0.00491133
O        5.65740191       2.17211016       0.10688757        4      -0.00000000      -0.00840373       0.01217075
O        6.60690235       4.86899115       1.02610337        5       0.00702556      -0.01301505       0.00000000
O        7.69585253       1.96990808       2.30313648        6      -0.00702556       0.00461131       0.01217075
O        3.83128476       4.25247735       1.99333322        7       0.00702556      -0.00461131      -0.01217075
O        5.86973538       4.05027528       4.18958213        8      -0.00000000       0.00840373      -0.01217075
O        4.92023494       1.35339428       3.27036633        9      -0.00702556       0.01301505       0.00000000
10
Lattice="5.5510031589501585 -0.06978091464158195 -0.04818274100054781 2.9876195070219738 4.678956628136734 -0.048182741000539625 2.9876195070219715 1.6127265264698507 4.392501548700414" Properties=species:S:1:pos:R:3:spacegroup_kinds:I:1:forces:R:3 spacegroup="P 1" unit_cell=conventional occupancy="_JSON {\"0\": {\"In\": 1}, \"1\": {\"In\": 1}, \"2\": {\"In\": 1}, \"3\": {\"In\": 1}, \"4\": {\"O\": 1}, \"5\": {\"O\": 1}, \"6\": {\"O\": 1}, \"7\": {\"O\": 1}, \"8\": {\"O\": 1}, \"9\": {\"O\": 1}}" n_minim_iter=5 energy=-11286.469111949978 stress="-0.16332339868763604 0.00018345120479049498 0.00012667047986579066 0.00018345120479049498 -0.16356421946272157 6.837712922219303e-05 0.00012667047986579066 6.837712922219303e-05 -0.16361603356102292" free_energy=-11286.469111949978 pbc="T T T"
In       9.93055476       5.36054509       3.70138106        0      -0.00095364      -0.00051478      -0.00035545
In       7.35880851       3.97230828       2.74282304        1       0.00095364       0.00051478       0.00035545
In       4.16743367       2.24959397       1.55331303        2      -0.00095364      -0.00051478      -0.00035545
In       1.59568742       0.86135716       0.59475501        3       0.00095364       0.00051478       0.00035545
O        5.65706213       2.17169218       0.10697332        4      -0.00000000      -0.00013037       0.00018881
O        6.60654312       4.86844717       1.02585128        5       0.00010899      -0.00020191      -0.00000000
O        7.69520064       1.96967170       2.30322409        6      -0.00010899       0.00007154       0.00018881
O        3.83104154       4.25223055       1.99291198        7       0.00010899      -0.00007154      -0.00018881
O        5.86918005       4.05021007       4.18916275        8      -0.00000000       0.00013037      -0.00018881
O        4.91969906       1.35345508       3.27028479        9      -0.00010899       0.00020191      -0.00000000
