10
Lattice="6.091830177857982 0.07644191417892184 0.05278206758090594 3.4066261210087485 5.0508550517477175 0.05278206758090459 3.4066261210087436 1.8389076313778008 4.704502250364443" Properties=species:S:1:pos:R:3:spacegroup_kinds:I:1:forces:R:3 spacegroup="P 1" unit_cell=conventional occupancy="_JSON {\"0\": {\"In\": 1}, \"1\": {\"In\": 1}, \"2\": {\"In\": 1}, \"3\": {\"In\": 1}, \"4\": {\"O\": 1}, \"5\": {\"O\": 1}, \"6\": {\"O\": 1}, \"7\": {\"O\": 1}, \"8\": {\"O\": 1}, \"9\": {\"O\": 1}}" n_minim_iter=4 energy=-11287.384659292273 stress="0.0558972103337494 -0.00011433171254260614 -7.894444199204304e-05 -0.00011433171254260614 0.056047296301674376 -4.261446118574287e-05 -7.894444199204304e-05 -4.261446118574287e-05 0.05607958823666789" free_energy=-11287.384659292273 pbc="T T T"
In      11.00795200       5.94212756       4.10295558        0      -0.00056466      -0.00030481      -0.00021046
In       8.34967164       4.50717935       3.11214401        1       0.00056466       0.00030481       0.00021046
In       4.55541079       2.45902526       1.69792238        2      -0.00056466      -0.00030481      -0.00021046
In       1.89713043       1.02407705       0.70711081        3       0.00056466       0.00030481       0.00021046
O        6.27218570       2.42293878       0.29743803        4      -0.00000000      -0.00389598       0.00564238
O        7.43780822       5.30128591       1.25529867        5       0.00325706      -0.00603379      -0.00000000
O        8.51318930       2.34630632       2.64968915        6      -0.00325706       0.00213781       0.00564238
O        4.39189313       4.61989828       2.16037724        7       0.00325706      -0.00213781      -0.00564238
O        6.63289673       4.54326583       4.51262836        8       0.00000000       0.00389598      -0.00564238
O        5.46727421       1.66491870       3.55476772        9      -0.00325706       0.00603379      -0.00000000
