10
Lattice="5.331081232522539 -0.12784414945900724 -0.08827458873902327 2.818402387828927 4.526961366588535 -0.08827458873902039 2.818402387828924 1.5213825865156403 4.264571097197134" Properties=species:S:1:pos:R:3:spacegroup_kinds:I:1:forces:R:3 spacegroup="P 1" unit_cell=conventional occupancy="_JSON {\"0\": {\"In\": 1}, \"1\": {\"In\": 1}, \"2\": {\"In\": 1}, \"3\": {\"In\": 1}, \"4\": {\"O\": 1}, \"5\": {\"O\": 1}, \"6\": {\"O\": 1}, \"7\": {\"O\": 1}, \"8\": {\"O\": 1}, \"9\": {\"O\": 1}}" n_minim_iter=1 energy=-11284.113511231115 stress="-0.32024968748359955 0.005551599242846028 0.003833301266575486 0.005551599242846028 -0.32753740427224814 0.0020692282337349916 0.003833301266575486 0.0020692282337349916 -0.32910540220782464" free_energy=-11284.113511231115 pbc="T T T"
In       9.48089253       5.11781599       3.53378003        0       0.09272616       0.05005387       0.03456150
In       6.97093649       3.76293372       2.59825286        1      -0.09272616      -0.05005387      -0.03456150
In       3.99694953       2.15756609       1.48976907        2       0.09272616       0.05005387       0.03456150
In       1.48699348       0.80268382       0.55424190        3      -0.09272616      -0.05005387      -0.03456150
O        5.40751212       2.05891578       0.04705576        4      -0.00000000      -0.03657694       0.05297276
O        6.27940213       4.67506707       0.93373089        5       0.03057851      -0.05664751       0.00000000
O        7.35402450       1.82422357       2.17934131        6      -0.03057851       0.02007057       0.05297276
O        3.61386151       4.09627625       1.90868061        7       0.03057851      -0.02007057      -0.05297276
O        5.56037389       3.86158403       4.04096616        8       0.00000000       0.03657694      -0.05297276
O        4.68848389       1.24543274       3.15429103        9      -0.03057851       0.05664751      -0.00000000
10
Lattice="5.305727787405006 -0.15516832298435007 -0.10714154659974923 2.7816472533319763 4.520759131001127 -0.1071415465997463 2.7816472533319714 1.5015420478366412 4.265455885379245" Properties=species:S:1:pos:R:3:spacegroup_kinds:I:1:forces:R:3 spacegroup="P 1" unit_cell=conventional occupancy="_JSON {\"0\": {\"In\": 1}, \"1\": {\"In\": 1}, \"2\": {\"In\": 1}, \"3\": {\"In\": 1}, \"4\": {\"O\": 1}, \"5\": {\"O\": 1}, \"6\": {\"O\": 1}, \"7\": {\"O\": 1}, \"8\": {\"O\": 1}, \"9\": {\"O\": 1}}" n_minim_iter=2 energy=-11284.120838716895 stress="-0.32131534180961524 -0.0006309040257511634 -0.0004356303615029418 -0.0006309040257511634 -0.320487139041076 -0.0002351546572220516 -0.0004356303615029418 -0.0002351546572220516 -0.3203089460294653" free_energy=-11284.120838716895 pbc="T T T"
In       9.39623326       5.07211665       3.50222527        0       0.22254768       0.12013194       0.08294942
In       6.90730019       3.72858265       2.57453392        1      -0.22254768      -0.12013194      -0.08294942
In       3.96172211       2.13855022       1.47663887        2       0.22254768       0.12013194       0.08294942
In       1.47278904       0.79501622       0.54894753        3      -0.22254768      -0.12013194      -0.08294942
O        5.37011947       2.03450817       0.02465002        4      -0.00000000      -0.10569588       0.15307462
O        6.22146146       4.64898294       0.90565165        5       0.08836228      -0.16369351      -0.00000000
O        7.30042473       1.78587487       2.15737797        6      -0.08836228       0.05799764       0.15307462
O        3.56859757       4.08125799       1.89379483        7       0.08836228      -0.05799764      -0.15307462
O        5.49890283       3.83262470       4.02652277        8       0.00000000       0.10569588      -0.15307462
O        4.64756084       1.21814992       3.14552114        9      -0.08836228       0.16369351      -0.00000000
10
Lattice="5.28292891018786 -0.1799483724664261 -0.12425182255855939 2.748420766432713 4.515296510473421 -0.12425182255855648 2.7484207664327096 1.483606284370811 4.266409905983956" Properties=species:S:1:pos:R:3:spacegroup_kinds:I:1:forces:R:3 spacegroup="P 1" unit_cell=conventional occupancy="_JSON {\"0\": {\"In\": 1}, \"1\": {\"In\": 1}, \"2\": {\"In\": 1}, \"3\": {\"In\": 1}, \"4\": {\"O\": 1}, \"5\": {\"O\": 1}, \"6\": {\"O\": 1}, \"7\": {\"O\": 1}, \"8\": {\"O\": 1}, \"9\": {\"O\": 1}}" n_minim_iter=3 energy=-11284.131474048361 stress="-0.3129440312866853 -9.248899143271735e-05 -6.386234842053902e-05 -9.248899143271735e-05 -0.31282261878127665 -3.447309889705672e-05 -6.386234842053902e-05 -3.447309889705672e-05 -0.31279649612036464" free_energy=-11284.131474048361 pbc="T T T"
In       9.32946407       5.03607443       3.47733862        0       0.08261975       0.04459841       0.03079457
In       6.84019160       3.69235722       2.54952077        1      -0.08261975      -0.04459841      -0.03079457
In       3.93957885       2.12659722       1.46838549        2       0.08261975       0.04459841       0.03079457
In       1.45030638       0.78288000       0.54056764        3      -0.08261975      -0.04459841      -0.03079457
O        5.33640707       2.00771042       0.01120065        4      -0.00000000       0.05105812      -0.07394520
O        6.17311140       4.61815718       0.88022474        5      -0.04268485       0.07907483       0.00000000
O        7.24812351       1.75376906       2.14440561        6       0.04268485      -0.02801671      -0.07394520
O        3.53164694       4.06518538       1.87350066        7      -0.04268485       0.02801671       0.07394520
O        5.44336338       3.81124402       4.00670561        8       0.00000000      -0.05105812       0.07394520
O        4.60665905       1.20079725       3.13768152        9       0.04268485      -0.07907483       0.00000000
10
Lattice="5.267215167328203 -0.19714629975127684 -0.13612674968395513 2.725420739494168 4.51159662150474 -0.13612674968395214 2.725420739494164 1.4711907965665136 4.2671573919004375" Properties=species:S:1:pos:R:3:spacegroup_kinds:I:1:forces:R:3 spacegroup="P 1" unit_cell=conventional occupancy="_JSON {\"0\": {\"In\": 1}, \"1\": {\"In\": 1}, \"2\": {\"In\": 1}, \"3\": {\"In\": 1}, \"4\": {\"O\": 1}, \"5\": {\"O\": 1}, \"6\": {\"O\": 1}, \"7\": {\"O\": 1}, \"8\": {\"O\": 1}, \"9\": {\"O\": 1}}" n_minim_iter=4 energy=-11284.142822031563 stress="-0.305710748767841 0.0017409896781639862 0.0012021289080738995 0.0017409896781639862 -0.3079961874579703 0.0006489130145157937 0.0012021289080738995 0.0006489130145157937 -0.30848791391505576" free_energy=-11284.142822031563 pbc="T T T"
In       9.31102665       5.02612185       3.47046651        0      -0.02252432      -0.01215870      -0.00839541
In       6.76605833       3.65233984       2.52188934        1       0.02252432       0.01215870       0.00839541
In       3.95199833       2.13330129       1.47301456        2      -0.02252432      -0.01215870      -0.00839541
In       1.40703000       0.75951928       0.52443739        3       0.02252432       0.01215870       0.00839541
O        5.31312175       2.00272828      -0.01778704        4      -0.00000000      -0.01522058       0.02204328
O        6.12833986       4.61787967       0.86259923        5       0.01272448      -0.02357244       0.00000000
O        7.22332438       1.72407945       2.11579166        6      -0.01272448       0.00835186       0.02204328
O        3.49473227       4.06156167       1.87911224        7       0.01272448      -0.00835186      -0.02204328
O        5.40493491       3.78291285       4.01269093        8      -0.00000000       0.01522058      -0.02204328
O        4.58971680       1.16776146       3.13230467        9      -0.01272448       0.02357244      -0.00000000
10
Lattice="5.258859750674387 -0.20633122248135963 -0.14246880976279958 2.7131572986507333 4.509651419279765 -0.14246880976279663 2.7131572986507297 1.4645709521360173 4.2675854076194755" Properties=species:S:1:pos:R:3:spacegroup_kinds:I:1:forces:R:3 spacegroup="P 1" unit_cell=conventional occupancy="_JSON {\"0\": {\"In\": 1}, \"1\": {\"In\": 1}, \"2\": {\"In\": 1}, \"3\": {\"In\": 1}, \"4\": {\"O\": 1}, \"5\": {\"O\": 1}, \"6\": {\"O\": 1}, \"7\": {\"O\": 1}, \"8\": {\"O\": 1}, \"9\": {\"O\": 1}}" n_minim_iter=5 energy=-11284.143855923223 stress="-0.3053383886547304 -0.00019488511216586012 -0.00013456542966884205 -0.00019488511216586012 -0.3050825583158393 -7.263884866824997e-05 -0.00013456542966884205 -7.263884866824997e-05 -0.3050275148173447" free_energy=-11284.143855923223 pbc="T T T"
In       9.28116902       5.01000460       3.45933778        0       0.00042410       0.00022893       0.00015807
In       6.74659251       3.64183213       2.51463391        1      -0.00042410      -0.00022893      -0.00015807
In       3.93858185       2.12605903       1.46801388        2       0.00042410       0.00022893       0.00015807
In       1.40400533       0.75788655       0.52331001        3      -0.00042410      -0.00022893      -0.00015807
O        5.30072347       1.99291892      -0.02289330        4      -0.00000000      -0.00166626       0.00241316
O        6.11046144       4.60667002       0.85319314        5       0.00139300      -0.00258057      -0.00000000
O        7.20414279       1.71216726       2.11089940        6      -0.00139300       0.00091431       0.00241316
O        3.48103157       4.05572390       1.87174839        7       0.00139300      -0.00091431      -0.00241316
O        5.38445089       3.77497224       4.00554110        8      -0.00000000       0.00166626      -0.00241316
O        4.57471291       1.16122114       3.12945465        9      -0.00139300       0.00258057      -0.00000000
