10
Lattice="6.375026111294641 0.04902026899834761 0.03384780691191386 3.5390972842505266 5.3026551197557374 0.033847806911895595 3.539097284250521 1.9104159872612327 4.946676434609522" Properties=species:S:1:pos:R:3:spacegroup_kinds:I:1:forces:R:3 spacegroup="P 1" unit_cell=conventional occupancy="_JSON {\"0\": {\"In\": 1}, \"1\": {\"In\": 1}, \"2\": {\"In\": 1}, \"3\": {\"In\": 1}, \"4\": {\"O\": 1}, \"5\": {\"O\": 1}, \"6\": {\"O\": 1}, \"7\": {\"O\": 1}, \"8\": {\"O\": 1}, \"9\": {\"O\": 1}}" n_minim_iter=4 energy=-11285.230040538103 stress="0.11654915539948699 9.746151114921643e-07 6.729583869491858e-07 9.746151114921643e-07 0.11654787599799313 3.6326457392517873e-07 6.729583869491858e-07 3.6326457392517873e-07 0.11654760072806869" free_energy=-11285.230040538103 pbc="T T T"
In      11.43700683       6.17373272       4.26287569        0       0.00060694       0.00032763       0.00022622
In       8.74282420       4.71940436       3.25868239        1      -0.00060694      -0.00032763      -0.00022622
In       4.71039649       2.54268703       1.75568966        2       0.00060694       0.00032763       0.00022622
In       2.01621386       1.08835867       0.75149637        3      -0.00060694      -0.00032763      -0.00022622
O        6.55081823       2.54509032       0.24941383        4       0.00000000       0.00005468      -0.00007920
O        7.73093542       5.58329824       1.28744082        5      -0.00004572       0.00008469       0.00000000
O        8.90979832       2.40836062       2.72275204        6       0.00004572      -0.00003001      -0.00007920
O        4.54342237       4.85373077       2.29162001        7      -0.00004572       0.00003001       0.00007920
O        6.90240246       4.71700107       4.76495823        8       0.00000000      -0.00005468       0.00007920
O        5.72228527       1.67879314       3.72693123        9       0.00004572      -0.00008469      -0.00000000
