10
Lattice="6.3217058853118715 0.08168377745557942 0.0564015005149241 3.537146167346225 5.240155964350116 0.05640150051491344 3.537146167346219 1.9093627681413101 4.880240719432823" Properties=species:S:1:pos:R:3:spacegroup_kinds:I:1:forces:R:3 spacegroup="P 1" unit_cell=conventional occupancy="_JSON {\"0\": {\"In\": 1}, \"1\": {\"In\": 1}, \"2\": {\"In\": 1}, \"3\": {\"In\": 1}, \"4\": {\"O\": 1}, \"5\": {\"O\": 1}, \"6\": {\"O\": 1}, \"7\": {\"O\": 1}, \"8\": {\"O\": 1}, \"9\": {\"O\": 1}}" n_minim_iter=1 energy=-11285.970096057987 stress="0.10938095347500303 0.00048668156046380594 0.00033604677870589664 0.00048668156046380594 0.10874207497786481 0.00018139912288418037 0.00033604677870589664 0.00018139912288418037 0.10860461626431657" free_energy=-11285.970096057987 pbc="T T T"
In      11.39516298       6.15114528       4.24727938        0      -0.03751274      -0.02024950      -0.01398199
In       8.69883436       4.69565850       3.24228621        1       0.03751274       0.02024950       0.01398199
In       4.69716387       2.53554402       1.75075752        2      -0.03751274      -0.02024950      -0.01398199
In       2.00083525       1.08005725       0.74576435        3       0.03751274       0.02024950       0.01398199
O        6.50985250       2.52362305       0.29891749        4       0.00000000       0.04407284      -0.06382873
O        7.71413850       5.51407759       1.30466243        5      -0.03684512       0.06825657      -0.00000000
O        8.84271267       2.43294735       2.73903785        6       0.03684512      -0.02418373      -0.06382873
O        4.55328556       4.79825518       2.25400587        7      -0.03684512       0.02418373       0.06382873
O        6.88614573       4.70757947       4.69412623        8      -0.00000000      -0.04407284       0.06382873
O        5.68185973       1.71712493       3.68838129        9       0.03684512      -0.06825657       0.00000000
10
Lattice="6.314811238175988 0.07470980888042891 0.051586073211794356 3.527532651345406 5.2382187738799875 0.051586073211783684 3.5275326513454 1.9041733615817662 4.880135331629705" Properties=species:S:1:pos:R:3:spacegroup_kinds:I:1:forces:R:3 spacegroup="P 1" unit_cell=conventional occupancy="_JSON {\"0\": {\"In\": 1}, \"1\": {\"In\": 1}, \"2\": {\"In\": 1}, \"3\": {\"In\": 1}, \"4\": {\"O\": 1}, \"5\": {\"O\": 1}, \"6\": {\"O\": 1}, \"7\": {\"O\": 1}, \"8\": {\"O\": 1}, \"9\": {\"O\": 1}}" n_minim_iter=2 energy=-11285.970820313192 stress="0.10830381083594248 -0.00015652624795418226 -0.00010807917458507469 -0.00015652624795418226 0.10850928657736716 -5.8341483480199956e-05 -0.00010807917458507469 -5.8341483480199956e-05 0.10855349596916744" free_energy=-11285.970820313192 pbc="T T T"
In      11.37240800       6.13886207       4.23879799        0      -0.02908484      -0.01570009      -0.01084069
In       8.68240682       4.68679086       3.23616323        1       0.02908484       0.01570009       0.01084069
In       4.68746973       2.53031109       1.74714425        2      -0.02908484      -0.01570009      -0.01084069
In       1.99746855       1.07823989       0.74450949        3       0.02908484       0.01570009       0.01084069
O        6.49987476       2.51790021       0.29220851        4       0.00000000       0.03900494      -0.05648912
O        7.69827615       5.50809361       1.29741295        5      -0.03260833       0.06040781       0.00000000
O        8.82900602       2.42263306       2.73227617        6       0.03260833      -0.02140286      -0.05648912
O        4.54087053       4.79446890       2.25103131        7      -0.03260833       0.02140286       0.05648912
O        6.87000179       4.69920175       4.69109897        8       0.00000000      -0.03900494       0.05648912
O        5.67160040       1.70900835       3.68589454        9       0.03260833      -0.06040781       0.00000000
10
Lattice="6.3081131864146425 0.0679231410539572 0.04689997444368247 3.518183595881083 5.2363431621105745 0.04689997444367179 3.518183595881078 1.8991267116622192 4.88004170597302" Properties=species:S:1:pos:R:3:spacegroup_kinds:I:1:forces:R:3 spacegroup="P 1" unit_cell=conventional occupancy="_JSON {\"0\": {\"In\": 1}, \"1\": {\"In\": 1}, \"2\": {\"In\": 1}, \"3\": {\"In\": 1}, \"4\": {\"O\": 1}, \"5\": {\"O\": 1}, \"6\": {\"O\": 1}, \"7\": {\"O\": 1}, \"8\": {\"O\": 1}, \"9\": {\"O\": 1}}" n_minim_iter=3 energy=-11285.972325869201 stress="0.10622338026229032 -0.0008534966921658511 -0.0005893274734952986 -0.0008534966921658511 0.10734378573772053 -0.000318120847451664 -0.0005893274734952986 -0.000318120847451664 0.10758484799561675" free_energy=-11285.972325869201 pbc="T T T"
In      11.34793676       6.12565241       4.22967691        0      -0.00445595      -0.00240534      -0.00166085
In       8.66878382       4.67943712       3.23108557        1       0.00445595       0.00240534       0.00166085
In       4.67569657       2.52395591       1.74275608        2      -0.00445595      -0.00240534      -0.00166085
In       1.99654363       1.07774061       0.74416475        3       0.00445595       0.00240534       0.00166085
O        6.49017669       2.51539741       0.28124577        4       0.00000000       0.00893750      -0.01294378
O        7.68029388       5.50702226       1.29036039        5      -0.00747179       0.01384170       0.00000000
O        8.81824310       2.41091991       2.72126663        6       0.00747179      -0.00490420      -0.01294378
O        4.52623729       4.79247311       2.25257503        7      -0.00747179       0.00490420       0.01294378
O        6.85430370       4.68799562       4.69259589        8      -0.00000000      -0.00893750       0.01294378
O        5.66418650       1.69637077       3.68348127        9       0.00747179      -0.01384170       0.00000000
10
Lattice="6.313831997728102 0.07371832573548655 0.05090146803250516 3.5261664358670424 5.237944172444864 0.0509014680324945 3.526166435867038 1.9034358741146873 4.880121103643873" Properties=species:S:1:pos:R:3:spacegroup_kinds:I:1:forces:R:3 spacegroup="P 1" unit_cell=conventional occupancy="_JSON {\"0\": {\"In\": 1}, \"1\": {\"In\": 1}, \"2\": {\"In\": 1}, \"3\": {\"In\": 1}, \"4\": {\"O\": 1}, \"5\": {\"O\": 1}, \"6\": {\"O\": 1}, \"7\": {\"O\": 1}, \"8\": {\"O\": 1}, \"9\": {\"O\": 1}}" n_minim_iter=4 energy=-11285.972827361065 stress="0.10673500945517754 -0.00034103235609078415 -0.00023547804930219908 -0.00034103235609078415 0.10718269076587944 -0.0001271118013491137 -0.00023547804930219908 -0.0001271118013491137 0.10727901220673014" free_energy=-11285.972827361065 pbc="T T T"
In      11.36581822       6.13530488       4.23634180        0      -0.00436648      -0.00235704      -0.00162750
In       8.68342910       4.68734269       3.23654426        1       0.00436648       0.00235704       0.00162750
In       4.68273578       2.52775569       1.74537979        2      -0.00436648      -0.00235704      -0.00162750
In       2.00034666       1.07979350       0.74558224        3       0.00436648       0.00235704       0.00162750
O        6.49845722       2.52138142       0.28503528        4       0.00000000       0.00299485      -0.00433730
O        7.69243200       5.51389462       1.29638248        5      -0.00250371       0.00463819       0.00000000
O        8.83064888       2.41881059       2.72509583        6       0.00250371      -0.00164334      -0.00433730
O        4.53551600       4.79628780       2.25682822        7      -0.00250371       0.00164334       0.00433730
O        6.86770766       4.69371696       4.69688877        8       0.00000000      -0.00299485       0.00433730
O        5.67373288       1.70120376       3.68554156        9       0.00250371      -0.00463819      -0.00000000
