10
Lattice="5.989798170166276 0.02039636633264541 0.014083404343526729 3.303784571995866 4.996309201093238 0.014083404343526063 3.303784571995861 1.7833934356355048 4.667205998125546" Properties=species:S:1:pos:R:3:spacegroup_kinds:I:1:forces:R:3 spacegroup="P 1" unit_cell=conventional occupancy="_JSON {\"0\": {\"In\": 1}, \"1\": {\"In\": 1}, \"2\": {\"In\": 1}, \"3\": {\"In\": 1}, \"4\": {\"O\": 1}, \"5\": {\"O\": 1}, \"6\": {\"O\": 1}, \"7\": {\"O\": 1}, \"8\": {\"O\": 1}, \"9\": {\"O\": 1}}" n_minim_iter=1 energy=-11287.539143350677 stress="0.04205170604179002 -0.0006467152510700431 -0.00044654779318845827 -0.0006467152510700431 0.04290066458310827 -0.0002410479200634725 -0.00044654779318845827 -0.0002410479200634725 0.04308332333253795" free_energy=-11287.539143350677 pbc="T T T"
In      10.78505834       5.82180885       4.01987720        0      -0.05365803      -0.02896478      -0.01999977
In       8.11099264       4.37833967       3.02318201        1       0.05365803       0.02896478       0.01999977
In       4.48637468       2.42175935       1.67219080        2      -0.05365803      -0.02896478      -0.01999977
In       1.81230899       0.97829017       0.67549561        3       0.05365803       0.02896478       0.01999977
O        6.14424092       2.35951815       0.24053961        4       0.00000000      -0.02165246       0.03135829
O        7.25331917       5.21395522       1.18792661        5       0.01810156      -0.03353364      -0.00000000
O        8.33894724       2.24563719       2.57414261        6      -0.01810156       0.01188118       0.03135829
O        4.25842009       4.55446182       2.12123020        7       0.01810156      -0.01188118      -0.03135829
O        6.45312641       4.44058086       4.45483320        8       0.00000000       0.02165246      -0.03135829
O        5.34404815       1.58614380       3.50744620        9      -0.01810156       0.03353364      -0.00000000
10
Lattice="5.997308012229743 0.028093956654036592 0.019398482294123102 3.3143406102804187 4.998363630529651 0.019398482294122443 3.314340610280415 1.7890916187260621 4.667243990185325" Properties=species:S:1:pos:R:3:spacegroup_kinds:I:1:forces:R:3 spacegroup="P 1" unit_cell=conventional occupancy="_JSON {\"0\": {\"In\": 1}, \"1\": {\"In\": 1}, \"2\": {\"In\": 1}, \"3\": {\"In\": 1}, \"4\": {\"O\": 1}, \"5\": {\"O\": 1}, \"6\": {\"O\": 1}, \"7\": {\"O\": 1}, \"8\": {\"O\": 1}, \"9\": {\"O\": 1}}" n_minim_iter=2 energy=-11287.539714878625 stress="0.04267101004187077 0.0001992138726429946 0.00013755438112750962 0.0001992138726429946 0.04240949723513547 7.425229223340572e-05 0.00013755438112750962 7.425229223340572e-05 0.042353231116843186" free_energy=-11287.539714878625 pbc="T T T"
In      10.80879431       5.83462160       4.02872422        0      -0.06871649      -0.03709338      -0.02561246
In       8.13018955       4.38870222       3.03033721        1       0.06871649       0.03709338       0.02561246
In       4.49579969       2.42684700       1.67570375        2      -0.06871649      -0.03709338      -0.02561246
In       1.81719494       0.98092762       0.67731673        3       0.06871649       0.03709338       0.02561246
O        6.15515132       2.36618416       0.24737810        4       0.00000000      -0.01885450       0.02730614
O        7.27038149       5.22107485       1.19590872        5       0.01576246      -0.02920038       0.00000000
O        8.35426175       2.25677123       2.58100009        6      -0.01576246       0.01034588       0.02730614
O        4.27172749       4.55877799       2.12504087        7       0.01576246      -0.01034588      -0.02730614
O        6.47083792       4.44936505       4.45866286        8       0.00000000       0.01885450      -0.02730614
O        5.35560775       1.59447437       3.51013224        9      -0.01576246       0.02920038      -0.00000000
10
Lattice="6.018191753761355 0.04941771217405414 0.03412223583987816 3.3436267414074026 5.004121732078766 0.03412223583987754 3.343626741407398 1.8049003655946465 4.667411842415241" Properties=species:S:1:pos:R:3:spacegroup_kinds:I:1:forces:R:3 spacegroup="P 1" unit_cell=conventional occupancy="_JSON {\"0\": {\"In\": 1}, \"1\": {\"In\": 1}, \"2\": {\"In\": 1}, \"3\": {\"In\": 1}, \"4\": {\"O\": 1}, \"5\": {\"O\": 1}, \"6\": {\"O\": 1}, \"7\": {\"O\": 1}, \"8\": {\"O\": 1}, \"9\": {\"O\": 1}}" n_minim_iter=3 energy=-11287.54249175843 stress="0.0418868632725928 0.001178225816430755 0.0008135483698884457 0.001178225816430755 0.04034017813186982 0.00043915600105290864 0.0008135483698884457 0.00043915600105290864 0.040007399131072846" free_energy=-11287.54249175843 pbc="T T T"
In      10.86624236       5.86563224       4.05013664        0      -0.06447055      -0.03480141      -0.02402988
In       8.19192551       4.42202749       3.05334784        1       0.06447055       0.03480141       0.02402988
In       4.51351974       2.43641234       1.68230848        2      -0.06447055      -0.03480141      -0.02402988
In       1.83920289       0.99280758       0.68551968        3       0.06447055       0.03480141       0.02402988
O        6.18545719       2.38220027       0.26991866        4      -0.00000000       0.00510894      -0.00739905
O        7.31981846       5.23702424       1.21803632        5      -0.00427110       0.00791233       0.00000000
O        8.39472266       2.28900590       2.60362458        6       0.00427110      -0.00280339      -0.00739905
O        4.31072258       4.56943392       2.13203174        7      -0.00427110       0.00280339       0.00739905
O        6.51998806       4.47623955       4.46573766        8      -0.00000000      -0.00510894       0.00739905
O        5.38562679       1.62141558       3.51762000        9       0.00427110      -0.00791233       0.00000000
10
Lattice="6.019369866343668 0.050617088510330914 0.03495038834647446 3.345275882114873 5.0044485160740715 0.03495038834647378 3.3452758821148683 1.8057905770016098 4.667424008132726" Properties=species:S:1:pos:R:3:spacegroup_kinds:I:1:forces:R:3 spacegroup="P 1" unit_cell=conventional occupancy="_JSON {\"0\": {\"In\": 1}, \"1\": {\"In\": 1}, \"2\": {\"In\": 1}, \"3\": {\"In\": 1}, \"4\": {\"O\": 1}, \"5\": {\"O\": 1}, \"6\": {\"O\": 1}, \"7\": {\"O\": 1}, \"8\": {\"O\": 1}, \"9\": {\"O\": 1}}" n_minim_iter=4 energy=-11287.543721003867 stress="0.04071551543775718 0.000562699633046724 0.00038853618898231556 0.000562699633046724 0.03997684620229468 0.00020973307207635883 0.00038853618898231556 0.00020973307207635883 0.03981791688736922" free_energy=-11287.543721003867 pbc="T T T"
In      10.86461774       5.86475527       4.04953110        0      -0.03695167      -0.01994663      -0.01377287
In       8.20026471       4.42652902       3.05645608        1       0.03695167       0.01994663       0.01377287
In       4.50965693       2.43432718       1.68086871        2      -0.03695167      -0.01994663      -0.01377287
In       1.84530390       0.99610093       0.68779369        3       0.03695167       0.01994663       0.01377287
O        6.18716535       2.38191795       0.27290211        4       0.00000000       0.01356603      -0.01964708
O        7.32359357       5.23608985       1.21928159        5      -0.01134127       0.02101001      -0.00000000
O        8.39601300       2.29147024       2.60661411        6       0.01134127      -0.00744398      -0.01964708
O        4.31390864       4.56938595       2.13071068        7      -0.01134127       0.00744398       0.01964708
O        6.52275629       4.47893824       4.46442268        8      -0.00000000      -0.01356603       0.01964708
O        5.38632807       1.62476634       3.51804320        9       0.01134127      -0.02101001      -0.00000000
10
Lattice="6.018493352916039 0.04972479080411401 0.03433426931887418 3.344048954717955 5.004205369723028 0.03433426931887349 3.3440489547179504 1.8051282776845745 4.667414929649813" Properties=species:S:1:pos:R:3:spacegroup_kinds:I:1:forces:R:3 spacegroup="P 1" unit_cell=conventional occupancy="_JSON {\"0\": {\"In\": 1}, \"1\": {\"In\": 1}, \"2\": {\"In\": 1}, \"3\": {\"In\": 1}, \"4\": {\"O\": 1}, \"5\": {\"O\": 1}, \"6\": {\"O\": 1}, \"7\": {\"O\": 1}, \"8\": {\"O\": 1}, \"9\": {\"O\": 1}}" n_minim_iter=5 energy=-11287.544121349878 stress="0.03982350039051594 -3.52403557289552e-05 -2.43329694581429e-05 -3.52403557289552e-05 0.03986976124584906 -1.3135015151069607e-05 -2.43329694581429e-05 -1.3135015151069607e-05 0.03987971455957247" free_energy=-11287.544121349878 pbc="T T T"
In      10.85805338       5.86121181       4.04708439        0      -0.01269344      -0.00685196      -0.00473118
In       8.20183352       4.42737586       3.05704082        1       0.01269344       0.00685196       0.00473118
In       4.50475775       2.43168259       1.67904265        2      -0.01269344      -0.00685196      -0.00473118
In       1.84853789       0.99784664       0.68899908        3       0.01269344       0.00685196       0.00473118
O        6.18589450       2.38053841       0.27298461        4       0.00000000       0.01556799      -0.02254642
O        7.32211385       5.23432319       1.21835514        5      -0.01301491       0.02411048      -0.00000000
O        8.39372410       2.29050906       2.60669207        6       0.01301491      -0.00854249      -0.02254642
O        4.31286717       4.56854939       2.12939140        7      -0.01301491       0.00854249       0.02254642
O        6.52069678       4.47852004       4.46309887        8      -0.00000000      -0.01556799       0.02254642
O        5.38447743       1.62473526       3.51772833        9       0.01301491      -0.02411048       0.00000000
10
Lattice="6.018725245945356 0.049960880072657136 0.03449728564128339 3.3443735712945797 5.004269686112443 0.03449728564128269 3.3443735712945757 1.8053035067466499 4.667417316095576" Properties=species:S:1:pos:R:3:spacegroup_kinds:I:1:forces:R:3 spacegroup="P 1" unit_cell=conventional occupancy="_JSON {\"0\": {\"In\": 1}, \"1\": {\"In\": 1}, \"2\": {\"In\": 1}, \"3\": {\"In\": 1}, \"4\": {\"O\": 1}, \"5\": {\"O\": 1}, \"6\": {\"O\": 1}, \"7\": {\"O\": 1}, \"8\": {\"O\": 1}, \"9\": {\"O\": 1}}" n_minim_iter=6 energy=-11287.544290051319 stress="0.039383064114788875 -0.0003263673034830332 -0.00022535203823927216 -0.0003263673034830332 0.039811494261965556 -0.00012164574718728124 -0.00022535203823927216 -0.00012164574718728124 0.03990367369354185" free_energy=-11287.544290051319 pbc="T T T"
In      10.85622937       5.86022720       4.04640453        0       0.00555024       0.00299604       0.00206872
In       8.20497922       4.42907392       3.05821331        1      -0.00555024      -0.00299604      -0.00206872
In       4.50249317       2.43046016       1.67819859        2       0.00555024       0.00299604       0.00206872
In       1.85124303       0.99930689       0.69000736        3      -0.00555024      -0.00299604      -0.00206872
O        6.18623073       2.38126965       0.27243237        4      -0.00000000       0.00765711      -0.01108944
O        7.32219916       5.23535780       1.21860026        5      -0.00640138       0.01185873      -0.00000000
O        8.39463586       2.29056241       2.60614103        6       0.00640138      -0.00420162      -0.01108944
O        4.31283654       4.56897168       2.13027086        7      -0.00640138       0.00420162       0.01108944
O        6.52124167       4.47826444       4.46397952        8      -0.00000000      -0.00765711       0.01108944
O        5.38527324       1.62417628       3.51781163        9       0.00640138      -0.01185873       0.00000000
10
Lattice="6.020692685095843 0.05196333375859727 0.03587995177300179 3.3471272094016236 5.004815684968346 0.0358799517730011 3.34712720940162 1.8067899293681013 4.667438008434441" Properties=species:S:1:pos:R:3:spacegroup_kinds:I:1:forces:R:3 spacegroup="P 1" unit_cell=conventional occupancy="_JSON {\"0\": {\"In\": 1}, \"1\": {\"In\": 1}, \"2\": {\"In\": 1}, \"3\": {\"In\": 1}, \"4\": {\"O\": 1}, \"5\": {\"O\": 1}, \"6\": {\"O\": 1}, \"7\": {\"O\": 1}, \"8\": {\"O\": 1}, \"9\": {\"O\": 1}}" n_minim_iter=7 energy=-11287.54439383487 stress="0.03973062197863694 -1.8070073880836587e-05 -1.2477131593143557e-05 -1.8070073880836587e-05 0.03975434299333535 -6.735196044395593e-06 -1.2477131593143557e-05 -6.735196044395593e-06 0.039759446718427016" free_energy=-11287.54439383487 pbc="T T T"
In      10.86318638       5.86398261       4.04899759        0      -0.00012676      -0.00006842      -0.00004725
In       8.20923429       4.43137082       3.05979928        1       0.00012676       0.00006842       0.00004725
In       4.50571282       2.43219814       1.67939863        2      -0.00012676      -0.00006842      -0.00004725
In       1.85176074       0.99958635       0.69020033        3       0.00012676       0.00006842       0.00004725
O        6.18908312       2.38392519       0.27288522        4       0.00000000      -0.00022954       0.00033243
O        7.32588865       5.23864060       1.22067943        5       0.00019190      -0.00035550       0.00000000
O        8.39940480       2.29296131       2.60660422        6      -0.00019190       0.00012595       0.00033243
O        4.31554231       4.57060765       2.13259369        7       0.00019190      -0.00012595      -0.00033243
O        6.52586399       4.47964377       4.46631270        8       0.00000000       0.00022954      -0.00033243
O        5.38905846       1.62492836       3.51851848        9      -0.00019190       0.00035550       0.00000000
