10
Lattice="5.633008205161159 -0.03937823016230313 -0.027190114585280645 3.058034263145536 4.7308306384663155 -0.02719011458527687 3.0580342631455353 1.650736636120186 4.433572644082128" Properties=species:S:1:pos:R:3:spacegroup_kinds:I:1:forces:R:3 spacegroup="P 1" unit_cell=conventional occupancy="_JSON {\"0\": {\"In\": 1}, \"1\": {\"In\": 1}, \"2\": {\"In\": 1}, \"3\": {\"In\": 1}, \"4\": {\"O\": 1}, \"5\": {\"O\": 1}, \"6\": {\"O\": 1}, \"7\": {\"O\": 1}, \"8\": {\"O\": 1}, \"9\": {\"O\": 1}}" n_minim_iter=1 energy=-11286.93372985214 stress="-0.12257906357550552 0.0028737612772726925 0.0019842917786248838 0.0028737612772726925 -0.12635151857146787 0.0010711270231466496 0.0019842917786248838 0.0010711270231466496 -0.1271631859029058" free_energy=-11286.93372985214 pbc="T T T"
In      10.10028812       5.45216770       3.76464518        0       0.01446221       0.00780674       0.00539045
In       7.52332699       4.06111587       2.80414344        1      -0.01446221      -0.00780674      -0.00539045
In       4.22574976       2.28107318       1.57504898        2       0.01446221       0.00780674       0.00539045
In       1.64878862       0.89002135       0.61454724        3      -0.01446221      -0.00780674      -0.00539045
O        5.75377329       2.20976419       0.14866265        4       0.00000000       0.06025917      -0.08727067
O        6.74448176       4.92850482       1.06760799        5      -0.05037697       0.09332469      -0.00000000
O        7.82109908       2.03790116       2.36544898        6       0.05037697      -0.03306552      -0.08727067
O        3.92797766       4.30428790       2.01374344        7      -0.05037697       0.03306552       0.08727067
O        5.99530345       4.13242487       4.23052976        8       0.00000000      -0.06025917       0.08727067
O        5.00459498       1.41368424       3.31158443        9       0.05037697      -0.09332469      -0.00000000
10
Lattice="5.620618498417611 -0.05233017998506995 -0.03613325393746389 3.0404078657671714 4.727579799672619 -0.0361332539374601 3.0404078657671696 1.6412218506693026 4.433701299275623" Properties=species:S:1:pos:R:3:spacegroup_kinds:I:1:forces:R:3 spacegroup="P 1" unit_cell=conventional occupancy="_JSON {\"0\": {\"In\": 1}, \"1\": {\"In\": 1}, \"2\": {\"In\": 1}, \"3\": {\"In\": 1}, \"4\": {\"O\": 1}, \"5\": {\"O\": 1}, \"6\": {\"O\": 1}, \"7\": {\"O\": 1}, \"8\": {\"O\": 1}, \"9\": {\"O\": 1}}" n_minim_iter=2 energy=-11286.935805047628 stress="-0.12420378587048125 -0.0002727171096473542 -0.00018830733037748714 -0.0002727171096473542 -0.1238457836136656 -0.00010164889744121485 -0.00018830733037748714 -0.00010164889744121485 -0.123768757185581" free_energy=-11286.935805047628 pbc="T T T"
In      10.05942818       5.43011138       3.74941560        0       0.05416585       0.02923890       0.02018905
In       7.49272317       4.04459584       2.79273659        1      -0.05416585      -0.02923890      -0.02018905
In       4.20871106       2.27187564       1.56869820        2       0.05416585       0.02923890       0.02018905
In       1.64200606       0.88636010       0.61201920        3      -0.05416585      -0.02923890      -0.02018905
O        5.73566781       2.19857380       0.13726795        4      -0.00000000       0.04250327      -0.06155559
O        6.71612936       4.91663005       1.05422545        5      -0.03553295       0.06582575       0.00000000
O        7.79561413       2.01929735       2.35411860        6       0.03553295      -0.02332247      -0.06155559
O        3.90582011       4.29717413       2.00731619        7      -0.03553295       0.02332247       0.06155559
O        5.96576643       4.11789768       4.22416684        8       0.00000000      -0.04250327       0.06155559
O        4.98530488       1.39984143       3.30720935        9       0.03553295      -0.06582575      -0.00000000
10
Lattice="5.621330604887191 -0.05158442975617804 -0.035618323883675446 3.041422065052934 4.727765914789333 -0.035618323883671664 3.041422065052933 1.6417693186743259 4.433692898059103" Properties=species:S:1:pos:R:3:spacegroup_kinds:I:1:forces:R:3 spacegroup="P 1" unit_cell=conventional occupancy="_JSON {\"0\": {\"In\": 1}, \"1\": {\"In\": 1}, \"2\": {\"In\": 1}, \"3\": {\"In\": 1}, \"4\": {\"O\": 1}, \"5\": {\"O\": 1}, \"6\": {\"O\": 1}, \"7\": {\"O\": 1}, \"8\": {\"O\": 1}, \"9\": {\"O\": 1}}" n_minim_iter=3 energy=-11286.938474066912 stress="-0.12290242338822607 -5.428584607976373e-05 -3.7483613646386235e-05 -5.428584607976373e-05 -0.12283116106214784 -2.0233773692321047e-05 -3.7483613646386235e-05 -2.0233773692321047e-05 -0.12281582852720475" free_energy=-11286.938474066912 pbc="T T T"
In      10.06571505       5.43350505       3.75175888        0       0.05494954       0.02966194       0.02048115
In       7.49054706       4.04342117       2.79192550        1      -0.05494954      -0.02966194      -0.02048115
In       4.21362768       2.27452965       1.57053076        2       0.05494954       0.02966194       0.02048115
In       1.63845970       0.88444577       0.61069737        3      -0.05494954      -0.02966194      -0.02048115
O        5.73670899       2.20267499       0.13291684        4       0.00000000       0.00224582      -0.00325253
O        6.71486993       4.92266718       1.05499574        5      -0.00187752       0.00347816       0.00000000
O        7.79997012       2.01847092       2.34976329        6       0.00187752      -0.00123233      -0.00325253
O        3.90420462       4.29947989       2.01269296        7      -0.00187752       0.00123233       0.00325253
O        5.96746575       4.11527582       4.22953941        8       0.00000000      -0.00224582       0.00325253
O        4.98930482       1.39528364       3.30746051        9       0.00187752      -0.00347816      -0.00000000
10
Lattice="5.62106149347298 -0.0518662363092486 -0.035812907348632836 3.041038806057659 4.727695569717343 -0.03581290734862906 3.0410388060576587 1.6415624342478672 4.433696058451003" Properties=species:S:1:pos:R:3:spacegroup_kinds:I:1:forces:R:3 spacegroup="P 1" unit_cell=conventional occupancy="_JSON {\"0\": {\"In\": 1}, \"1\": {\"In\": 1}, \"2\": {\"In\": 1}, \"3\": {\"In\": 1}, \"4\": {\"O\": 1}, \"5\": {\"O\": 1}, \"6\": {\"O\": 1}, \"7\": {\"O\": 1}, \"8\": {\"O\": 1}, \"9\": {\"O\": 1}}" n_minim_iter=4 energy=-11286.939160242962 stress="-0.12211336687759969 5.754688673516974e-05 3.973531582144947e-05 5.754688673516974e-05 -0.12218891004921627 2.1449249883084586e-05 3.973531582144947e-05 2.1449249883084586e-05 -0.12220516363500569" free_energy=-11286.939160242962 pbc="T T T"
In      10.06807221       5.43477745       3.75263746        0       0.04390731       0.02370131       0.01636542
In       7.48663646       4.04131021       2.79046791        1      -0.04390731      -0.02370131      -0.01636542
In       4.21650265       2.27608157       1.57160234        2       0.04390731       0.02370131       0.01636542
In       1.63506691       0.88261433       0.60943279        3      -0.04390731      -0.02370131      -0.01636542
O        5.73631553       2.20429954       0.12996381        4      -0.00000000      -0.01560466       0.02259953
O        6.71269207       4.92530199       1.05470466        5       0.01304557      -0.02416728      -0.00000000
O        7.80097780       2.01704139       2.34681184        6      -0.01304557       0.00856262       0.02259953
O        3.90216132       4.30035039       2.01525841        7       0.01304557      -0.00856262      -0.02259953
O        5.96682359       4.11309224       4.23210644        8       0.00000000       0.01560466      -0.02259953
O        4.99044705       1.39208979       3.30736559        9      -0.01304557       0.02416728       0.00000000
10
Lattice="5.619316236981254 -0.053694388738770346 -0.03707522091207073 3.0385528011486005 4.727239673764722 -0.03707522091206698 3.038552801148599 1.64022048087919 4.433716982321409" Properties=species:S:1:pos:R:3:spacegroup_kinds:I:1:forces:R:3 spacegroup="P 1" unit_cell=conventional occupancy="_JSON {\"0\": {\"In\": 1}, \"1\": {\"In\": 1}, \"2\": {\"In\": 1}, \"3\": {\"In\": 1}, \"4\": {\"O\": 1}, \"5\": {\"O\": 1}, \"6\": {\"O\": 1}, \"7\": {\"O\": 1}, \"8\": {\"O\": 1}, \"9\": {\"O\": 1}}" n_minim_iter=5 energy=-11286.93956078993 stress="-0.12149900563640577 8.584428504138329e-05 5.9274272678484585e-05 8.584428504138329e-05 -0.12161169547441954 3.1996440479381665e-05 5.9274272678484585e-05 3.1996440479381665e-05 -0.12163594140064396" free_energy=-11286.93956078993 pbc="T T T"
In      10.06664387       5.43400643       3.75210508        0       0.01171286       0.00632264       0.00436570
In       7.47798890       4.03664223       2.78724474        1      -0.01171286      -0.00632264      -0.00436570
In       4.21843295       2.27712355       1.57232181        2       0.01171286       0.00632264       0.00436570
In       1.62977798       0.87975935       0.60746147        3      -0.01171286      -0.00632264      -0.00436570
O        5.73376358       2.20370937       0.12692480        4       0.00000000      -0.01587104       0.02298532
O        6.70786850       4.92515901       1.05281642        5       0.01326827      -0.02457982      -0.00000000
O        7.79821147       2.01387468       2.34378329        6      -0.01326827       0.00870878       0.02298532
O        3.89821038       4.29989109       2.01578326        7       0.01326827      -0.00870878      -0.02298532
O        5.96265827       4.11005641       4.23264175        8      -0.00000000       0.01587104      -0.02298532
O        4.98855335       1.38860677       3.30675013        9      -0.01326827       0.02457982       0.00000000
10
Lattice="5.618742737947693 -0.05429534158077731 -0.03749017040490396 3.0377357101283105 4.727089981666161 -0.03749017040490023 3.037735710128309 1.6397794125437266 4.433724020035898" Properties=species:S:1:pos:R:3:spacegroup_kinds:I:1:forces:R:3 spacegroup="P 1" unit_cell=conventional occupancy="_JSON {\"0\": {\"In\": 1}, \"1\": {\"In\": 1}, \"2\": {\"In\": 1}, \"3\": {\"In\": 1}, \"4\": {\"O\": 1}, \"5\": {\"O\": 1}, \"6\": {\"O\": 1}, \"7\": {\"O\": 1}, \"8\": {\"O\": 1}, \"9\": {\"O\": 1}}" n_minim_iter=6 energy=-11286.939686302465 stress="-0.12167439798104934 3.956247596323842e-05 2.7317334250904183e-05 3.956247596323842e-05 -0.12172633258885172 1.4745983572912424e-05 2.7317334250904183e-05 1.4745983572912424e-05 -0.12173750664265337" free_energy=-11286.939686302465 pbc="T T T"
In      10.06476515       5.43299229       3.75140483        0       0.00469491       0.00253433       0.00174992
In       7.47655610       4.03586880       2.78671069        1      -0.00469491      -0.00253433      -0.00174992
In       4.21765807       2.27670526       1.57203299        2       0.00469491       0.00253433       0.00174992
In       1.62944902       0.87958177       0.60733885        3      -0.00469491      -0.00253433      -0.00174992
O        5.73292491       2.20258729       0.12727002        4       0.00000000      -0.00634139       0.00918395
O        6.70705908       4.92367474       1.05219575        5       0.00530143      -0.00982105      -0.00000000
O        7.79652646       2.01334310       2.34413203        6      -0.00530143       0.00347966       0.00918395
O        3.89768771       4.29923097       2.01461166        7       0.00530143      -0.00347966      -0.00918395
O        5.96128925       4.10998678       4.23147367        8      -0.00000000       0.00634139      -0.00918395
O        4.98715509       1.38889933       3.30654793        9      -0.00530143       0.00982105       0.00000000
10
Lattice="5.6183196386724115 -0.05473876280140648 -0.03779634652680578 3.0371328439618517 4.726979583473294 -0.03779634652680206 3.037132843961851 1.6394539834667399 4.433729263552196" Properties=species:S:1:pos:R:3:spacegroup_kinds:I:1:forces:R:3 spacegroup="P 1" unit_cell=conventional occupancy="_JSON {\"0\": {\"In\": 1}, \"1\": {\"In\": 1}, \"2\": {\"In\": 1}, \"3\": {\"In\": 1}, \"4\": {\"O\": 1}, \"5\": {\"O\": 1}, \"6\": {\"O\": 1}, \"7\": {\"O\": 1}, \"8\": {\"O\": 1}, \"9\": {\"O\": 1}}" n_minim_iter=7 energy=-11286.93971044969 stress="-0.12179663786433459 1.4304857633000178e-08 9.878697657759463e-09 1.4304857633000178e-08 -0.12179665664190968 5.3311202198029795e-09 9.878697657759463e-09 5.3311202198029795e-09 -0.12179666068410261" free_energy=-11286.93971044969 pbc="T T T"
In      10.06338982       5.43224988       3.75089221        0       0.00000997       0.00000538       0.00000372
In       7.47548818       4.03529233       2.78631265        1      -0.00000997      -0.00000538      -0.00000372
In       4.21709716       2.27640248       1.57182392        2       0.00000997       0.00000538       0.00000372
In       1.62919551       0.87944493       0.60724437        3      -0.00000997      -0.00000538      -0.00000372
O        5.73230616       2.20180259       0.12746215        4      -0.00000000      -0.00000800       0.00001158
O        6.70642578       4.92264654       1.05173780        5       0.00000668      -0.00001238      -0.00000000
O        7.79531938       2.01292717       2.34432679        6      -0.00000668       0.00000439       0.00001158
O        3.89726596       4.29876765       2.01380979        7       0.00000668      -0.00000439      -0.00001158
O        5.96027918       4.10989222       4.23067442        8       0.00000000       0.00000800      -0.00001158
O        4.98615956       1.38904828       3.30639878        9      -0.00000668       0.00001238       0.00000000
