10
Lattice="5.750349024076844 -0.024581714640594922 -0.016973328537759392 3.1347916946369625 4.82080897678297 -0.016973328537754285 3.134791694636958 1.6921705421376485 4.51409416614613" Properties=species:S:1:pos:R:3:spacegroup_kinds:I:1:forces:R:3 spacegroup="P 1" unit_cell=conventional occupancy="_JSON {\"0\": {\"In\": 1}, \"1\": {\"In\": 1}, \"2\": {\"In\": 1}, \"3\": {\"In\": 1}, \"4\": {\"O\": 1}, \"5\": {\"O\": 1}, \"6\": {\"O\": 1}, \"7\": {\"O\": 1}, \"8\": {\"O\": 1}, \"9\": {\"O\": 1}}" n_minim_iter=5 energy=-11287.51145861143 stress="-0.05397829763543742 -2.670940077590728e-06 -1.8442460983246684e-06 -2.670940077590728e-06 -0.053974791430303266 -9.955292702610027e-07 -1.8442460983246684e-06 -9.955292702610027e-07 -0.05397403704819415" free_energy=-11287.51145861143 pbc="T T T"
In      10.32154914       5.57160511       3.84711503        0       0.00006040       0.00003261       0.00002251
In       7.70834949       4.16099161       2.87310624        1      -0.00006040      -0.00003261      -0.00002251
In       4.31158294       2.32740621       1.60704128        2       0.00006040       0.00003261       0.00002251
In       1.69838328       0.91679271       0.63303248        3      -0.00006040      -0.00003261      -0.00002251
O        5.88015762       2.25762300       0.17334951        4      -0.00000000       0.00000796      -0.00001153
O        6.90597740       5.02349741       1.10306355        5      -0.00000666       0.00001233       0.00000000
O        7.98912954       2.10042395       2.43039659        6       0.00000666      -0.00000437      -0.00001153
O        4.03080288       4.38797386       2.04975092        7      -0.00000666       0.00000437       0.00001153
O        6.13977480       4.23077481       4.30679800        8      -0.00000000      -0.00000796       0.00001153
O        5.11395503       1.46490041       3.37708396        9       0.00000666      -0.00001234      -0.00000000
