40
Lattice="5.447812051373687 -1.6992178159315277e-42 0.0 1.3414445378864549e-42 5.638289503797515 0.0 0.0 0.0 15.682782159687061" Properties=species:S:1:pos:R:3:spacegroup_kinds:I:1:forces:R:3 spacegroup="P 1" unit_cell=conventional occupancy="_JSON {\"0\": {\"In\": 1}, \"1\": {\"In\": 1}, \"2\": {\"In\": 1}, \"3\": {\"In\": 1}, \"4\": {\"In\": 1}, \"5\": {\"In\": 1}, \"6\": {\"In\": 1}, \"7\": {\"In\": 1}, \"8\": {\"In\": 1}, \"9\": {\"In\": 1}, \"10\": {\"In\": 1}, \"11\": {\"In\": 1}, \"12\": {\"In\": 1}, \"13\": {\"In\": 1}, \"14\": {\"In\": 1}, \"15\": {\"In\": 1}, \"16\": {\"O\": 1}, \"17\": {\"O\": 1}, \"18\": {\"O\": 1}, \"19\": {\"O\": 1}, \"20\": {\"O\": 1}, \"21\": {\"O\": 1}, \"22\": {\"O\": 1}, \"23\": {\"O\": 1}, \"24\": {\"O\": 1}, \"25\": {\"O\": 1}, \"26\": {\"O\": 1}, \"27\": {\"O\": 1}, \"28\": {\"O\": 1}, \"29\": {\"O\": 1}, \"30\": {\"O\": 1}, \"31\": {\"O\": 1}, \"32\": {\"O\": 1}, \"33\": {\"O\": 1}, \"34\": {\"O\": 1}, \"35\": {\"O\": 1}, \"36\": {\"O\": 1}, \"37\": {\"O\": 1}, \"38\": {\"O\": 1}, \"39\": {\"O\": 1}}" n_minim_iter=7 energy=-45149.90124431289 stress="-0.03217207927924839 3.949063684359017e-14 5.999630116251613e-14 3.949063684359017e-14 -0.032200964267658665 -4.936949388618442e-13 5.999630116251613e-14 -4.936949388618442e-13 -0.032406513656104" free_energy=-45149.90124431289 pbc="T T T"
In       2.71398965       4.52923013       8.96529775        0       0.00152027       0.00256301       0.00518333
In      -0.00991638       3.92820413       6.71748441        1       0.00152027      -0.00256301      -0.00518333
In       2.73382240       1.71008538      14.55887549        2      -0.00152027       0.00256301      -0.00518333
In       5.45772843       1.10905938       1.12390667        3      -0.00152027      -0.00256301       0.00518333
In       2.73382240       1.10905938       6.71748441        4      -0.00152027      -0.00256301      -0.00518333
In       5.45772843       1.71008538       8.96529775        5      -0.00152027       0.00256301       0.00518333
In       2.71398965       3.92820413       1.12390667        6       0.00152027      -0.00256301       0.00518333
In      -0.00991638       4.52923013      14.55887549        7       0.00152027       0.00256301      -0.00518333
In       2.71355661       4.24045388      12.83133462        8      -0.00310478       0.00074949      -0.00163164
In       5.43746263       4.21698038       2.85144754        9      -0.00310478      -0.00074949       0.00163164
In       2.73425544       1.42130913      10.69283862       10       0.00310478       0.00074949       0.00163164
In       0.01034942       1.39783563       4.98994354       11       0.00310478      -0.00074949      -0.00163164
In       2.73425544       1.39783563       2.85144754       12       0.00310478      -0.00074949       0.00163164
In       0.01034942       1.42130913      12.83133462       13       0.00310478       0.00074949      -0.00163164
In       2.71355661       4.21698038       4.98994354       14      -0.00310478      -0.00074949      -0.00163164
In       5.43746263       4.24045388      10.69283862       15      -0.00310478       0.00074949       0.00163164
O        4.67685796       5.01057557      12.51905295       16      -0.00343073       0.00015848       0.00844327
O        1.95295193       3.44685869       3.16372921       17      -0.00343073      -0.00015848      -0.00844327
O        0.77095409       2.19143082      11.00512029       18       0.00343073       0.00015848      -0.00844327
O        3.49486012       0.62771393       4.67766187       19       0.00343073      -0.00015848       0.00844327
O        0.77095409       0.62771393       3.16372921       20       0.00343073      -0.00015848      -0.00844327
O        3.49486012       2.19143082      12.51905295       21       0.00343073       0.00015848       0.00844327
O        4.67685796       3.44685869       4.67766187       22      -0.00343073      -0.00015848       0.00844327
O        1.95295193       5.01057557      11.00512029       23      -0.00343073       0.00015848      -0.00844327
O        3.85717883       2.99514818       9.80341808       24       0.00252221       0.00712502      -0.00066507
O        1.13327280       5.46228608       5.87936408       25       0.00252221      -0.00712502       0.00066507
O        1.59063322       0.17600343      13.72075516       26      -0.00252221       0.00712502       0.00066507
O        4.31453925       2.64314132       1.96202700       27      -0.00252221      -0.00712502      -0.00066507
O        1.59063322       2.64314132       5.87936408       28      -0.00252221      -0.00712502       0.00066507
O        4.31453925       0.17600343       9.80341808       29      -0.00252221       0.00712502      -0.00066507
O        3.85717883       5.46228608       1.96202700       30       0.00252221      -0.00712502      -0.00066507
O        1.13327280       2.99514818      13.72075516       31       0.00252221       0.00712502       0.00066507
O        3.50883876       3.75008499      14.86637905       32      -0.00453284       0.00346733       0.00198892
O        0.78493273       4.70734926       0.81640311       33      -0.00453284      -0.00346733      -0.00198892
O        1.93897329       0.93094024       8.65779419       34       0.00453284       0.00346733      -0.00198892
O        4.66287932       1.88820451       7.02498797       35       0.00453284      -0.00346733       0.00198892
O        1.93897329       1.88820451       0.81640311       36       0.00453284      -0.00346733      -0.00198892
O        4.66287932       0.93094024      14.86637905       37       0.00453284       0.00346733       0.00198892
O        3.50883876       4.70734926       7.02498797       38      -0.00453284      -0.00346733       0.00198892
O        0.78493273       3.75008499       8.65779419       39      -0.00453284       0.00346733      -0.00198892
