40
Lattice="5.417259673263209 -3.535049250433603e-42 0.0 3.7152318089973304e-42 5.347255738946378 0.0 0.0 0.0 15.281260577846256" Properties=species:S:1:pos:R:3:spacegroup_kinds:I:1:forces:R:3 spacegroup="P 1" unit_cell=conventional occupancy="_JSON {\"0\": {\"In\": 1}, \"1\": {\"In\": 1}, \"2\": {\"In\": 1}, \"3\": {\"In\": 1}, \"4\": {\"In\": 1}, \"5\": {\"In\": 1}, \"6\": {\"In\": 1}, \"7\": {\"In\": 1}, \"8\": {\"In\": 1}, \"9\": {\"In\": 1}, \"10\": {\"In\": 1}, \"11\": {\"In\": 1}, \"12\": {\"In\": 1}, \"13\": {\"In\": 1}, \"14\": {\"In\": 1}, \"15\": {\"In\": 1}, \"16\": {\"O\": 1}, \"17\": {\"O\": 1}, \"18\": {\"O\": 1}, \"19\": {\"O\": 1}, \"20\": {\"O\": 1}, \"21\": {\"O\": 1}, \"22\": {\"O\": 1}, \"23\": {\"O\": 1}, \"24\": {\"O\": 1}, \"25\": {\"O\": 1}, \"26\": {\"O\": 1}, \"27\": {\"O\": 1}, \"28\": {\"O\": 1}, \"29\": {\"O\": 1}, \"30\": {\"O\": 1}, \"31\": {\"O\": 1}, \"32\": {\"O\": 1}, \"33\": {\"O\": 1}, \"34\": {\"O\": 1}, \"35\": {\"O\": 1}, \"36\": {\"O\": 1}, \"37\": {\"O\": 1}, \"38\": {\"O\": 1}, \"39\": {\"O\": 1}}" n_minim_iter=27 energy=-45147.54243937865 stress="-0.07996902796459243 9.892844911379023e-13 1.249514351106976e-13 9.892844911379023e-13 -0.07997095527681992 3.8914863187862756e-13 1.249514351106976e-13 3.8914863187862756e-13 -0.07998119285305105" free_energy=-45147.54243937865 pbc="T T T"
In       2.73860553       4.10200898       8.65415538        0      -0.00057576      -0.00278440       0.00580600
In       0.02997569       3.91887463       6.62710520        1      -0.00057576       0.00278440      -0.00580600
In       2.67865414       1.42838111      14.26773549        2       0.00057576      -0.00278440      -0.00580600
In       5.38728398       1.24524676       1.01352509        3       0.00057576       0.00278440       0.00580600
In       2.67865414       1.24524676       6.62710520        4       0.00057576       0.00278440      -0.00580600
In       5.38728398       1.42838111       8.65415538        5       0.00057576      -0.00278440       0.00580600
In       2.73860553       3.91887463       1.01352509        6      -0.00057576       0.00278440       0.00580600
In       0.02997569       4.10200898      14.26773549        7      -0.00057576      -0.00278440      -0.00580600
In       2.73206412       3.84444363      12.44912757        8       0.00358521       0.00517277       0.00717775
In       5.44069395       4.17643998       2.83213301        9       0.00358521      -0.00517277      -0.00717775
In       2.68519556       1.17081576      10.47276330       10      -0.00358521       0.00517277      -0.00717775
In      -0.02343428       1.50281211       4.80849728       11      -0.00358521      -0.00517277       0.00717775
In       2.68519556       1.50281211       2.83213301       12      -0.00358521      -0.00517277      -0.00717775
In      -0.02343428       1.17081576      12.44912757       13      -0.00358521       0.00517277       0.00717775
In       2.73206412       4.17643998       4.80849728       14       0.00358521      -0.00517277       0.00717775
In       5.44069395       3.84444363      10.47276330       15       0.00358521       0.00517277      -0.00717775
O        4.69158254       4.52290769      12.26164285       16      -0.00033543       0.00095178      -0.00090936
O        1.98295270       3.49797592       3.01961773       17      -0.00033543      -0.00095178       0.00090936
O        0.72567714       1.84927982      10.66024802       18       0.00033543       0.00095178       0.00090936
O        3.43430697       0.82434805       4.62101256       19       0.00033543      -0.00095178      -0.00090936
O        0.72567714       0.82434805       3.01961773       20       0.00033543      -0.00095178       0.00090936
O        3.43430697       1.84927982      12.26164285       21       0.00033543       0.00095178      -0.00090936
O        4.69158254       3.49797592       4.62101256       22      -0.00033543      -0.00095178      -0.00090936
O        1.98295270       4.52290769      10.66024802       23      -0.00033543       0.00095178       0.00090936
O        3.85873274       2.65958502       9.60585268       24       0.00342807      -0.00248509      -0.00559827
O        1.15010290       5.36129859       5.67540790       25       0.00342807       0.00248509       0.00559827
O        1.55852694      -0.01404285      13.31603819       26      -0.00342807      -0.00248509       0.00559827
O        4.26715677       2.68767072       1.96522239       27      -0.00342807       0.00248509      -0.00559827
O        1.55852694       2.68767072       5.67540790       28      -0.00342807       0.00248509       0.00559827
O        4.26715677      -0.01404285       9.60585268       29      -0.00342807      -0.00248509      -0.00559827
O        3.85873274       5.36129859       1.96522239       30       0.00342807       0.00248509      -0.00559827
O        1.15010290       2.65958502      13.31603819       31       0.00342807      -0.00248509       0.00559827
O        3.49213916       3.43867311      14.43346562       32       0.00092894      -0.00774208       0.00093470
O        0.78350932       4.58221050       0.84779496       33       0.00092894       0.00774208      -0.00093470
O        1.92512051       0.76504524       8.48842525       34      -0.00092894      -0.00774208      -0.00093470
O        4.63375035       1.90858263       6.79283533       35      -0.00092894       0.00774208       0.00093470
O        1.92512051       1.90858263       0.84779496       36      -0.00092894       0.00774208      -0.00093470
O        4.63375035       0.76504524      14.43346562       37      -0.00092894      -0.00774208       0.00093470
O        3.49213916       4.58221050       6.79283533       38       0.00092894       0.00774208       0.00093470
O        0.78350932       3.43867311       8.48842525       39       0.00092894      -0.00774208      -0.00093470
