40
Lattice="5.887861657341047 3.3385464316391514e-42 0.0 -3.681438950474357e-42 6.3653479356269225 0.0 0.0 0.0 17.36925267462571" Properties=species:S:1:pos:R:3:spacegroup_kinds:I:1:forces:R:3 spacegroup="P 1" unit_cell=conventional occupancy="_JSON {\"0\": {\"In\": 1}, \"1\": {\"In\": 1}, \"2\": {\"In\": 1}, \"3\": {\"In\": 1}, \"4\": {\"In\": 1}, \"5\": {\"In\": 1}, \"6\": {\"In\": 1}, \"7\": {\"In\": 1}, \"8\": {\"In\": 1}, \"9\": {\"In\": 1}, \"10\": {\"In\": 1}, \"11\": {\"In\": 1}, \"12\": {\"In\": 1}, \"13\": {\"In\": 1}, \"14\": {\"In\": 1}, \"15\": {\"In\": 1}, \"16\": {\"O\": 1}, \"17\": {\"O\": 1}, \"18\": {\"O\": 1}, \"19\": {\"O\": 1}, \"20\": {\"O\": 1}, \"21\": {\"O\": 1}, \"22\": {\"O\": 1}, \"23\": {\"O\": 1}, \"24\": {\"O\": 1}, \"25\": {\"O\": 1}, \"26\": {\"O\": 1}, \"27\": {\"O\": 1}, \"28\": {\"O\": 1}, \"29\": {\"O\": 1}, \"30\": {\"O\": 1}, \"31\": {\"O\": 1}, \"32\": {\"O\": 1}, \"33\": {\"O\": 1}, \"34\": {\"O\": 1}, \"35\": {\"O\": 1}, \"36\": {\"O\": 1}, \"37\": {\"O\": 1}, \"38\": {\"O\": 1}, \"39\": {\"O\": 1}}" n_minim_iter=10 energy=-45145.72973357578 stress="0.06629364511835478 -1.2735564096715834e-13 -1.854685306155489e-13 -1.2735564096715834e-13 0.06627151763053295 2.210060105971325e-13 -1.854685306155489e-13 2.210060105971325e-13 0.06629659015774951" free_energy=-45145.72973357578 pbc="T T T"
In       2.69723846       5.33481213      10.02079404        0       0.00899895      -0.00155228       0.00311889
In      -0.24669237       4.21320977       7.34845863        1       0.00899895       0.00155228      -0.00311889
In       3.19062320       2.15213816      16.03308497        2      -0.00899895      -0.00155228      -0.00311889
In       6.13455403       1.03053580       1.33616771        3      -0.00899895       0.00155228       0.00311889
In       3.19062320       1.03053580       7.34845863        4      -0.00899895       0.00155228      -0.00311889
In       6.13455403       2.15213816      10.02079404        5      -0.00899895      -0.00155228       0.00311889
In       2.69723846       4.21320977       1.33616771        6       0.00899895       0.00155228       0.00311889
In      -0.24669237       5.33481213      16.03308497        7       0.00899895      -0.00155228      -0.00311889
In       2.69825628       5.10884106      14.11852394        8      -0.00631708      -0.00132479       0.00387192
In       5.64218711       4.43918084       3.25072873        9      -0.00631708       0.00132479      -0.00387192
In       3.18960538       1.92616709      11.93535507       10       0.00631708      -0.00132479      -0.00387192
In       0.24567455       1.25650688       5.43389761       11       0.00631708       0.00132479       0.00387192
In       3.18960538       1.25650688       3.25072873       12       0.00631708       0.00132479      -0.00387192
In       0.24567455       1.92616709      14.11852394       13       0.00631708      -0.00132479       0.00387192
In       2.69825628       4.43918084       5.43389761       14      -0.00631708       0.00132479       0.00387192
In       5.64218711       5.10884106      11.93535507       15      -0.00631708      -0.00132479      -0.00387192
O        4.81921480       5.69632139      13.92107602       16       0.00524290       0.00518080       0.00207666
O        1.87528397       3.85170051       3.44817666       17       0.00524290      -0.00518080      -0.00207666
O        1.06864686       2.51364743      12.13280300       18      -0.00524290       0.00518080      -0.00207666
O        4.01257769       0.66902654       5.23644968       19      -0.00524290      -0.00518080       0.00207666
O        1.06864686       0.66902654       3.44817666       20      -0.00524290      -0.00518080      -0.00207666
O        4.01257769       2.51364743      13.92107602       21      -0.00524290       0.00518080       0.00207666
O        4.81921480       3.85170051       5.23644968       22       0.00524290      -0.00518080       0.00207666
O        1.87528397       5.69632139      12.13280300       23       0.00524290       0.00518080      -0.00207666
O        4.07903709       3.84237242      11.04385824       24       0.00002381       0.00313971      -0.00094261
O        1.13510626       5.70564948       6.32539444       25       0.00002381      -0.00313971       0.00094261
O        1.80882457       0.65969845      15.01002078       26      -0.00002381       0.00313971       0.00094261
O        4.75275540       2.52297552       2.35923190       27      -0.00002381      -0.00313971      -0.00094261
O        1.80882457       2.52297552       6.32539444       28      -0.00002381      -0.00313971       0.00094261
O        4.75275540       0.65969845      11.04385824       29      -0.00002381       0.00313971      -0.00094261
O        4.07903709       5.70564948       2.35923190       30       0.00002381      -0.00313971      -0.00094261
O        1.13510626       3.84237242      15.01002078       31       0.00002381       0.00313971       0.00094261
O        3.71558227       4.23174466      16.66233613       32       0.00312043       0.00339638       0.00137126
O        0.77165144       5.31627724       0.70691655       33       0.00312043      -0.00339638      -0.00137126
O        2.17227939       1.04907070       9.39154289       34      -0.00312043       0.00339638      -0.00137126
O        5.11621022       2.13360327       7.97770979       35      -0.00312043      -0.00339638       0.00137126
O        2.17227939       2.13360327       0.70691655       36      -0.00312043      -0.00339638      -0.00137126
O        5.11621022       1.04907070      16.66233613       37      -0.00312043       0.00339638       0.00137126
O        3.71558227       5.31627724       7.97770979       38       0.00312043      -0.00339638       0.00137126
O        0.77165144       4.23174466       9.39154289       39       0.00312043       0.00339638      -0.00137126
