40
Lattice="5.778741412509143 2.1364505702438703e-42 0.0 3.574132663493864e-43 5.9507405935675415 0.0 0.0 0.0 16.658629528608127" Properties=species:S:1:pos:R:3:spacegroup_kinds:I:1:forces:R:3 spacegroup="P 1" unit_cell=conventional occupancy="_JSON {\"0\": {\"In\": 1}, \"1\": {\"In\": 1}, \"2\": {\"In\": 1}, \"3\": {\"In\": 1}, \"4\": {\"In\": 1}, \"5\": {\"In\": 1}, \"6\": {\"In\": 1}, \"7\": {\"In\": 1}, \"8\": {\"In\": 1}, \"9\": {\"In\": 1}, \"10\": {\"In\": 1}, \"11\": {\"In\": 1}, \"12\": {\"In\": 1}, \"13\": {\"In\": 1}, \"14\": {\"In\": 1}, \"15\": {\"In\": 1}, \"16\": {\"O\": 1}, \"17\": {\"O\": 1}, \"18\": {\"O\": 1}, \"19\": {\"O\": 1}, \"20\": {\"O\": 1}, \"21\": {\"O\": 1}, \"22\": {\"O\": 1}, \"23\": {\"O\": 1}, \"24\": {\"O\": 1}, \"25\": {\"O\": 1}, \"26\": {\"O\": 1}, \"27\": {\"O\": 1}, \"28\": {\"O\": 1}, \"29\": {\"O\": 1}, \"30\": {\"O\": 1}, \"31\": {\"O\": 1}, \"32\": {\"O\": 1}, \"33\": {\"O\": 1}, \"34\": {\"O\": 1}, \"35\": {\"O\": 1}, \"36\": {\"O\": 1}, \"37\": {\"O\": 1}, \"38\": {\"O\": 1}, \"39\": {\"O\": 1}}" n_minim_iter=11 energy=-45149.044361677414 stress="0.04645079320884937 8.758818748070522e-14 -3.2935157017740406e-14 8.758818748070522e-14 0.04684692042815272 4.2789646938654977e-14 -3.2935157017740406e-14 4.2789646938654977e-14 0.04660292770209616" free_energy=-45149.044361677414 pbc="T T T"
In       2.86875009       4.74995905       9.51608597        0      -0.00392669       0.00430466       0.00073605
In      -0.02062061       4.17615184       7.14254356        1      -0.00392669      -0.00430466      -0.00073605
In       2.90999132       1.77458875      15.47185832        2       0.00392669       0.00430466      -0.00073605
In       5.79936203       1.20078154       1.18677121        3       0.00392669      -0.00430466       0.00073605
In       2.90999132       1.20078154       7.14254356        4       0.00392669      -0.00430466      -0.00073605
In       5.79936203       1.77458875       9.51608597        5       0.00392669       0.00430466       0.00073605
In       2.86875009       4.17615184       1.18677121        6      -0.00392669      -0.00430466       0.00073605
In      -0.02062061       4.74995905      15.47185832        7      -0.00392669       0.00430466      -0.00073605
In       2.84580867       4.40351418      13.61228640        8      -0.00104421      -0.00090336       0.00339846
In       5.73517937       4.52259671       3.04634313        9      -0.00104421       0.00090336      -0.00339846
In       2.93293275       1.42814389      11.37565789       10       0.00104421      -0.00090336      -0.00339846
In       0.04356204       1.54722641       5.28297164       11       0.00104421       0.00090336       0.00339846
In       2.93293275       1.54722641       3.04634313       12       0.00104421       0.00090336      -0.00339846
In       0.04356204       1.42814389      13.61228640       13       0.00104421      -0.00090336       0.00339846
In       2.84580867       4.52259671       5.28297164       14      -0.00104421       0.00090336       0.00339846
In       5.73517937       4.40351418      11.37565789       15      -0.00104421      -0.00090336      -0.00339846
O        4.94658377       5.18070180      13.30203539       16      -0.00213537       0.00367636       0.00328921
O        2.05721306       3.74540909       3.35659414       17      -0.00213537      -0.00367636      -0.00328921
O        0.83215765       2.20533150      11.68590890       18       0.00213537       0.00367636      -0.00328921
O        3.72152835       0.77003879       4.97272062       19       0.00213537      -0.00367636       0.00328921
O        0.83215765       0.77003879       3.35659414       20       0.00213537      -0.00367636      -0.00328921
O        3.72152835       2.20533150      13.30203539       21       0.00213537       0.00367636       0.00328921
O        4.94658377       3.74540909       4.97272062       22      -0.00213537      -0.00367636       0.00328921
O        2.05721306       5.18070180      11.68590890       23      -0.00213537       0.00367636      -0.00328921
O        4.05895554       3.12791256      10.41546503       24       0.00153316      -0.00317272      -0.00322880
O        1.16958483       5.79819833       6.24316450       25       0.00153316       0.00317272       0.00322880
O        1.71978588       0.15254226      14.57247926       26      -0.00153316      -0.00317272       0.00322880
O        4.60915658       2.82282804       2.08615026       27      -0.00153316       0.00317272      -0.00322880
O        1.71978588       2.82282804       6.24316450       28      -0.00153316       0.00317272       0.00322880
O        4.60915658       0.15254226      10.41546503       29      -0.00153316      -0.00317272      -0.00322880
O        4.05895554       5.79819833       2.08615026       30       0.00153316       0.00317272      -0.00322880
O        1.16958483       3.12791256      14.57247926       31       0.00153316      -0.00317272       0.00322880
O        3.73851335       3.92194222      15.80569679       32      -0.00249629       0.00068154       0.00906306
O        0.84914265       5.00416867       0.85293273       33      -0.00249629      -0.00068154      -0.00906306
O        2.04022806       0.94657193       9.18224750       34       0.00249629       0.00068154      -0.00906306
O        4.92959876       2.02879837       7.47638203       35       0.00249629      -0.00068154       0.00906306
O        2.04022806       2.02879837       0.85293273       36       0.00249629      -0.00068154      -0.00906306
O        4.92959876       0.94657193      15.80569679       37       0.00249629       0.00068154       0.00906306
O        3.73851335       5.00416867       7.47638203       38      -0.00249629      -0.00068154       0.00906306
O        0.84914265       3.92194222       9.18224750       39      -0.00249629       0.00068154      -0.00906306
