40
Lattice="5.688918029849796 -3.3662318616666367e-43 0.0 2.035275897444556e-42 5.848220616652968 0.0 0.0 0.0 16.435644543956833" Properties=species:S:1:pos:R:3:spacegroup_kinds:I:1:forces:R:3 spacegroup="P 1" unit_cell=conventional occupancy="_JSON {\"0\": {\"In\": 1}, \"1\": {\"In\": 1}, \"2\": {\"In\": 1}, \"3\": {\"In\": 1}, \"4\": {\"In\": 1}, \"5\": {\"In\": 1}, \"6\": {\"In\": 1}, \"7\": {\"In\": 1}, \"8\": {\"In\": 1}, \"9\": {\"In\": 1}, \"10\": {\"In\": 1}, \"11\": {\"In\": 1}, \"12\": {\"In\": 1}, \"13\": {\"In\": 1}, \"14\": {\"In\": 1}, \"15\": {\"In\": 1}, \"16\": {\"O\": 1}, \"17\": {\"O\": 1}, \"18\": {\"O\": 1}, \"19\": {\"O\": 1}, \"20\": {\"O\": 1}, \"21\": {\"O\": 1}, \"22\": {\"O\": 1}, \"23\": {\"O\": 1}, \"24\": {\"O\": 1}, \"25\": {\"O\": 1}, \"26\": {\"O\": 1}, \"27\": {\"O\": 1}, \"28\": {\"O\": 1}, \"29\": {\"O\": 1}, \"30\": {\"O\": 1}, \"31\": {\"O\": 1}, \"32\": {\"O\": 1}, \"33\": {\"O\": 1}, \"34\": {\"O\": 1}, \"35\": {\"O\": 1}, \"36\": {\"O\": 1}, \"37\": {\"O\": 1}, \"38\": {\"O\": 1}, \"39\": {\"O\": 1}}" n_minim_iter=10 energy=-45149.97422883827 stress="0.024424978449388915 2.2648794494627583e-13 -5.3665650104188294e-14 2.2648794494627583e-13 0.024421900614593584 -8.006514347357813e-13 -5.3665650104188294e-14 -8.006514347357813e-13 0.024409376350157556" free_energy=-45149.97422883827 pbc="T T T"
In       2.83809605       4.65849643       9.37727022        0       0.00011683      -0.00323929      -0.00502437
In      -0.00636297       4.11383450       7.05837433        1       0.00011683       0.00323929       0.00502437
In       2.85082198       1.73438612      15.27619660        2      -0.00011683      -0.00323929       0.00502437
In       5.69528100       1.18972419       1.15944795        3      -0.00011683       0.00323929      -0.00502437
In       2.85082198       1.18972419       7.05837433        4      -0.00011683       0.00323929       0.00502437
In       5.69528100       1.73438612       9.37727022        5      -0.00011683      -0.00323929      -0.00502437
In       2.83809605       4.11383450       1.15944795        6       0.00011683       0.00323929      -0.00502437
In      -0.00636297       4.65849643      15.27619660        7       0.00011683      -0.00323929       0.00502437
In       2.82139809       4.35172667      13.44237132        8       0.00584415       0.00244989      -0.00007429
In       5.66585711       4.42060426       2.99327322        9       0.00584415      -0.00244989       0.00007429
In       2.86751994       1.42761636      11.21109549       10      -0.00584415       0.00244989       0.00007429
In       0.02306092       1.49649395       5.22454905       11      -0.00584415      -0.00244989      -0.00007429
In       2.86751994       1.49649395       2.99327322       12      -0.00584415      -0.00244989       0.00007429
In       0.02306092       1.42761636      13.44237132       13      -0.00584415       0.00244989      -0.00007429
In       2.82139809       4.42060426       5.22454905       14       0.00584415      -0.00244989      -0.00007429
In       5.66585711       4.35172667      11.21109549       15       0.00584415       0.00244989       0.00007429
O        4.88349325       5.12423949      13.11736388       16       0.00199343      -0.00000068       0.00552141
O        2.03903424       3.64809143       3.31828066       17       0.00199343       0.00000068      -0.00552141
O        0.80542478       2.20012919      11.53610294       18      -0.00199343      -0.00000068      -0.00552141
O        3.64988379       0.72398112       4.89954161       19      -0.00199343       0.00000068       0.00552141
O        0.80542478       0.72398112       3.31828066       20      -0.00199343       0.00000068      -0.00552141
O        3.64988379       2.20012919      13.11736388       21      -0.00199343      -0.00000068       0.00552141
O        4.88349325       3.64809143       4.89954161       22       0.00199343       0.00000068       0.00552141
O        2.03903424       5.12423949      11.53610294       23       0.00199343      -0.00000068      -0.00552141
O        4.01104183       3.07423738      10.26486583       24      -0.00122592      -0.00438991      -0.00261826
O        1.16658282       5.69809354       6.17077872       25      -0.00122592       0.00438991       0.00261826
O        1.67787620       0.15012708      14.38860099       26       0.00122592      -0.00438991       0.00261826
O        4.52233521       2.77398323       2.04704355       27       0.00122592       0.00438991      -0.00261826
O        1.67787620       2.77398323       6.17077872       28       0.00122592       0.00438991       0.00261826
O        4.52233521       0.15012708      10.26486583       29       0.00122592      -0.00438991      -0.00261826
O        4.01104183       5.69809354       2.04704355       30      -0.00122592       0.00438991      -0.00261826
O        1.16658282       3.07423738      14.38860099       31      -0.00122592      -0.00438991       0.00261826
O        3.67994346       3.85680669      15.58282761       32       0.00249753      -0.00033359      -0.00481694
O        0.83548445       4.91552423       0.85281693       33       0.00249753       0.00033359       0.00481694
O        2.00897457       0.93269638       9.07063920       34      -0.00249753      -0.00033359       0.00481694
O        4.85343358       1.99141393       7.36500534       35      -0.00249753       0.00033359      -0.00481694
O        2.00897457       1.99141393       0.85281693       36      -0.00249753       0.00033359       0.00481694
O        4.85343358       0.93269638      15.58282761       37      -0.00249753      -0.00033359      -0.00481694
O        3.67994346       4.91552423       7.36500534       38       0.00249753       0.00033359      -0.00481694
O        0.83548445       3.85680669       9.07063920       39       0.00249753      -0.00033359       0.00481694
