40
Lattice="5.417259673263208 -3.763869999543289e-42 0.0 3.715231808997329e-42 5.3472557389463775 0.0 0.0 0.0 15.281260577846254" Properties=species:S:1:pos:R:3:spacegroup_kinds:I:1:forces:R:3 spacegroup="P 1" unit_cell=conventional occupancy="_JSON {\"0\": {\"In\": 1}, \"1\": {\"In\": 1}, \"2\": {\"In\": 1}, \"3\": {\"In\": 1}, \"4\": {\"In\": 1}, \"5\": {\"In\": 1}, \"6\": {\"In\": 1}, \"7\": {\"In\": 1}, \"8\": {\"In\": 1}, \"9\": {\"In\": 1}, \"10\": {\"In\": 1}, \"11\": {\"In\": 1}, \"12\": {\"In\": 1}, \"13\": {\"In\": 1}, \"14\": {\"In\": 1}, \"15\": {\"In\": 1}, \"16\": {\"O\": 1}, \"17\": {\"O\": 1}, \"18\": {\"O\": 1}, \"19\": {\"O\": 1}, \"20\": {\"O\": 1}, \"21\": {\"O\": 1}, \"22\": {\"O\": 1}, \"23\": {\"O\": 1}, \"24\": {\"O\": 1}, \"25\": {\"O\": 1}, \"26\": {\"O\": 1}, \"27\": {\"O\": 1}, \"28\": {\"O\": 1}, \"29\": {\"O\": 1}, \"30\": {\"O\": 1}, \"31\": {\"O\": 1}, \"32\": {\"O\": 1}, \"33\": {\"O\": 1}, \"34\": {\"O\": 1}, \"35\": {\"O\": 1}, \"36\": {\"O\": 1}, \"37\": {\"O\": 1}, \"38\": {\"O\": 1}, \"39\": {\"O\": 1}}" n_minim_iter=1 energy=-45146.22457327457 stress="-0.13145427247323418 6.420670819387919e-15 -3.309416894350178e-13 6.420670819387919e-15 -0.1245550318592844 1.0499702926348754e-13 -3.309416894350178e-13 1.0499702926348754e-13 -0.12266307289720317" free_energy=-45146.22457327457 pbc="T T T"
In       2.73860553       4.10200898       8.65415538        0      -0.03559061      -0.14678903      -0.13780297
In       0.02997569       3.91887463       6.62710520        1      -0.03559061       0.14678903       0.13780297
In       2.67865414       1.42838111      14.26773549        2       0.03559061      -0.14678903       0.13780297
In       5.38728398       1.24524676       1.01352509        3       0.03559061       0.14678903      -0.13780297
In       2.67865414       1.24524676       6.62710520        4       0.03559061       0.14678903       0.13780297
In       5.38728398       1.42838111       8.65415538        5       0.03559061      -0.14678903      -0.13780297
In       2.73860553       3.91887463       1.01352509        6      -0.03559061       0.14678903      -0.13780297
In       0.02997569       4.10200898      14.26773549        7      -0.03559061      -0.14678903       0.13780297
In       2.73206412       3.84444363      12.44912757        8       0.03920681       0.05784042       0.02387970
In       5.44069395       4.17643998       2.83213301        9       0.03920681      -0.05784042      -0.02387970
In       2.68519556       1.17081576      10.47276330       10      -0.03920681       0.05784042      -0.02387970
In      -0.02343428       1.50281211       4.80849728       11      -0.03920681      -0.05784042       0.02387970
In       2.68519556       1.50281211       2.83213301       12      -0.03920681      -0.05784042      -0.02387970
In      -0.02343428       1.17081576      12.44912757       13      -0.03920681       0.05784042       0.02387970
In       2.73206412       4.17643998       4.80849728       14       0.03920681      -0.05784042       0.02387970
In       5.44069395       3.84444363      10.47276330       15       0.03920681       0.05784042      -0.02387970
O        4.69158254       4.52290769      12.26164285       16      -0.00436905       0.02149582       0.07339338
O        1.98295270       3.49797592       3.01961773       17      -0.00436905      -0.02149582      -0.07339338
O        0.72567714       1.84927982      10.66024802       18       0.00436905       0.02149582      -0.07339338
O        3.43430697       0.82434805       4.62101256       19       0.00436905      -0.02149582       0.07339338
O        0.72567714       0.82434805       3.01961773       20       0.00436905      -0.02149582      -0.07339338
O        3.43430697       1.84927982      12.26164285       21       0.00436905       0.02149582       0.07339338
O        4.69158254       3.49797592       4.62101256       22      -0.00436905      -0.02149582       0.07339338
O        1.98295270       4.52290769      10.66024802       23      -0.00436905       0.02149582      -0.07339338
O        3.85873274       2.65958502       9.60585268       24       0.01077722      -0.08288840       0.03120775
O        1.15010290       5.36129859       5.67540790       25       0.01077722       0.08288840      -0.03120775
O        1.55852694      -0.01404285      13.31603819       26      -0.01077722      -0.08288840      -0.03120775
O        4.26715677       2.68767072       1.96522239       27      -0.01077722       0.08288840       0.03120775
O        1.55852694       2.68767072       5.67540790       28      -0.01077722       0.08288840      -0.03120775
O        4.26715677      -0.01404285       9.60585268       29      -0.01077722      -0.08288840       0.03120775
O        3.85873274       5.36129859       1.96522239       30       0.01077722       0.08288840       0.03120775
O        1.15010290       2.65958502      13.31603819       31       0.01077722      -0.08288840      -0.03120775
O        3.49213916       3.43867311      14.43346562       32      -0.02408011      -0.03149255      -0.10923582
O        0.78350932       4.58221050       0.84779496       33      -0.02408011       0.03149255       0.10923582
O        1.92512051       0.76504524       8.48842525       34       0.02408011      -0.03149255       0.10923582
O        4.63375035       1.90858263       6.79283533       35       0.02408011       0.03149255      -0.10923582
O        1.92512051       1.90858263       0.84779496       36       0.02408011       0.03149255       0.10923582
O        4.63375035       0.76504524      14.43346562       37       0.02408011      -0.03149255      -0.10923582
O        3.49213916       4.58221050       6.79283533       38      -0.02408011       0.03149255      -0.10923582
O        0.78350932       3.43867311       8.48842525       39      -0.02408011      -0.03149255       0.10923582
40
Lattice="5.434191950048666 -3.782263423049895e-42 0.0 3.705246135852808e-42 5.341932947220445 0.0 0.0 0.0 15.248825101654404" Properties=species:S:1:pos:R:3:spacegroup_kinds:I:1:forces:R:3 spacegroup="P 1" unit_cell=conventional occupancy="_JSON {\"0\": {\"In\": 1}, \"1\": {\"In\": 1}, \"2\": {\"In\": 1}, \"3\": {\"In\": 1}, \"4\": {\"In\": 1}, \"5\": {\"In\": 1}, \"6\": {\"In\": 1}, \"7\": {\"In\": 1}, \"8\": {\"In\": 1}, \"9\": {\"In\": 1}, \"10\": {\"In\": 1}, \"11\": {\"In\": 1}, \"12\": {\"In\": 1}, \"13\": {\"In\": 1}, \"14\": {\"In\": 1}, \"15\": {\"In\": 1}, \"16\": {\"O\": 1}, \"17\": {\"O\": 1}, \"18\": {\"O\": 1}, \"19\": {\"O\": 1}, \"20\": {\"O\": 1}, \"21\": {\"O\": 1}, \"22\": {\"O\": 1}, \"23\": {\"O\": 1}, \"24\": {\"O\": 1}, \"25\": {\"O\": 1}, \"26\": {\"O\": 1}, \"27\": {\"O\": 1}, \"28\": {\"O\": 1}, \"29\": {\"O\": 1}, \"30\": {\"O\": 1}, \"31\": {\"O\": 1}, \"32\": {\"O\": 1}, \"33\": {\"O\": 1}, \"34\": {\"O\": 1}, \"35\": {\"O\": 1}, \"36\": {\"O\": 1}, \"37\": {\"O\": 1}, \"38\": {\"O\": 1}, \"39\": {\"O\": 1}}" n_minim_iter=2 energy=-45146.2306228103 stress="-0.12482728347747703 -3.581530441439824e-15 -2.875763282363995e-13 -3.581530441439824e-15 -0.12502067986615276 -4.970502121040225e-13 -2.875763282363995e-13 -4.970502121040225e-13 -0.1257094697034563" free_energy=-45146.2306228103 pbc="T T T"
In       2.74711723       4.09772807       8.63560101        0      -0.08919530      -0.19344226      -0.12381805
In       0.03002126       3.91517135       6.61322409        1      -0.08919530       0.19344226       0.12381805
In       2.68707472       1.42676160      14.23763664        2       0.08919530      -0.19344226       0.12381805
In       5.40417069       1.24420488       1.01118846        3       0.08919530       0.19344226      -0.12381805
In       2.68707472       1.24420488       6.61322409        4       0.08919530       0.19344226       0.12381805
In       5.40417069       1.42676160       8.63560101        5       0.08919530      -0.19344226      -0.12381805
In       2.74711723       3.91517135       1.01118846        6      -0.08919530       0.19344226      -0.12381805
In       0.03002126       4.09772807      14.23763664        7      -0.08919530      -0.19344226       0.12381805
In       2.74065651       3.84069466      12.42273560        8       0.08145232       0.08507655       0.02747246
In       5.45775249       4.17220476       2.82608950        9       0.08145232      -0.08507655      -0.02747246
In       2.69353544       1.16972819      10.45050205       10      -0.08145232       0.08507655      -0.02747246
In      -0.02356054       1.50123828       4.79832305       11      -0.08145232      -0.08507655       0.02747246
In       2.69353544       1.50123828       2.82608950       12      -0.08145232      -0.08507655      -0.02747246
In      -0.02356054       1.16972819      12.42273560       13      -0.08145232       0.08507655       0.02747246
In       2.74065651       4.17220476       4.79832305       14       0.08145232      -0.08507655       0.02747246
In       5.45775249       3.84069466      10.45050205       15       0.08145232       0.08507655      -0.02747246
O        4.70624072       4.51843442      12.23571543       16      -0.05507475       0.00997531       0.08760885
O        1.98914474       3.49446500       3.01310967       17      -0.05507475      -0.00997531      -0.08760885
O        0.72795123       1.84746795      10.63752222       18       0.05507475       0.00997531      -0.08760885
O        3.44504721       0.82349852       4.61130288       19       0.05507475      -0.00997531       0.08760885
O        0.72795123       0.82349852       3.01310967       20       0.05507475      -0.00997531      -0.08760885
O        3.44504721       1.84746795      12.23571543       21       0.05507475       0.00997531       0.08760885
O        4.70624072       3.49446500       4.61130288       22      -0.05507475      -0.00997531       0.08760885
O        1.98914474       4.51843442      10.63752222       23      -0.05507475       0.00997531      -0.08760885
O        3.87080823       2.65682598       9.58550561       24       0.02390474      -0.08482122       0.03714445
O        1.15371225       5.35607344       5.66331949       25       0.02390474       0.08482122      -0.03714445
O        1.56338372      -0.01414049      13.28773205       26      -0.02390474      -0.08482122      -0.03714445
O        4.28047970       2.68510696       1.96109306       27      -0.02390474       0.08482122       0.03714445
O        1.56338372       2.68510696       5.66331949       28      -0.02390474       0.08482122      -0.03714445
O        4.28047970      -0.01414049       9.58550561       29      -0.02390474      -0.08482122       0.03714445
O        3.87080823       5.35607344       1.96109306       30       0.02390474       0.08482122       0.03714445
O        1.15371225       2.65682598      13.28773205       31       0.02390474      -0.08482122      -0.03714445
O        3.50302169       3.43520776      14.40268271       32       0.03531804      -0.01935184      -0.12610073
O        0.78592571       4.57769166       0.84614239       33       0.03531804       0.01935184       0.12610073
O        1.93117026       0.76424129       8.47055494       34      -0.03531804      -0.01935184       0.12610073
O        4.64826624       1.90672519       6.77827016       35      -0.03531804       0.01935184      -0.12610073
O        1.93117026       1.90672519       0.84614239       36      -0.03531804       0.01935184       0.12610073
O        4.64826624       0.76424129      14.40268271       37      -0.03531804      -0.01935184      -0.12610073
O        3.50302169       4.57769166       6.77827016       38       0.03531804       0.01935184      -0.12610073
O        0.78592571       3.43520776       8.47055494       39       0.03531804      -0.01935184       0.12610073
40
Lattice="5.450976227642309 -3.79479091549841e-42 2.7303141532043266e-86 3.685502420656848e-42 5.31482624542721 2.99253660173248e-44 1.820968442284751e-85 1.5280974019029923e-43 15.279404608758151" Properties=species:S:1:pos:R:3:spacegroup_kinds:I:1:forces:R:3 spacegroup="P 1" unit_cell=conventional occupancy="_JSON {\"0\": {\"In\": 1}, \"1\": {\"In\": 1}, \"2\": {\"In\": 1}, \"3\": {\"In\": 1}, \"4\": {\"In\": 1}, \"5\": {\"In\": 1}, \"6\": {\"In\": 1}, \"7\": {\"In\": 1}, \"8\": {\"In\": 1}, \"9\": {\"In\": 1}, \"10\": {\"In\": 1}, \"11\": {\"In\": 1}, \"12\": {\"In\": 1}, \"13\": {\"In\": 1}, \"14\": {\"In\": 1}, \"15\": {\"In\": 1}, \"16\": {\"O\": 1}, \"17\": {\"O\": 1}, \"18\": {\"O\": 1}, \"19\": {\"O\": 1}, \"20\": {\"O\": 1}, \"21\": {\"O\": 1}, \"22\": {\"O\": 1}, \"23\": {\"O\": 1}, \"24\": {\"O\": 1}, \"25\": {\"O\": 1}, \"26\": {\"O\": 1}, \"27\": {\"O\": 1}, \"28\": {\"O\": 1}, \"29\": {\"O\": 1}, \"30\": {\"O\": 1}, \"31\": {\"O\": 1}, \"32\": {\"O\": 1}, \"33\": {\"O\": 1}, \"34\": {\"O\": 1}, \"35\": {\"O\": 1}, \"36\": {\"O\": 1}, \"37\": {\"O\": 1}, \"38\": {\"O\": 1}, \"39\": {\"O\": 1}}" n_minim_iter=3 energy=-45146.24696029103 stress="-0.12154152331333305 -9.283642921603915e-13 -2.8455923996992184e-13 -9.283642921603915e-13 -0.12761707420917584 -2.4565687200941286e-13 -2.8455923996992184e-13 -2.4565687200941286e-13 -0.11940789620858754" free_energy=-45146.24696029103 pbc="T T T"
In       2.75248777       4.07004005       8.64832554        0       0.03216334      -0.17376505      -0.08967342
In       0.02699966       3.90219932       6.63107907        1       0.03216334       0.17376505       0.08967342
In       2.69848845       1.41262692      14.27078138        2      -0.03216334      -0.17376505       0.08967342
In       5.42397657       1.24478620       1.00862323        3      -0.03216334       0.17376505      -0.08967342
In       2.69848845       1.24478620       6.63107907        4      -0.03216334       0.17376505       0.08967342
In       5.42397657       1.41262692       8.64832554        5      -0.03216334      -0.17376505      -0.08967342
In       2.75248777       3.90219932       1.00862323        6       0.03216334       0.17376505      -0.08967342
In       0.02699966       4.07004005      14.27078138        7       0.03216334      -0.17376505       0.08967342
In       2.75198972       3.82421403      12.44864272        8      -0.01167463       0.12278683      -0.09351255
In       5.47747783       4.14802534       2.83076189        9      -0.01167463      -0.12278683       0.09351255
In       2.69898651       1.16680091      10.47046420       10       0.01167463       0.12278683       0.09351255
In      -0.02650161       1.49061222       4.80894041       11       0.01167463      -0.12278683      -0.09351255
In       2.69898651       1.49061222       2.83076189       12       0.01167463      -0.12278683       0.09351255
In      -0.02650161       1.16680091      12.44864272       13       0.01167463       0.12278683      -0.09351255
In       2.75198972       4.14802534       4.80894041       14      -0.01167463      -0.12278683      -0.09351255
In       5.47747783       3.82421403      10.47046420       15      -0.01167463       0.12278683       0.09351255
O        4.71891750       4.49591187      12.26341548       16      -0.00553468      -0.07702476       0.02103219
O        1.99342939       3.47632750       3.01598913       17      -0.00553468       0.07702476      -0.02103219
O        0.73205872       1.83849875      10.65569143       18       0.00553468      -0.07702476      -0.02103219
O        3.45754684       0.81891438       4.62371318       19       0.00553468       0.07702476       0.02103219
O        0.73205872       0.81891438       3.01598913       20       0.00553468       0.07702476      -0.02103219
O        3.45754684       1.83849875      12.26341548       21       0.00553468      -0.07702476       0.02103219
O        4.71891750       3.47632750       4.62371318       22      -0.00553468       0.07702476       0.02103219
O        1.99342939       4.49591187      10.65569143       23      -0.00553468      -0.07702476      -0.02103219
O        3.88360292       2.64025475       9.60606943       24       0.07902583      -0.04773163      -0.00818396
O        1.15811480       5.33198462       5.67333518       25       0.07902583       0.04773163       0.00818396
O        1.56737331      -0.01715838      13.31303749       26      -0.07902583      -0.04773163       0.00818396
O        4.29286142       2.67457150       1.96636712       27      -0.07902583       0.04773163      -0.00818396
O        1.56737331       2.67457150       5.67333518       28      -0.07902583       0.04773163       0.00818396
O        4.29286142      -0.01715838       9.60606943       29      -0.07902583      -0.04773163      -0.00818396
O        3.88360292       5.33198462       1.96636712       30       0.07902583       0.04773163      -0.00818396
O        1.15811480       2.64025475      13.31303749       31       0.07902583      -0.04773163       0.00818396
O        3.51493596       3.41702642      14.42699981       32      -0.02776636      -0.00094095       0.00812239
O        0.78944784       4.55521295       0.85240480       33      -0.02776636       0.00094095      -0.00812239
O        1.93604027       0.75961330       8.49210710       34       0.02776636      -0.00094095      -0.00812239
O        4.66152838       1.89779982       6.78729751       35       0.02776636       0.00094095       0.00812239
O        1.93604027       1.89779982       0.85240480       36       0.02776636       0.00094095      -0.00812239
O        4.66152838       0.75961330      14.42699981       37       0.02776636      -0.00094095       0.00812239
O        3.51493596       4.55521295       6.78729751       38      -0.02776636       0.00094095       0.00812239
O        0.78944784       3.41702642       8.49210710       39      -0.02776636      -0.00094095      -0.00812239
40
Lattice="5.45388177004636 -3.797930781418275e-42 -2.6488344373499885e-84 3.694348789656956e-42 5.329122133828544 3.839698103183153e-42 1.702108813821459e-85 1.0856365313854937e-41 15.23029789035426" Properties=species:S:1:pos:R:3:spacegroup_kinds:I:1:forces:R:3 spacegroup="P 1" unit_cell=conventional occupancy="_JSON {\"0\": {\"In\": 1}, \"1\": {\"In\": 1}, \"2\": {\"In\": 1}, \"3\": {\"In\": 1}, \"4\": {\"In\": 1}, \"5\": {\"In\": 1}, \"6\": {\"In\": 1}, \"7\": {\"In\": 1}, \"8\": {\"In\": 1}, \"9\": {\"In\": 1}, \"10\": {\"In\": 1}, \"11\": {\"In\": 1}, \"12\": {\"In\": 1}, \"13\": {\"In\": 1}, \"14\": {\"In\": 1}, \"15\": {\"In\": 1}, \"16\": {\"O\": 1}, \"17\": {\"O\": 1}, \"18\": {\"O\": 1}, \"19\": {\"O\": 1}, \"20\": {\"O\": 1}, \"21\": {\"O\": 1}, \"22\": {\"O\": 1}, \"23\": {\"O\": 1}, \"24\": {\"O\": 1}, \"25\": {\"O\": 1}, \"26\": {\"O\": 1}, \"27\": {\"O\": 1}, \"28\": {\"O\": 1}, \"29\": {\"O\": 1}, \"30\": {\"O\": 1}, \"31\": {\"O\": 1}, \"32\": {\"O\": 1}, \"33\": {\"O\": 1}, \"34\": {\"O\": 1}, \"35\": {\"O\": 1}, \"36\": {\"O\": 1}, \"37\": {\"O\": 1}, \"38\": {\"O\": 1}, \"39\": {\"O\": 1}}" n_minim_iter=4 energy=-45146.25839812893 stress="-0.12132961999819725 2.296197417932682e-13 8.820247307699093e-13 2.296197417932682e-13 -0.12114258745761747 3.85969597239165e-13 8.820247307699093e-13 3.85969597239165e-13 -0.12166427822143484" free_energy=-45146.25839812893 pbc="T T T"
In       2.75186394       4.07561611       8.61704495        0       0.08806820      -0.09560719      -0.02401300
In       0.02492306       3.91806709       6.61325294        1       0.08806820       0.09560719       0.02401300
In       2.70201783       1.41105504      14.22840188        2      -0.08806820      -0.09560719       0.02401300
In       5.42895871       1.25350602       1.00189601        3      -0.08806820       0.09560719      -0.02401300
In       2.70201783       1.25350602       6.61325294        4      -0.08806820       0.09560719       0.02401300
In       5.42895871       1.41105504       8.61704495        5      -0.08806820      -0.09560719      -0.02401300
In       2.75186394       3.91806709       1.00189601        6       0.08806820       0.09560719      -0.02401300
In       0.02492306       4.07561611      14.22840188        7       0.08806820      -0.09560719       0.02401300
In       2.75543697       3.83698269      12.40905278        8      -0.05327147       0.01062590      -0.12495686
In       5.48237786       4.15670051       2.82124511        9      -0.05327147      -0.01062590       0.12495686
In       2.69844480       1.17242163      10.43639405       10       0.05327147       0.01062590       0.12495686
In      -0.02849609       1.49213944       4.79390384       11       0.05327147      -0.01062590      -0.12495686
In       2.69844480       1.49213944       2.82124511       12       0.05327147      -0.01062590       0.12495686
In      -0.02849609       1.17242163      12.40905278       13       0.05327147       0.01062590      -0.12495686
In       2.75543697       4.15670051       4.79390384       14      -0.05327147      -0.01062590      -0.12495686
In       5.48237786       3.83698269      10.43639405       15      -0.05327147       0.01062590       0.12495686
O        4.72011060       4.50806361      12.22628016       16       0.04332502      -0.03176159      -0.00825224
O        1.99316972       3.48561959       3.00401773       17       0.04332502       0.03176159       0.00825224
O        0.73377117       1.84350254      10.61916667       18      -0.04332502      -0.03176159       0.00825224
O        3.46071205       0.82105852       4.61113122       19      -0.04332502       0.03176159      -0.00825224
O        0.73377117       0.82105852       3.00401773       20      -0.04332502       0.03176159       0.00825224
O        3.46071205       1.84350254      12.22628016       21      -0.04332502      -0.03176159      -0.00825224
O        4.72011060       3.48561959       4.61113122       22       0.04332502       0.03176159      -0.00825224
O        1.99316972       4.50806361      10.61916667       23       0.04332502      -0.03176159       0.00825224
O        3.88650154       2.64503778       9.57611165       24       0.09814207      -0.00884993      -0.03630063
O        1.15956066       5.34864542       5.65418624       25       0.09814207       0.00884993       0.03630063
O        1.56738023      -0.01952329      13.26933519       26      -0.09814207      -0.00884993       0.03630063
O        4.29432111       2.68408435       1.96096270       27      -0.09814207       0.00884993      -0.03630063
O        1.56738023       2.68408435       5.65418624       28      -0.09814207       0.00884993       0.03630063
O        4.29432111      -0.01952329       9.57611165       29      -0.09814207      -0.00884993      -0.03630063
O        3.88650154       5.34864542       1.96096270       30       0.09814207       0.00884993      -0.03630063
O        1.15956066       2.64503778      13.26933519       31       0.09814207      -0.00884993       0.03630063
O        3.51749310       3.42568568      14.37745835       32      -0.05695809      -0.06193966       0.06140121
O        0.79055221       4.56799752       0.85283954       33      -0.05695809       0.06193966      -0.06140121
O        1.93638867       0.76112462       8.46798848       34       0.05695809      -0.06193966      -0.06140121
O        4.66332956       1.90343645       6.76230941       35       0.05695809       0.06193966       0.06140121
O        1.93638867       1.90343645       0.85283954       36       0.05695809       0.06193966      -0.06140121
O        4.66332956       0.76112462      14.37745835       37       0.05695809      -0.06193966       0.06140121
O        3.51749310       4.56799752       6.76230941       38      -0.05695809       0.06193966       0.06140121
O        0.79055221       3.42568568       8.46798848       39      -0.05695809      -0.06193966      -0.06140121
40
Lattice="5.461457756523138 -3.8051290370891396e-42 -3.321546770571992e-84 3.679732848136559e-42 5.310900591911334 4.6330979006788626e-42 8.073718938600736e-85 1.453892459783054e-41 15.26135304568859" Properties=species:S:1:pos:R:3:spacegroup_kinds:I:1:forces:R:3 spacegroup="P 1" unit_cell=conventional occupancy="_JSON {\"0\": {\"In\": 1}, \"1\": {\"In\": 1}, \"2\": {\"In\": 1}, \"3\": {\"In\": 1}, \"4\": {\"In\": 1}, \"5\": {\"In\": 1}, \"6\": {\"In\": 1}, \"7\": {\"In\": 1}, \"8\": {\"In\": 1}, \"9\": {\"In\": 1}, \"10\": {\"In\": 1}, \"11\": {\"In\": 1}, \"12\": {\"In\": 1}, \"13\": {\"In\": 1}, \"14\": {\"In\": 1}, \"15\": {\"In\": 1}, \"16\": {\"O\": 1}, \"17\": {\"O\": 1}, \"18\": {\"O\": 1}, \"19\": {\"O\": 1}, \"20\": {\"O\": 1}, \"21\": {\"O\": 1}, \"22\": {\"O\": 1}, \"23\": {\"O\": 1}, \"24\": {\"O\": 1}, \"25\": {\"O\": 1}, \"26\": {\"O\": 1}, \"27\": {\"O\": 1}, \"28\": {\"O\": 1}, \"29\": {\"O\": 1}, \"30\": {\"O\": 1}, \"31\": {\"O\": 1}, \"32\": {\"O\": 1}, \"33\": {\"O\": 1}, \"34\": {\"O\": 1}, \"35\": {\"O\": 1}, \"36\": {\"O\": 1}, \"37\": {\"O\": 1}, \"38\": {\"O\": 1}, \"39\": {\"O\": 1}}" n_minim_iter=5 energy=-45146.27668901621 stress="-0.11940863696009797 8.084276660989478e-14 -2.699646288247813e-13 8.084276660989478e-14 -0.11967087107281718 1.8222967338219983e-13 -2.699646288247813e-13 1.8222967338219983e-13 -0.11930925908803773" free_energy=-45146.27668901621 pbc="T T T"
In       2.75888619       4.04676099       8.62753409        0      -0.00530065      -0.01254332       0.04738789
In       0.02815731       3.91958990       6.63381896        1      -0.00530065       0.01254332      -0.04738789
In       2.70257156       1.39131069      14.26449548        2       0.00530065      -0.01254332      -0.04738789
In       5.43330044       1.26413960       0.99685756        3       0.00530065       0.01254332       0.04738789
In       2.70257156       1.26413960       6.63381896        4       0.00530065       0.01254332      -0.04738789
In       5.43330044       1.39131069       8.62753409        5       0.00530065      -0.01254332       0.04738789
In       2.75888619       3.91958990       0.99685756        6      -0.00530065       0.01254332       0.04738789
In       0.02815731       4.04676099      14.26449548        7      -0.00530065      -0.01254332      -0.04738789
In       2.75841932       3.82840303      12.42613811        8      -0.00479711      -0.05583066       0.07440834
In       5.48914820       4.13794786       2.83521493        9      -0.00479711       0.05583066      -0.07440834
In       2.70303844       1.17295274      10.46589146       10       0.00479711      -0.05583066      -0.07440834
In      -0.02769044       1.48249756       4.79546159       11       0.00479711       0.05583066       0.07440834
In       2.70303844       1.48249756       2.83521493       12       0.00479711       0.05583066      -0.07440834
In      -0.02769044       1.17295274      12.42613811       13       0.00479711      -0.05583066       0.07440834
In       2.75841932       4.13794786       4.79546159       14      -0.00479711       0.05583066       0.07440834
In       5.48914820       3.82840303      10.46589146       15      -0.00479711      -0.05583066      -0.07440834
O        4.72780841       4.49049823      12.25411525       16       0.00227221      -0.05557255       0.07240726
O        1.99707953       3.47585266       3.00723780       17       0.00227221       0.05557255      -0.07240726
O        0.73364935       1.83504793      10.63791432       18      -0.00227221      -0.05557255      -0.07240726
O        3.46437822       0.82040236       4.62343872       19      -0.00227221       0.05557255       0.07240726
O        0.73364935       0.82040236       3.00723780       20      -0.00227221       0.05557255      -0.07240726
O        3.46437822       1.83504793      12.25411525       21      -0.00227221      -0.05557255       0.07240726
O        4.72780841       3.47585266       4.62343872       22       0.00227221       0.05557255       0.07240726
O        1.99707953       4.49049823      10.63791432       23       0.00227221      -0.05557255      -0.07240726
O        3.90025355       2.63182280       9.59446861       24       0.06092362      -0.02513564      -0.02246273
O        1.16952467       5.33452809       5.66688444       25       0.06092362       0.02513564       0.02246273
O        1.56120421      -0.02362750      13.29756096       26      -0.06092362      -0.02513564       0.02246273
O        4.29193309       2.67907779       1.96379208       27      -0.06092362       0.02513564      -0.02246273
O        1.56120421       2.67907779       5.66688444       28      -0.06092362       0.02513564       0.02246273
O        4.29193309      -0.02362750       9.59446861       29      -0.06092362      -0.02513564      -0.02246273
O        3.90025355       5.33452809       1.96379208       30       0.06092362       0.02513564      -0.02246273
O        1.16952467       2.63182280      13.29756096       31       0.06092362      -0.02513564       0.02246273
O        3.51925980       3.40879428      14.40626118       32      -0.00960509      -0.03063265       0.00579440
O        0.78853093       4.55755661       0.85509187       33      -0.00960509       0.03063265      -0.00579440
O        1.94219795       0.75334398       8.48576839       34       0.00960509      -0.03063265      -0.00579440
O        4.67292683       1.90210632       6.77558466       35       0.00960509       0.03063265       0.00579440
O        1.94219795       1.90210632       0.85509187       36       0.00960509       0.03063265      -0.00579440
O        4.67292683       0.75334398      14.40626118       37       0.00960509      -0.03063265       0.00579440
O        3.51925980       4.55755661       6.77558466       38      -0.00960509       0.03063265       0.00579440
O        0.78853093       3.40879428       8.48576839       39      -0.00960509      -0.03063265      -0.00579440
40