40
Lattice="5.427463207797038 -1.6155553862276712e-42 0.0 1.5240797942274446e-42 5.558515115421607 0.0 0.0 0.0 15.535945714621588" Properties=species:S:1:pos:R:3:spacegroup_kinds:I:1:forces:R:3 spacegroup="P 1" unit_cell=conventional occupancy="_JSON {\"0\": {\"In\": 1}, \"1\": {\"In\": 1}, \"2\": {\"In\": 1}, \"3\": {\"In\": 1}, \"4\": {\"In\": 1}, \"5\": {\"In\": 1}, \"6\": {\"In\": 1}, \"7\": {\"In\": 1}, \"8\": {\"In\": 1}, \"9\": {\"In\": 1}, \"10\": {\"In\": 1}, \"11\": {\"In\": 1}, \"12\": {\"In\": 1}, \"13\": {\"In\": 1}, \"14\": {\"In\": 1}, \"15\": {\"In\": 1}, \"16\": {\"O\": 1}, \"17\": {\"O\": 1}, \"18\": {\"O\": 1}, \"19\": {\"O\": 1}, \"20\": {\"O\": 1}, \"21\": {\"O\": 1}, \"22\": {\"O\": 1}, \"23\": {\"O\": 1}, \"24\": {\"O\": 1}, \"25\": {\"O\": 1}, \"26\": {\"O\": 1}, \"27\": {\"O\": 1}, \"28\": {\"O\": 1}, \"29\": {\"O\": 1}, \"30\": {\"O\": 1}, \"31\": {\"O\": 1}, \"32\": {\"O\": 1}, \"33\": {\"O\": 1}, \"34\": {\"O\": 1}, \"35\": {\"O\": 1}, \"36\": {\"O\": 1}, \"37\": {\"O\": 1}, \"38\": {\"O\": 1}, \"39\": {\"O\": 1}}" n_minim_iter=8 energy=-45149.35288361636 stress="-0.052041634587311564 -4.381636045075754e-14 -3.328621153308144e-13 -4.381636045075754e-14 -0.051990589540766415 6.859072148690284e-13 -3.328621153308144e-13 6.859072148690284e-13 -0.0521144904538803" free_energy=-45149.35288361636 pbc="T T T"
In       2.70415366       4.45348640       8.88319430        0      -0.00291597       0.00787582      -0.00196037
In      -0.00957795       3.88428627       6.65275141        1      -0.00291597      -0.00787582       0.00196037
In       2.72330955       1.67422884      14.42072427        2       0.00291597       0.00787582       0.00196037
In       5.43704115       1.10502872       1.11522145        3       0.00291597      -0.00787582      -0.00196037
In       2.72330955       1.10502872       6.65275141        4       0.00291597      -0.00787582       0.00196037
In       5.43704115       1.67422884       8.88319430        5       0.00291597       0.00787582      -0.00196037
In       2.70415366       3.88428627       1.11522145        6      -0.00291597      -0.00787582      -0.00196037
In      -0.00957795       4.45348640      14.42072427        7      -0.00291597       0.00787582       0.00196037
In       2.71005889       4.18502168      12.70462124        8      -0.00014854       0.00353645      -0.00282001
In       5.42379049       4.15275099       2.83132447        9      -0.00014854      -0.00353645       0.00282001
In       2.71740432       1.40576413      10.59929733       10       0.00014854       0.00353645       0.00282001
In       0.00367272       1.37349343       4.93664839       11       0.00014854      -0.00353645      -0.00282001
In       2.71740432       1.37349343       2.83132447       12       0.00014854      -0.00353645       0.00282001
In       0.00367272       1.40576413      12.70462124       13       0.00014854       0.00353645      -0.00282001
In       2.71005889       4.15275099       4.93664839       14      -0.00014854      -0.00353645      -0.00282001
In       5.42379049       4.18502168      10.59929733       15      -0.00014854       0.00353645       0.00282001
O        4.66009582       4.94396898      12.40579364       16       0.00354731       0.00168380      -0.00496289
O        1.94636421       3.39380370       3.13015207       17       0.00354731      -0.00168380       0.00496289
O        0.76736739       2.16471142      10.89812493       18      -0.00354731       0.00168380       0.00496289
O        3.48109899       0.61454614       4.63782079       19      -0.00354731      -0.00168380      -0.00496289
O        0.76736739       0.61454614       3.13015207       20      -0.00354731      -0.00168380       0.00496289
O        3.48109899       2.16471142      12.40579364       21      -0.00354731       0.00168380      -0.00496289
O        4.66009582       3.39380370       4.63782079       22       0.00354731      -0.00168380      -0.00496289
O        1.94636421       4.94396898      10.89812493       23       0.00354731       0.00168380       0.00496289
O        3.85698422       2.94901301       9.72818319       24       0.00042835       0.00569925       0.00371284
O        1.14325262       5.38875966       5.80776252       25       0.00042835      -0.00569925      -0.00371284
O        1.57047899       0.16975545      13.57573538       26      -0.00042835       0.00569925      -0.00371284
O        4.28421059       2.60950210       1.96021034       27      -0.00042835      -0.00569925       0.00371284
O        1.57047899       2.60950210       5.80776252       28      -0.00042835      -0.00569925      -0.00371284
O        4.28421059       0.16975545       9.72818319       29      -0.00042835       0.00569925       0.00371284
O        3.85698422       5.38875966       1.96021034       30       0.00042835      -0.00569925       0.00371284
O        1.14325262       2.94901301      13.57573538       31       0.00042835       0.00569925      -0.00371284
O        3.48719108       3.70651988      14.72470579       32      -0.00166106       0.00248733      -0.00054426
O        0.77345947       4.63125280       0.81123993       33      -0.00166106      -0.00248733       0.00054426
O        1.94027213       0.92726232       8.57921279       34       0.00166106       0.00248733       0.00054426
O        4.65400373       1.85199524       6.95673293       35       0.00166106      -0.00248733      -0.00054426
O        1.94027213       1.85199524       0.81123993       36       0.00166106      -0.00248733       0.00054426
O        4.65400373       0.92726232      14.72470579       37       0.00166106       0.00248733      -0.00054426
O        3.48719108       4.63125280       6.95673293       38      -0.00166106      -0.00248733      -0.00054426
O        0.77345947       3.70651988       8.57921279       39      -0.00166106       0.00248733       0.00054426
