40
Lattice="5.683212554305467 -1.1218821331856854e-42 0.0 1.0372725001364893e-42 5.851106221425719 0.0 0.0 0.0 16.444030826738878" Properties=species:S:1:pos:R:3:spacegroup_kinds:I:1:forces:R:3 spacegroup="P 1" unit_cell=conventional occupancy="_JSON {\"0\": {\"In\": 1}, \"1\": {\"In\": 1}, \"2\": {\"In\": 1}, \"3\": {\"In\": 1}, \"4\": {\"In\": 1}, \"5\": {\"In\": 1}, \"6\": {\"In\": 1}, \"7\": {\"In\": 1}, \"8\": {\"In\": 1}, \"9\": {\"In\": 1}, \"10\": {\"In\": 1}, \"11\": {\"In\": 1}, \"12\": {\"In\": 1}, \"13\": {\"In\": 1}, \"14\": {\"In\": 1}, \"15\": {\"In\": 1}, \"16\": {\"O\": 1}, \"17\": {\"O\": 1}, \"18\": {\"O\": 1}, \"19\": {\"O\": 1}, \"20\": {\"O\": 1}, \"21\": {\"O\": 1}, \"22\": {\"O\": 1}, \"23\": {\"O\": 1}, \"24\": {\"O\": 1}, \"25\": {\"O\": 1}, \"26\": {\"O\": 1}, \"27\": {\"O\": 1}, \"28\": {\"O\": 1}, \"29\": {\"O\": 1}, \"30\": {\"O\": 1}, \"31\": {\"O\": 1}, \"32\": {\"O\": 1}, \"33\": {\"O\": 1}, \"34\": {\"O\": 1}, \"35\": {\"O\": 1}, \"36\": {\"O\": 1}, \"37\": {\"O\": 1}, \"38\": {\"O\": 1}, \"39\": {\"O\": 1}}" n_minim_iter=13 energy=-45150.21332677567 stress="0.012311425444813421 3.740382339811138e-13 3.832812135513923e-13 3.740382339811138e-13 0.012240497551827156 -5.114814925413904e-13 3.832812135513923e-13 -5.114814925413904e-13 0.012508355040996892" free_energy=-45150.21332677567 pbc="T T T"
In       2.83691372       4.67283128       9.38383956        0      -0.00426632      -0.00266531      -0.00455150
In      -0.00469256       4.10382805       7.06019127        1      -0.00426632       0.00266531       0.00455150
In       2.84629884       1.74727817      15.28220668        2       0.00426632      -0.00266531       0.00455150
In       5.68790511       1.17827494       1.16182414        3       0.00426632       0.00266531      -0.00455150
In       2.84629884       1.17827494       7.06019127        4       0.00426632       0.00266531       0.00455150
In       5.68790511       1.74727817       9.38383956        5       0.00426632      -0.00266531      -0.00455150
In       2.83691372       4.10382805       1.16182414        6      -0.00426632       0.00266531      -0.00455150
In      -0.00469256       4.67283128      15.28220668        7      -0.00426632      -0.00266531       0.00455150
In       2.82461040       4.37062221      13.45395737        8      -0.00708012       0.00042541      -0.00187721
In       5.66621668       4.40603713       2.99007345        9      -0.00708012      -0.00042541       0.00187721
In       2.85860215       1.44506909      11.21208887       10       0.00708012       0.00042541       0.00187721
In       0.01699588       1.48048402       5.23194196       11       0.00708012      -0.00042541      -0.00187721
In       2.85860215       1.48048402       2.99007345       12       0.00708012      -0.00042541       0.00187721
In       0.01699588       1.44506909      13.45395737       13       0.00708012       0.00042541      -0.00187721
In       2.82461040       4.40603713       5.23194196       14      -0.00708012      -0.00042541      -0.00187721
In       5.66621668       4.37062221      11.21208887       15      -0.00708012       0.00042541       0.00187721
O        4.88209246       5.14901556      13.12338601       16       0.00084579      -0.00119876       0.00534357
O        2.04048619       3.62764377       3.32064482       17       0.00084579       0.00119876      -0.00534357
O        0.80112009       2.22346245      11.54266023       18      -0.00084579      -0.00119876      -0.00534357
O        3.64272637       0.70209066       4.90137060       19      -0.00084579       0.00119876       0.00534357
O        0.80112009       0.70209066       3.32064482       20      -0.00084579       0.00119876      -0.00534357
O        3.64272637       2.22346245      13.12338601       21      -0.00084579      -0.00119876       0.00534357
O        4.88209246       3.62764377       4.90137060       22       0.00084579       0.00119876       0.00534357
O        2.04048619       5.14901556      11.54266023       23       0.00084579      -0.00119876      -0.00534357
O        4.01274609       3.08456990      10.26825143       24       0.00001606      -0.00056616       0.00106881
O        1.17113981       5.69208943       6.17577939       25       0.00001606       0.00056616      -0.00106881
O        1.67046646       0.15901679      14.39779481       26      -0.00001606      -0.00056616      -0.00106881
O        4.51207274       2.76653632       2.04623602       27      -0.00001606       0.00056616       0.00106881
O        1.67046646       2.76653632       6.17577939       28      -0.00001606       0.00056616      -0.00106881
O        4.51207274       0.15901679      10.26825143       29      -0.00001606      -0.00056616       0.00106881
O        4.01274609       5.69208943       2.04623602       30       0.00001606       0.00056616       0.00106881
O        1.17113981       3.08456990      14.39779481       31       0.00001606      -0.00056616      -0.00106881
O        3.67537144       3.86503523      15.58991382       32      -0.00138129      -0.00023940      -0.00369685
O        0.83376516       4.91162410       0.85411700       33      -0.00138129       0.00023940       0.00369685
O        2.00784112       0.93948212       9.07613242       34       0.00138129      -0.00023940       0.00369685
O        4.84944740       1.98607099       7.36789841       35       0.00138129       0.00023940      -0.00369685
O        2.00784112       1.98607099       0.85411700       36       0.00138129       0.00023940       0.00369685
O        4.84944740       0.93948212      15.58991382       37       0.00138129      -0.00023940      -0.00369685
O        3.67537144       4.91162410       7.36789841       38      -0.00138129       0.00023940      -0.00369685
O        0.83376516       3.86503523       9.07613242       39      -0.00138129      -0.00023940       0.00369685
