40
Lattice="5.899537101040105 3.378239854321512e-42 0.0 -1.866346961104678e-42 6.20233856823231 0.0 0.0 0.0 16.72304372084901" Properties=species:S:1:pos:R:3:spacegroup_kinds:I:1:forces:R:3 spacegroup="P 1" unit_cell=conventional occupancy="_JSON {\"0\": {\"In\": 1}, \"1\": {\"In\": 1}, \"2\": {\"In\": 1}, \"3\": {\"In\": 1}, \"4\": {\"In\": 1}, \"5\": {\"In\": 1}, \"6\": {\"In\": 1}, \"7\": {\"In\": 1}, \"8\": {\"In\": 1}, \"9\": {\"In\": 1}, \"10\": {\"In\": 1}, \"11\": {\"In\": 1}, \"12\": {\"In\": 1}, \"13\": {\"In\": 1}, \"14\": {\"In\": 1}, \"15\": {\"In\": 1}, \"16\": {\"O\": 1}, \"17\": {\"O\": 1}, \"18\": {\"O\": 1}, \"19\": {\"O\": 1}, \"20\": {\"O\": 1}, \"21\": {\"O\": 1}, \"22\": {\"O\": 1}, \"23\": {\"O\": 1}, \"24\": {\"O\": 1}, \"25\": {\"O\": 1}, \"26\": {\"O\": 1}, \"27\": {\"O\": 1}, \"28\": {\"O\": 1}, \"29\": {\"O\": 1}, \"30\": {\"O\": 1}, \"31\": {\"O\": 1}, \"32\": {\"O\": 1}, \"33\": {\"O\": 1}, \"34\": {\"O\": 1}, \"35\": {\"O\": 1}, \"36\": {\"O\": 1}, \"37\": {\"O\": 1}, \"38\": {\"O\": 1}, \"39\": {\"O\": 1}}" n_minim_iter=31 energy=-45148.086389732605 stress="0.03406349107879788 4.823993383041691e-13 1.4319577872147222e-13 4.823993383041691e-13 0.03413703765136149 1.5504782671541693e-13 1.4319577872147222e-13 1.5504782671541693e-13 0.03410707900469489" free_energy=-45148.086389732605 pbc="T T T"
In       2.66193427       5.15907335       9.64573398        0       0.00289141      -0.00198548       0.00184606
In      -0.28783428       4.14443451       7.07730974        1       0.00289141       0.00198548      -0.00184606
In       3.23760283       2.05790406      15.43883160        2      -0.00289141      -0.00198548      -0.00184606
In       6.18737138       1.04326522       1.28421212        3      -0.00289141       0.00198548       0.00184606
In       3.23760283       1.04326522       7.07730974        4      -0.00289141       0.00198548      -0.00184606
In       6.18737138       2.05790406       9.64573398        5      -0.00289141      -0.00198548       0.00184606
In       2.66193427       4.14443451       1.28421212        6       0.00289141       0.00198548       0.00184606
In      -0.28783428       5.15907335      15.43883160        7       0.00289141      -0.00198548      -0.00184606
In       2.67090875       4.94664168      13.62803172        8      -0.00447643      -0.00477564      -0.00304320
In       5.62067730       4.35686618       3.09501200        9      -0.00447643       0.00477564       0.00304320
In       3.22862835       1.84547239      11.45653386       10       0.00447643      -0.00477564       0.00304320
In       0.27885980       1.25569689       5.26650986       11       0.00447643       0.00477564      -0.00304320
In       3.22862835       1.25569689       3.09501200       12       0.00447643       0.00477564       0.00304320
In       0.27885980       1.84547239      13.62803172       13       0.00447643      -0.00477564      -0.00304320
In       2.67090875       4.35686618       5.26650986       14      -0.00447643       0.00477564      -0.00304320
In       5.62067730       4.94664168      11.45653386       15      -0.00447643      -0.00477564       0.00304320
O        4.78356199       5.63927172      13.38647386       16       0.00101798       0.00438274      -0.00029783
O        1.83379344       3.66423613       3.33656987       17       0.00101798      -0.00438274       0.00029783
O        1.11597511       2.53810244      11.69809173       18      -0.00101798       0.00438274       0.00029783
O        4.06574367       0.56306685       5.02495200       19      -0.00101798      -0.00438274      -0.00029783
O        1.11597511       0.56306685       3.33656987       20      -0.00101798      -0.00438274       0.00029783
O        4.06574367       2.53810244      13.38647386       21      -0.00101798       0.00438274      -0.00029783
O        4.78356199       3.66423613       5.02495200       22       0.00101798      -0.00438274      -0.00029783
O        1.83379344       5.63927172      11.69809173       23       0.00101798       0.00438274       0.00029783
O        4.08065637       3.66025616      10.51700556       24      -0.00553411       0.00035871       0.00417376
O        1.13088782       5.64325169       6.20603816       25      -0.00553411      -0.00035871      -0.00417376
O        1.81888073       0.55908687      14.56756002       26       0.00553411       0.00035871      -0.00417376
O        4.76864928       2.54208241       2.15548370       27       0.00553411      -0.00035871       0.00417376
O        1.81888073       2.54208241       6.20603816       28       0.00553411      -0.00035871      -0.00417376
O        4.76864928       0.55908687      10.51700556       29       0.00553411       0.00035871       0.00417376
O        4.08065637       5.64325169       2.15548370       30      -0.00553411      -0.00035871       0.00417376
O        1.13088782       3.66025616      14.56756002       31      -0.00553411       0.00035871      -0.00417376
O        3.72185328       4.15239946      15.99406509       32      -0.00456400      -0.00308230      -0.00200163
O        0.77208473       5.15110840       0.72897863       33      -0.00456400       0.00308230       0.00200163
O        2.17768382       1.05123017       9.09050049       34       0.00456400      -0.00308230       0.00200163
O        5.12745237       2.04993911       7.63254323       35       0.00456400       0.00308230      -0.00200163
O        2.17768382       2.04993911       0.72897863       36       0.00456400       0.00308230       0.00200163
O        5.12745237       1.05123017      15.99406509       37       0.00456400      -0.00308230      -0.00200163
O        3.72185328       5.15110840       7.63254323       38      -0.00456400       0.00308230      -0.00200163
O        0.77208473       4.15239946       9.09050049       39      -0.00456400      -0.00308230       0.00200163
