40
Lattice="5.73961945368621 6.467095246061281e-43 0.0 -2.3728771863768724e-43 5.89756681401269 0.0 0.0 0.0 16.538775814498177" Properties=species:S:1:pos:R:3:spacegroup_kinds:I:1:forces:R:3 spacegroup="P 1" unit_cell=conventional occupancy="_JSON {\"0\": {\"In\": 1}, \"1\": {\"In\": 1}, \"2\": {\"In\": 1}, \"3\": {\"In\": 1}, \"4\": {\"In\": 1}, \"5\": {\"In\": 1}, \"6\": {\"In\": 1}, \"7\": {\"In\": 1}, \"8\": {\"In\": 1}, \"9\": {\"In\": 1}, \"10\": {\"In\": 1}, \"11\": {\"In\": 1}, \"12\": {\"In\": 1}, \"13\": {\"In\": 1}, \"14\": {\"In\": 1}, \"15\": {\"In\": 1}, \"16\": {\"O\": 1}, \"17\": {\"O\": 1}, \"18\": {\"O\": 1}, \"19\": {\"O\": 1}, \"20\": {\"O\": 1}, \"21\": {\"O\": 1}, \"22\": {\"O\": 1}, \"23\": {\"O\": 1}, \"24\": {\"O\": 1}, \"25\": {\"O\": 1}, \"26\": {\"O\": 1}, \"27\": {\"O\": 1}, \"28\": {\"O\": 1}, \"29\": {\"O\": 1}, \"30\": {\"O\": 1}, \"31\": {\"O\": 1}, \"32\": {\"O\": 1}, \"33\": {\"O\": 1}, \"34\": {\"O\": 1}, \"35\": {\"O\": 1}, \"36\": {\"O\": 1}, \"37\": {\"O\": 1}, \"38\": {\"O\": 1}, \"39\": {\"O\": 1}}" n_minim_iter=11 energy=-45149.581273550866 stress="0.035774453718990976 -3.261570473027644e-13 -3.509387689622899e-13 -3.261570473027644e-13 0.035710018658543834 -1.7770652718427766e-13 -3.509387689622899e-13 -1.7770652718427766e-13 0.03574269203679248" free_energy=-45149.581273550866 pbc="T T T"
In       2.86011081       4.69463264       9.43800633        0      -0.00037697      -0.00016397       0.00054426
In      -0.00969892       4.15171758       7.10076949        1      -0.00037697       0.00016397      -0.00054426
In       2.87950865       1.74584923      15.37015740        2       0.00037697      -0.00016397      -0.00054426
In       5.74931837       1.20293417       1.16861842        3       0.00037697       0.00016397       0.00054426
In       2.87950865       1.20293417       7.10076949        4       0.00037697       0.00016397      -0.00054426
In       5.74931837       1.74584923       9.43800633        5       0.00037697      -0.00016397       0.00054426
In       2.86011081       4.15171758       1.16861842        6      -0.00037697       0.00016397       0.00054426
In      -0.00969892       4.69463264      15.37015740        7      -0.00037697      -0.00016397      -0.00054426
In       2.83934347       4.37204371      13.52119018        8       0.00482497      -0.00379888       0.00330556
In       5.70915320       4.47430651       3.01758563        9       0.00482497       0.00379888      -0.00330556
In       2.90027598       1.42326030      11.28697354       10      -0.00482497      -0.00379888      -0.00330556
In       0.03046626       1.52552311       5.25180228       11      -0.00482497       0.00379888       0.00330556
In       2.90027598       1.52552311       3.01758563       12      -0.00482497       0.00379888      -0.00330556
In       0.03046626       1.42326030      13.52119018       13      -0.00482497      -0.00379888       0.00330556
In       2.83934347       4.47430651       5.25180228       14       0.00482497       0.00379888       0.00330556
In       5.70915320       4.37204371      11.28697354       15       0.00482497      -0.00379888      -0.00330556
O        4.92235361       5.14776021      13.20214921       16       0.00399790      -0.00041757       0.00261693
O        2.05254388       3.69859001       3.33662661       17       0.00399790       0.00041757      -0.00261693
O        0.81726585       2.19897680      11.60601451       18      -0.00399790      -0.00041757      -0.00261693
O        3.68707557       0.74980661       4.93276130       19      -0.00399790       0.00041757       0.00261693
O        0.81726585       0.74980661       3.33662661       20      -0.00399790       0.00041757      -0.00261693
O        3.68707557       2.19897680      13.20214921       21      -0.00399790      -0.00041757       0.00261693
O        4.92235361       3.69859001       4.93276130       22       0.00399790       0.00041757       0.00261693
O        2.05254388       5.14776021      11.60601451       23       0.00399790      -0.00041757      -0.00261693
O        4.03778595       3.09735858      10.33246569       24       0.00160436      -0.00487035      -0.00372246
O        1.16797622       5.74899164       6.20631013       25       0.00160436       0.00487035       0.00372246
O        1.70183350       0.14857518      14.47569803       26      -0.00160436      -0.00487035       0.00372246
O        4.57164323       2.80020823       2.06307778       27      -0.00160436       0.00487035      -0.00372246
O        1.70183350       2.80020823       6.20631013       28      -0.00160436       0.00487035       0.00372246
O        4.57164323       0.14857518      10.33246569       29      -0.00160436      -0.00487035      -0.00372246
O        4.03778595       5.74899164       2.06307778       30       0.00160436       0.00487035      -0.00372246
O        1.16797622       3.09735858      14.47569803       31       0.00160436      -0.00487035       0.00372246
O        3.71416721       3.88693938      15.68363663       32       0.00234087      -0.00081240       0.00069191
O        0.84435748       4.95941084       0.85513918       33       0.00234087       0.00081240      -0.00069191
O        2.02545225       0.93815598       9.12452709       34      -0.00234087      -0.00081240      -0.00069191
O        4.89526197       2.01062743       7.41424873       35      -0.00234087       0.00081240       0.00069191
O        2.02545225       2.01062743       0.85513918       36      -0.00234087       0.00081240      -0.00069191
O        4.89526197       0.93815598      15.68363663       37      -0.00234087      -0.00081240       0.00069191
O        3.71416721       4.95941084       7.41424873       38       0.00234087       0.00081240       0.00069191
O        0.84435748       3.88693938       9.12452709       39       0.00234087      -0.00081240      -0.00069191
