40
Lattice="5.496455804265979 -1.7143902063827567e-42 0.0 1.3534223550365912e-42 5.688634038221894 0.0 0.0 0.0 15.822814409853821" Properties=species:S:1:pos:R:3:spacegroup_kinds:I:1:forces:R:3 spacegroup="P 1" unit_cell=conventional occupancy="_JSON {\"0\": {\"In\": 1}, \"1\": {\"In\": 1}, \"2\": {\"In\": 1}, \"3\": {\"In\": 1}, \"4\": {\"In\": 1}, \"5\": {\"In\": 1}, \"6\": {\"In\": 1}, \"7\": {\"In\": 1}, \"8\": {\"In\": 1}, \"9\": {\"In\": 1}, \"10\": {\"In\": 1}, \"11\": {\"In\": 1}, \"12\": {\"In\": 1}, \"13\": {\"In\": 1}, \"14\": {\"In\": 1}, \"15\": {\"In\": 1}, \"16\": {\"O\": 1}, \"17\": {\"O\": 1}, \"18\": {\"O\": 1}, \"19\": {\"O\": 1}, \"20\": {\"O\": 1}, \"21\": {\"O\": 1}, \"22\": {\"O\": 1}, \"23\": {\"O\": 1}, \"24\": {\"O\": 1}, \"25\": {\"O\": 1}, \"26\": {\"O\": 1}, \"27\": {\"O\": 1}, \"28\": {\"O\": 1}, \"29\": {\"O\": 1}, \"30\": {\"O\": 1}, \"31\": {\"O\": 1}, \"32\": {\"O\": 1}, \"33\": {\"O\": 1}, \"34\": {\"O\": 1}, \"35\": {\"O\": 1}, \"36\": {\"O\": 1}, \"37\": {\"O\": 1}, \"38\": {\"O\": 1}, \"39\": {\"O\": 1}}" n_minim_iter=7 energy=-45149.90124431289 stress="-0.03217207927924839 3.949063684359017e-14 5.999630116251613e-14 3.949063684359017e-14 -0.032200964267658665 -4.936949388618442e-13 5.999630116251613e-14 -4.936949388618442e-13 -0.032406513656104" free_energy=-45149.90124431289 pbc="T T T"
In       2.73822298       4.56967182       9.04534929        0       0.00152027       0.00256301       0.00518333
In      -0.01000492       3.96327923       6.77746512        1       0.00152027      -0.00256301      -0.00518333
In       2.75823282       1.72535480      14.68887232        2      -0.00152027       0.00256301      -0.00518333
In       5.50646073       1.11896222       1.13394209        3      -0.00152027      -0.00256301       0.00518333
In       2.75823282       1.11896222       6.77746512        4      -0.00152027      -0.00256301      -0.00518333
In       5.50646073       1.72535480       9.04534929        5      -0.00152027       0.00256301       0.00518333
In       2.73822298       3.96327923       1.13394209        6       0.00152027      -0.00256301       0.00518333
In      -0.01000492       4.56967182      14.68887232        7       0.00152027       0.00256301      -0.00518333
In       2.73778607       4.27831708      12.94590617        8      -0.00310478       0.00074949      -0.00163164
In       5.48601398       4.25463398       2.87690824        9      -0.00310478      -0.00074949       0.00163164
In       2.75866973       1.43400006      10.78831544       10       0.00310478       0.00074949       0.00163164
In       0.01044183       1.41031696       5.03449897       11       0.00310478      -0.00074949      -0.00163164
In       2.75866973       1.41031696       2.87690824       12       0.00310478      -0.00074949       0.00163164
In       0.01044183       1.43400006      12.94590617       13       0.00310478       0.00074949      -0.00163164
In       2.73778607       4.25463398       5.03449897       14      -0.00310478      -0.00074949      -0.00163164
In       5.48601398       4.27831708      10.78831544       15      -0.00310478       0.00074949       0.00163164
O        4.71861783       5.05531522      12.63083613       16      -0.00343073       0.00015848       0.00844327
O        1.97038993       3.47763584       3.19197828       17      -0.00343073      -0.00015848      -0.00844327
O        0.77783797       2.21099820      11.10338549       18       0.00343073       0.00015848      -0.00844327
O        3.52606588       0.63331882       4.71942892       19       0.00343073      -0.00015848       0.00844327
O        0.77783797       0.63331882       3.19197828       20       0.00343073      -0.00015848      -0.00844327
O        3.52606588       2.21099820      12.63083613       21       0.00343073       0.00015848       0.00844327
O        4.71861783       3.47763584       4.71942892       22      -0.00343073      -0.00015848       0.00844327
O        1.97038993       5.05531522      11.10338549       23      -0.00343073       0.00015848      -0.00844327
O        3.89161975       3.02189199       9.89095323       24       0.00252221       0.00712502      -0.00066507
O        1.14339184       5.51105907       5.93186118       25       0.00252221      -0.00712502       0.00066507
O        1.60483606       0.17757497      13.84326838       26      -0.00252221       0.00712502       0.00066507
O        4.35306396       2.66674205       1.97954603       27      -0.00252221      -0.00712502      -0.00066507
O        1.60483606       2.66674205       5.93186118       28      -0.00252221      -0.00712502       0.00066507
O        4.35306396       0.17757497       9.89095323       29      -0.00252221       0.00712502      -0.00066507
O        3.89161975       5.51105907       1.97954603       30       0.00252221      -0.00712502      -0.00066507
O        1.14339184       3.02189199      13.84326838       31       0.00252221       0.00712502       0.00066507
O        3.54016934       3.78356967      14.99912160       32      -0.00453284       0.00346733       0.00198892
O        0.79194143       4.74938139       0.82369281       33      -0.00453284      -0.00346733      -0.00198892
O        1.95628647       0.93925265       8.73510001       34       0.00453284       0.00346733      -0.00198892
O        4.70451437       1.90506437       7.08771440       35       0.00453284      -0.00346733       0.00198892
O        1.95628647       1.90506437       0.82369281       36       0.00453284      -0.00346733      -0.00198892
O        4.70451437       0.93925265      14.99912160       37       0.00453284       0.00346733       0.00198892
O        3.54016934       4.74938139       7.08771440       38      -0.00453284      -0.00346733       0.00198892
O        0.79194143       3.78356967       8.73510001       39      -0.00453284       0.00346733      -0.00198892
