40
Lattice="5.273683499436986 -2.4784936820054735e-42 0.0 3.6597751884884815e-42 5.46629909048189 0.0 0.0 0.0 15.953311792522275" Properties=species:S:1:pos:R:3:spacegroup_kinds:I:1:forces:R:3 spacegroup="P 1" unit_cell=conventional occupancy="_JSON {\"0\": {\"In\": 1}, \"1\": {\"In\": 1}, \"2\": {\"In\": 1}, \"3\": {\"In\": 1}, \"4\": {\"In\": 1}, \"5\": {\"In\": 1}, \"6\": {\"In\": 1}, \"7\": {\"In\": 1}, \"8\": {\"In\": 1}, \"9\": {\"In\": 1}, \"10\": {\"In\": 1}, \"11\": {\"In\": 1}, \"12\": {\"In\": 1}, \"13\": {\"In\": 1}, \"14\": {\"In\": 1}, \"15\": {\"In\": 1}, \"16\": {\"O\": 1}, \"17\": {\"O\": 1}, \"18\": {\"O\": 1}, \"19\": {\"O\": 1}, \"20\": {\"O\": 1}, \"21\": {\"O\": 1}, \"22\": {\"O\": 1}, \"23\": {\"O\": 1}, \"24\": {\"O\": 1}, \"25\": {\"O\": 1}, \"26\": {\"O\": 1}, \"27\": {\"O\": 1}, \"28\": {\"O\": 1}, \"29\": {\"O\": 1}, \"30\": {\"O\": 1}, \"31\": {\"O\": 1}, \"32\": {\"O\": 1}, \"33\": {\"O\": 1}, \"34\": {\"O\": 1}, \"35\": {\"O\": 1}, \"36\": {\"O\": 1}, \"37\": {\"O\": 1}, \"38\": {\"O\": 1}, \"39\": {\"O\": 1}}" n_minim_iter=19 energy=-45172.44678555716 stress="0.5428621155150507 -4.615551352703206e-13 3.88432188514111e-12 -4.615551352703206e-13 0.5427939579948475 2.112951910982762e-13 3.88432188514111e-12 2.112951910982762e-13 0.5428693000654128" free_energy=-45172.44678555716 pbc="T T T"
In       3.15187814       4.30425560       9.63048203        0      -0.00039409       0.00107023      -0.00226675
In       0.51503639       3.89519304       6.32282976        1      -0.00039409      -0.00107023       0.00226675
In       2.12180536       1.57110605      14.29948566        2       0.00039409       0.00107023       0.00226675
In       4.75864711       1.16204349       1.65382614        3       0.00039410      -0.00107023      -0.00226675
In       2.12180536       1.16204349       6.32282976        4       0.00039410      -0.00107023       0.00226675
In       4.75864711       1.57110605       9.63048203        5       0.00039409       0.00107023      -0.00226675
In       3.15187814       3.89519304       1.65382614        6      -0.00039409      -0.00107023      -0.00226675
In       0.51503639       4.30425560      14.29948566        7      -0.00039409       0.00107023       0.00226675
In       3.08432044       4.34447905      12.77491018        8       0.00619284      -0.00377675      -0.00035213
In       5.72116219       3.85496958       3.17840161        9       0.00619284       0.00377675       0.00035213
In       2.18936306       1.61132951      11.15505750       10      -0.00619284      -0.00377675       0.00035213
In      -0.44747869       1.12182004       4.79825429       11      -0.00619284       0.00377675      -0.00035213
In       2.18936306       1.12182004       3.17840161       12      -0.00619284       0.00377675       0.00035213
In      -0.44747869       1.61132951      12.77491018       13      -0.00619284      -0.00377675      -0.00035213
In       3.08432044       3.85496958       4.79825429       14       0.00619284       0.00377675      -0.00035213
In       5.72116219       4.34447905      11.15505750       15       0.00619284      -0.00377675       0.00035213
O        4.82607033       5.19315263      12.66863654       16       0.00227284       0.00100768      -0.00183520
O        2.18922859       3.00629601       3.28467525       17       0.00227284      -0.00100768       0.00183520
O        0.44761316       2.46000308      11.26133115       18      -0.00227284       0.00100768       0.00183520
O        3.08445491       0.27314646       4.69198064       19      -0.00227284      -0.00100768      -0.00183520
O        0.44761316       0.27314646       3.28467525       20      -0.00227284      -0.00100768       0.00183520
O        3.08445491       2.46000308      12.66863654       21      -0.00227284       0.00100768      -0.00183520
O        4.82607033       3.00629601       4.69198064       22       0.00227284      -0.00100768      -0.00183520
O        2.18922859       5.19315263      11.26133115       23       0.00227284       0.00100768       0.00183520
O        3.06481088       2.42737427       9.75725602       24       0.00260572       0.00503165       0.00017855
O        0.42796913       5.77207436       6.19605577       25       0.00260572      -0.00503165      -0.00017855
O        2.20887262      -0.30577527      14.17271167       26      -0.00260572       0.00503165      -0.00017855
O        4.84571437       3.03892482       1.78060013       27      -0.00260572      -0.00503165       0.00017855
O        2.20887262       3.03892482       6.19605577       28      -0.00260572      -0.00503165      -0.00017855
O        4.84571437      -0.30577527       9.75725602       29      -0.00260572       0.00503165       0.00017855
O        3.06481088       5.77207436       1.78060013       30       0.00260572      -0.00503165       0.00017855
O        0.42796913       2.42737427      14.17271167       31       0.00260572       0.00503165      -0.00017855
O        4.07519704       4.23961848      15.17308163       32       0.00500439       0.00104609       0.00145931
O        1.43835529       3.95983015       0.78023016       33       0.00500439      -0.00104609      -0.00145931
O        1.19848646       1.50646894       8.75688606       34      -0.00500439       0.00104609      -0.00145931
O        3.83532821       1.22668061       7.19642573       35      -0.00500439      -0.00104609       0.00145931
O        1.19848646       1.22668061       0.78023016       36      -0.00500439      -0.00104609      -0.00145931
O        3.83532821       1.50646894      15.17308163       37      -0.00500439       0.00104609       0.00145931
O        4.07519704       3.95983015       7.19642573       38       0.00500439      -0.00104609       0.00145931
O        1.43835529       4.23961848       8.75688606       39       0.00500439       0.00104609      -0.00145931
