40
Lattice="5.219292747379825 -3.9087426578620396e-42 0.0 3.6007006779762e-42 5.283043299461112 0.0 0.0 0.0 12.008671787340152" Properties=species:S:1:pos:R:3:spacegroup_kinds:I:1:forces:R:3 spacegroup="P 1" unit_cell=conventional occupancy="_JSON {\"0\": {\"In\": 1}, \"1\": {\"In\": 1}, \"2\": {\"In\": 1}, \"3\": {\"In\": 1}, \"4\": {\"In\": 1}, \"5\": {\"In\": 1}, \"6\": {\"In\": 1}, \"7\": {\"In\": 1}, \"8\": {\"In\": 1}, \"9\": {\"In\": 1}, \"10\": {\"In\": 1}, \"11\": {\"In\": 1}, \"12\": {\"In\": 1}, \"13\": {\"In\": 1}, \"14\": {\"In\": 1}, \"15\": {\"In\": 1}, \"16\": {\"O\": 1}, \"17\": {\"O\": 1}, \"18\": {\"O\": 1}, \"19\": {\"O\": 1}, \"20\": {\"O\": 1}, \"21\": {\"O\": 1}, \"22\": {\"O\": 1}, \"23\": {\"O\": 1}, \"24\": {\"O\": 1}, \"25\": {\"O\": 1}, \"26\": {\"O\": 1}, \"27\": {\"O\": 1}, \"28\": {\"O\": 1}, \"29\": {\"O\": 1}, \"30\": {\"O\": 1}, \"31\": {\"O\": 1}, \"32\": {\"O\": 1}, \"33\": {\"O\": 1}, \"34\": {\"O\": 1}, \"35\": {\"O\": 1}, \"36\": {\"O\": 1}, \"37\": {\"O\": 1}, \"38\": {\"O\": 1}, \"39\": {\"O\": 1}}" n_minim_iter=13 energy=-45210.454731199745 stress="0.5162399708922172 -1.7421178755667468e-12 -3.6553082939585167e-13 -1.7421178755667468e-12 0.5161637569212361 -2.9749034526826022e-12 -3.6553082939585167e-13 -2.9749034526826022e-12 0.516234013089341" free_energy=-45210.454731199745 pbc="T T T"
In       3.05589355       3.89929746       6.81439530        0      -0.00282979      -0.00000935      -0.00175694
In       0.44624717       4.02526749       5.19427648        1      -0.00282979       0.00000935       0.00175694
In       2.16339920       1.25777581      11.19861238        2       0.00282979      -0.00000935       0.00175694
In       4.77304557       1.38374584       0.81005941        3       0.00282979       0.00000935      -0.00175694
In       2.16339920       1.38374584       5.19427648        4       0.00282979       0.00000935       0.00175694
In       4.77304557       1.25777581       6.81439530        5       0.00282979      -0.00000935      -0.00175694
In       3.05589355       4.02526749       0.81005941        6      -0.00282979       0.00000935      -0.00175694
In       0.44624717       3.89929746      11.19861238        7      -0.00282979      -0.00000935       0.00175694
In       2.97873799       3.86083399       9.72551870        8       0.00132949       0.00238172      -0.00168769
In       5.58838437       4.06373096       2.28315309        9       0.00132949      -0.00238172       0.00168769
In       2.24055476       1.21931234       8.28748898       10      -0.00132949       0.00238172       0.00168769
In      -0.36909162       1.42220931       3.72118280       11      -0.00132949      -0.00238172      -0.00168769
In       2.24055476       1.42220931       2.28315309       12      -0.00132949      -0.00238172       0.00168769
In      -0.36909162       1.21931234       9.72551870       13      -0.00132949       0.00238172      -0.00168769
In       2.97873799       4.06373096       3.72118280       14       0.00132949      -0.00238172      -0.00168769
In       5.58838437       3.86083399       8.28748898       15       0.00132949       0.00238172       0.00168769
O        4.72865226       4.65592260       9.82147489       16      -0.00228236       0.00376143      -0.00203065
O        2.11900588       3.26864235       2.18719690       17      -0.00228236      -0.00376143       0.00203065
O        0.49064049       2.01440095       8.19153279       18       0.00228236       0.00376143       0.00203065
O        3.10028686       0.62712070       3.81713900       19       0.00228236      -0.00376143      -0.00203065
O        0.49064049       0.62712070       2.18719690       20       0.00228236      -0.00376143       0.00203065
O        3.10028686       2.01440095       9.82147489       21       0.00228236       0.00376143      -0.00203065
O        4.72865226       3.26864235       3.81713900       22      -0.00228236      -0.00376143      -0.00203065
O        2.11900588       4.65592260       8.19153279       23      -0.00228236       0.00376143       0.00203065
O        3.04175419       2.01800343       6.71937712       24       0.00021334      -0.00135431       0.00146988
O        0.43210782       5.90656152       5.28929467       25       0.00021334       0.00135431      -0.00146988
O        2.17753855      -0.62351822      11.29363056       26      -0.00021334      -0.00135431      -0.00146988
O        4.78718493       3.26503987       0.71504123       27      -0.00021334       0.00135431       0.00146988
O        2.17753855       3.26503987       5.28929467       28      -0.00021334       0.00135431      -0.00146988
O        4.78718493      -0.62351822       6.71937712       29      -0.00021334      -0.00135431       0.00146988
O        3.04175419       5.90656152       0.71504123       30       0.00021334       0.00135431       0.00146988
O        0.43210782       2.01800343      11.29363056       31       0.00021334      -0.00135431      -0.00146988
O        3.84246675       3.43579640      11.30744258       32      -0.00577991      -0.00055318       0.00263645
O        1.23282038       4.48876855       0.70122921       33      -0.00577991       0.00055318      -0.00263645
O        1.37682600       0.79427475       6.70556510       34       0.00577991      -0.00055318      -0.00263645
O        3.98647237       1.84724690       5.30310668       35       0.00577991       0.00055318       0.00263645
O        1.37682600       1.84724690       0.70122921       36       0.00577991       0.00055318      -0.00263645
O        3.98647237       0.79427475      11.30744258       37       0.00577991      -0.00055318       0.00263645
O        3.84246675       4.48876855       5.30310668       38      -0.00577991       0.00055318       0.00263645
O        1.23282038       3.43579640       6.70556510       39      -0.00577991      -0.00055318      -0.00263645
