40
Lattice="5.190397717258203 -3.705252641703468e-42 0.0 1.0298861990836849e-41 5.493645133804964 0.0 0.0 0.0 13.548036319244869" Properties=species:S:1:pos:R:3:spacegroup_kinds:I:1:forces:R:3 spacegroup="P 1" unit_cell=conventional occupancy="_JSON {\"0\": {\"In\": 1}, \"1\": {\"In\": 1}, \"2\": {\"In\": 1}, \"3\": {\"In\": 1}, \"4\": {\"In\": 1}, \"5\": {\"In\": 1}, \"6\": {\"In\": 1}, \"7\": {\"In\": 1}, \"8\": {\"In\": 1}, \"9\": {\"In\": 1}, \"10\": {\"In\": 1}, \"11\": {\"In\": 1}, \"12\": {\"In\": 1}, \"13\": {\"In\": 1}, \"14\": {\"In\": 1}, \"15\": {\"In\": 1}, \"16\": {\"O\": 1}, \"17\": {\"O\": 1}, \"18\": {\"O\": 1}, \"19\": {\"O\": 1}, \"20\": {\"O\": 1}, \"21\": {\"O\": 1}, \"22\": {\"O\": 1}, \"23\": {\"O\": 1}, \"24\": {\"O\": 1}, \"25\": {\"O\": 1}, \"26\": {\"O\": 1}, \"27\": {\"O\": 1}, \"28\": {\"O\": 1}, \"29\": {\"O\": 1}, \"30\": {\"O\": 1}, \"31\": {\"O\": 1}, \"32\": {\"O\": 1}, \"33\": {\"O\": 1}, \"34\": {\"O\": 1}, \"35\": {\"O\": 1}, \"36\": {\"O\": 1}, \"37\": {\"O\": 1}, \"38\": {\"O\": 1}, \"39\": {\"O\": 1}}" n_minim_iter=20 energy=-45195.34643664082 stress="0.16890564636437616 -2.5727877932601363e-12 3.6712891301598536e-13 -2.5727877932601363e-12 0.1687633279147763 -2.890239507696843e-12 3.6712891301598536e-13 -2.890239507696843e-12 0.1690216093491403" free_energy=-45195.34643664082 pbc="T T T"
In       3.12088487       4.13003304       7.94552343        0      -0.00110365       0.00161444      -0.00428390
In       0.52568601       4.11043466       5.60251289        1      -0.00110365      -0.00161444       0.00428390
In       2.06951285       1.38321048      12.37653105        2       0.00110365       0.00161444       0.00428390
In       4.66471171       1.36361209       1.17150527        3       0.00110365      -0.00161444      -0.00428390
In       2.06951285       1.36361209       5.60251289        4       0.00110365      -0.00161444       0.00428390
In       4.66471171       1.38321048       7.94552343        5       0.00110365       0.00161444      -0.00428390
In       3.12088487       4.11043466       1.17150527        6      -0.00110365      -0.00161444      -0.00428390
In       0.52568601       4.13003304      12.37653105        7      -0.00110365       0.00161444       0.00428390
In       3.03125090       4.12121572      10.95329722        8      -0.00246648       0.00186206       0.00022974
In       5.62644976       4.11925198       2.59473910        9      -0.00246648      -0.00186206      -0.00022974
In       2.15914681       1.37439315       9.36875726       10       0.00246648       0.00186206      -0.00022974
In      -0.43605204       1.37242941       4.17927906       11       0.00246648      -0.00186206       0.00022974
In       2.15914681       1.37242941       2.59473910       12       0.00246648      -0.00186206      -0.00022974
In      -0.43605204       1.37439315      10.95329722       13       0.00246648       0.00186206       0.00022974
In       3.03125090       4.11925198       4.17927906       14      -0.00246648      -0.00186206       0.00022974
In       5.62644976       4.12121572       9.36875726       15      -0.00246648       0.00186206      -0.00022974
O        4.72583767       4.96753598      10.88619109       16       0.00345460      -0.00612697      -0.00099167
O        2.13063881       3.27293172       2.66184523       17       0.00345460       0.00612697       0.00099167
O        0.46456005       2.22071341       9.43586338       18      -0.00345460      -0.00612697       0.00099167
O        3.05975891       0.52610916       4.11217293       19      -0.00345460       0.00612697      -0.00099167
O        0.46456005       0.52610916       2.66184523       20      -0.00345460       0.00612697       0.00099167
O        3.05975891       2.22071341      10.88619109       21      -0.00345460      -0.00612697      -0.00099167
O        4.72583767       3.27293172       4.11217293       22       0.00345460       0.00612697      -0.00099167
O        2.13063881       4.96753598       9.43586338       23       0.00345460      -0.00612697       0.00099167
O        3.03632259       2.20691560       8.03687354       24      -0.00490353       0.00058974       0.00182693
O        0.44112373       6.03355210       5.51116278       25      -0.00490353      -0.00058974      -0.00182693
O        2.15407513      -0.53990697      12.28518094       26       0.00490353       0.00058974      -0.00182693
O        4.74927399       3.28672953       1.26285538       27       0.00490353      -0.00058974       0.00182693
O        2.15407513       3.28672953       5.51116278       28       0.00490353      -0.00058974      -0.00182693
O        4.74927399      -0.53990697       8.03687354       29       0.00490353       0.00058974       0.00182693
O        3.03632259       6.03355210       1.26285538       30      -0.00490353      -0.00058974       0.00182693
O        0.44112373       2.20691560      12.28518094       31      -0.00490353       0.00058974      -0.00182693
O        3.97566639       4.11998177      12.86328477       32       0.00176118      -0.00588659      -0.00336560
O        1.38046753       4.12048593       0.68475155       33       0.00176118       0.00588659       0.00336560
O        1.21473133       1.37315921       7.45876971       34      -0.00176118      -0.00588659       0.00336560
O        3.80993019       1.37366336       6.08926661       35      -0.00176118       0.00588659      -0.00336560
O        1.21473133       1.37366336       0.68475155       36      -0.00176118       0.00588659       0.00336560
O        3.80993019       1.37315921      12.86328477       37      -0.00176118      -0.00588659      -0.00336560
O        3.97566639       4.12048593       6.08926661       38       0.00176118       0.00588659      -0.00336560
O        1.38046753       4.11998177       7.45876971       39       0.00176118      -0.00588659       0.00336560
