40
Lattice="5.116173161535178 -3.358078205251017e-42 0.0 3.53224547197796e-42 5.381524306202672 0.0 0.0 0.0 13.028738491337412" Properties=species:S:1:pos:R:3:spacegroup_kinds:I:1:forces:R:3 spacegroup="P 1" unit_cell=conventional occupancy="_JSON {\"0\": {\"In\": 1}, \"1\": {\"In\": 1}, \"2\": {\"In\": 1}, \"3\": {\"In\": 1}, \"4\": {\"In\": 1}, \"5\": {\"In\": 1}, \"6\": {\"In\": 1}, \"7\": {\"In\": 1}, \"8\": {\"In\": 1}, \"9\": {\"In\": 1}, \"10\": {\"In\": 1}, \"11\": {\"In\": 1}, \"12\": {\"In\": 1}, \"13\": {\"In\": 1}, \"14\": {\"In\": 1}, \"15\": {\"In\": 1}, \"16\": {\"O\": 1}, \"17\": {\"O\": 1}, \"18\": {\"O\": 1}, \"19\": {\"O\": 1}, \"20\": {\"O\": 1}, \"21\": {\"O\": 1}, \"22\": {\"O\": 1}, \"23\": {\"O\": 1}, \"24\": {\"O\": 1}, \"25\": {\"O\": 1}, \"26\": {\"O\": 1}, \"27\": {\"O\": 1}, \"28\": {\"O\": 1}, \"29\": {\"O\": 1}, \"30\": {\"O\": 1}, \"31\": {\"O\": 1}, \"32\": {\"O\": 1}, \"33\": {\"O\": 1}, \"34\": {\"O\": 1}, \"35\": {\"O\": 1}, \"36\": {\"O\": 1}, \"37\": {\"O\": 1}, \"38\": {\"O\": 1}, \"39\": {\"O\": 1}}" n_minim_iter=1 energy=-45192.59599197035 stress="-0.3233244562197341 -3.164130404056111e-13 1.0212551951927753e-12 -3.164130404056111e-13 -0.3358906157214332 2.962840576398454e-12 1.0212551951927753e-12 2.962840576398454e-12 -0.25858456301257343" free_energy=-45192.59599197035 pbc="T T T"
In       2.84639711       4.21910687       7.53452023        0       0.14108559      -0.30054509       0.12903460
In       0.28831053       3.85317959       5.49421826        1       0.14108559       0.30054509      -0.12903460
In       2.26977605       1.52834472      12.00858751        2      -0.14108559      -0.30054509      -0.12903460
In       4.82786263       1.16241744       1.02015098        3      -0.14108559       0.30054509       0.12903460
In       2.26977605       1.16241744       5.49421826        4      -0.14108559       0.30054509      -0.12903460
In       4.82786263       1.52834472       7.53452023        5      -0.14108559      -0.30054509       0.12903460
In       2.84639711       3.85317959       1.02015098        6       0.14108559       0.30054509       0.12903460
In       0.28831053       4.21910687      12.00858751        7       0.14108559      -0.30054509      -0.12903460
In       2.95633205       4.04430769      10.58910072        8      -0.25321718       0.34947297      -0.42792698
In       5.51441863       4.02797877       2.43963777        9      -0.25321718      -0.34947297       0.42792698
In       2.15984111       1.35354554       8.95400702       10       0.25321718       0.34947297       0.42792698
In      -0.39824547       1.33721661       4.07473147       11       0.25321718      -0.34947297      -0.42792698
In       2.15984111       1.33721661       2.43963777       12       0.25321718      -0.34947297       0.42792698
In      -0.39824547       1.35354554      10.58910072       13       0.25321718       0.34947297      -0.42792698
In       2.95633205       4.02797877       4.07473147       14      -0.25321718      -0.34947297      -0.42792698
In       5.51441863       4.04430769       8.95400702       15      -0.25321718       0.34947297       0.42792698
O        4.65821963       4.87747708      10.39487902       16       0.45483336      -0.23961570       0.48502304
O        2.10013305       3.19480938       2.63385947       17       0.45483336       0.23961570      -0.48502304
O        0.45795353       2.18671492       9.14822871       18      -0.45483336      -0.23961570      -0.48502304
O        3.01604011       0.50404723       3.88050978       19      -0.45483336       0.23961570       0.48502304
O        0.45795353       0.50404723       2.63385947       20      -0.45483336       0.23961570      -0.48502304
O        3.01604011       2.18671492      10.39487902       21      -0.45483336      -0.23961570       0.48502304
O        4.65821963       3.19480938       3.88050978       22       0.45483336       0.23961570       0.48502304
O        2.10013305       4.87747708       9.14822871       23       0.45483336      -0.23961570      -0.48502304
O        3.12664967       2.25080066       7.71642986       24       0.46925085       0.11813522      -1.08020597
O        0.56856309       5.82148580       5.31230863       25       0.46925085      -0.11813522       1.08020597
O        1.98952349      -0.43996149      11.82667788       26      -0.46925085       0.11813522       1.08020597
O        4.54761007       3.13072365       1.20206062       27      -0.46925085      -0.11813522      -1.08020597
O        1.98952349       3.13072365       5.31230863       28      -0.46925085      -0.11813522       1.08020597
O        4.54761007      -0.43996149       7.71642986       29      -0.46925085       0.11813522      -1.08020597
O        3.12664967       5.82148580       1.20206062       30       0.46925085      -0.11813522      -1.08020597
O        0.56856309       2.25080066      11.82667788       31       0.46925085       0.11813522       1.08020597
O        3.62240917       3.86365600      12.35656270       32      -0.46326061      -0.95090725      -0.68489690
O        1.06432259       4.20863046       0.67217579       33      -0.46326061       0.95090725       0.68489690
O        1.49376399       1.17289385       7.18654504       34       0.46326061      -0.95090725       0.68489690
O        4.05185058       1.51786830       5.84219345       35       0.46326061       0.95090725      -0.68489690
O        1.49376399       1.51786830       0.67217579       36       0.46326061       0.95090724       0.68489690
O        4.05185058       1.17289385      12.35656270       37       0.46326061      -0.95090725      -0.68489690
O        3.62240917       4.20863046       5.84219345       38      -0.46326061       0.95090725      -0.68489690
O        1.06432259       3.86365600       7.18654504       39      -0.46326061      -0.95090725       0.68489690
40
Lattice="5.124216833526616 -3.3670142172800506e-42 0.0 3.537925150632698e-42 5.396106891088386 0.0 0.0 0.0 12.973132855116907" Properties=species:S:1:pos:R:3:spacegroup_kinds:I:1:forces:R:3 spacegroup="P 1" unit_cell=conventional occupancy="_JSON {\"0\": {\"In\": 1}, \"1\": {\"In\": 1}, \"2\": {\"In\": 1}, \"3\": {\"In\": 1}, \"4\": {\"In\": 1}, \"5\": {\"In\": 1}, \"6\": {\"In\": 1}, \"7\": {\"In\": 1}, \"8\": {\"In\": 1}, \"9\": {\"In\": 1}, \"10\": {\"In\": 1}, \"11\": {\"In\": 1}, \"12\": {\"In\": 1}, \"13\": {\"In\": 1}, \"14\": {\"In\": 1}, \"15\": {\"In\": 1}, \"16\": {\"O\": 1}, \"17\": {\"O\": 1}, \"18\": {\"O\": 1}, \"19\": {\"O\": 1}, \"20\": {\"O\": 1}, \"21\": {\"O\": 1}, \"22\": {\"O\": 1}, \"23\": {\"O\": 1}, \"24\": {\"O\": 1}, \"25\": {\"O\": 1}, \"26\": {\"O\": 1}, \"27\": {\"O\": 1}, \"28\": {\"O\": 1}, \"29\": {\"O\": 1}, \"30\": {\"O\": 1}, \"31\": {\"O\": 1}, \"32\": {\"O\": 1}, \"33\": {\"O\": 1}, \"34\": {\"O\": 1}, \"35\": {\"O\": 1}, \"36\": {\"O\": 1}, \"37\": {\"O\": 1}, \"38\": {\"O\": 1}, \"39\": {\"O\": 1}}" n_minim_iter=2 energy=-45192.65706567825 stress="-0.29856292572779325 -1.982245631750786e-12 5.827874332193568e-13 -1.982245631750786e-12 -0.28654352834292734 -1.891810425590707e-12 5.827874332193568e-13 -1.891810425590707e-12 -0.2942971958455352" free_energy=-45192.65706567825 pbc="T T T"
In       2.85090781       4.23046371       7.50239584        0      -0.00419780      -0.28421826       0.00992610
In       0.28879940       3.86369663       5.47073701        1      -0.00419780       0.28421826      -0.00992610
In       2.27330902       1.53241026      11.95730344        2       0.00419780      -0.28421826      -0.00992610
In       4.83541744       1.16564318       1.01582941        3       0.00419780       0.28421826       0.00992610
In       2.27330902       1.16564318       5.47073701        4       0.00419780       0.28421826      -0.00992610
In       4.83541744       1.53241026       7.50239584        5       0.00419780      -0.28421826       0.00992610
In       2.85090781       3.86369663       1.01582941        6      -0.00419780       0.28421826       0.00992610
In       0.28879940       4.23046371      11.95730344        7      -0.00419780      -0.28421826      -0.00992610
In       2.96091615       4.05535500      10.54379997        8      -0.19904998       0.09630501      -0.48233783
In       5.52302457       4.03880534       2.42933289        9      -0.19904998      -0.09630501       0.48233783
In       2.16330068       1.35730155       8.91589932       10       0.19904998       0.09630501       0.48233783
In      -0.39880773       1.34075189       4.05723354       11       0.19904998      -0.09630501      -0.48233783
In       2.16330068       1.34075189       2.42933289       12       0.19904998      -0.09630501       0.48233783
In      -0.39880773       1.35730155      10.54379997       13       0.19904998       0.09630501      -0.48233783
In       2.96091615       4.03880534       4.05723354       14      -0.19904998      -0.09630501      -0.48233783
In       5.52302457       4.05535500       8.91589932       15      -0.19904998       0.09630501       0.48233783
O        4.66565802       4.89063332      10.35063611       16       0.35094821      -0.10114290       0.60718838
O        2.10354961       3.20352702       2.62249675       17       0.35094821       0.10114290      -0.60718838
O        0.45855881       2.19257987       9.10906317       18      -0.35094821      -0.10114290      -0.60718838
O        3.02066723       0.50547357       3.86406968       19      -0.35094821       0.10114290       0.60718838
O        0.45855881       0.50547357       2.62249675       20      -0.35094821       0.10114290      -0.60718838
O        3.02066723       2.19257987      10.35063611       21      -0.35094821      -0.10114290       0.60718838
O        4.66565802       3.20352702       3.86406968       22       0.35094821       0.10114290       0.60718838
O        2.10354961       4.89063332       9.10906317       23       0.35094821      -0.10114290      -0.60718838
O        3.13168376       2.25692959       7.68322589       24       0.42849712       0.06237478      -1.13551363
O        0.56957534       5.83723074       5.28990697       25       0.42849712      -0.06237478       1.13551363
O        1.99253308      -0.44112385      11.77647339       26      -0.42849712       0.06237478       1.13551363
O        4.55464149       3.13917730       1.19665946       27      -0.42849712      -0.06237478      -1.13551363
O        1.99253308       3.13917730       5.28990697       28      -0.42849712      -0.06237478       1.13551363
O        4.55464149      -0.44112385       7.68322589       29      -0.42849712       0.06237478      -1.13551363
O        3.13168376       5.83723074       1.19665946       30       0.42849712      -0.06237478      -1.13551363
O        0.56957534       2.25692959      11.77647339       31       0.42849712       0.06237478       1.13551363
O        3.62798750       3.87388544      12.30365412       32      -0.34480216      -0.81973229      -0.84134406
O        1.06587908       4.22027490       0.66947873       33      -0.34480216       0.81973229       0.84134406
O        1.49622934       1.17583200       7.15604516       34       0.34480216      -0.81973229       0.84134406
O        4.05833775       1.52222145       5.81708769       35       0.34480216       0.81973229      -0.84134406
O        1.49622934       1.52222145       0.66947873       36       0.34480216       0.81973229       0.84134406
O        4.05833775       1.17583200      12.30365412       37       0.34480216      -0.81973229      -0.84134406
O        3.62798750       4.22027490       5.81708769       38      -0.34480216       0.81973229      -0.84134406
O        1.06587908       3.87388544       7.15604516       39      -0.34480216      -0.81973229       0.84134406
40
Lattice="5.132247016506513 -3.328812477467e-42 0.0 3.4413850567676464e-42 5.390135053251933 0.0 0.0 0.0 12.967185113607416" Properties=species:S:1:pos:R:3:spacegroup_kinds:I:1:forces:R:3 spacegroup="P 1" unit_cell=conventional occupancy="_JSON {\"0\": {\"In\": 1}, \"1\": {\"In\": 1}, \"2\": {\"In\": 1}, \"3\": {\"In\": 1}, \"4\": {\"In\": 1}, \"5\": {\"In\": 1}, \"6\": {\"In\": 1}, \"7\": {\"In\": 1}, \"8\": {\"In\": 1}, \"9\": {\"In\": 1}, \"10\": {\"In\": 1}, \"11\": {\"In\": 1}, \"12\": {\"In\": 1}, \"13\": {\"In\": 1}, \"14\": {\"In\": 1}, \"15\": {\"In\": 1}, \"16\": {\"O\": 1}, \"17\": {\"O\": 1}, \"18\": {\"O\": 1}, \"19\": {\"O\": 1}, \"20\": {\"O\": 1}, \"21\": {\"O\": 1}, \"22\": {\"O\": 1}, \"23\": {\"O\": 1}, \"24\": {\"O\": 1}, \"25\": {\"O\": 1}, \"26\": {\"O\": 1}, \"27\": {\"O\": 1}, \"28\": {\"O\": 1}, \"29\": {\"O\": 1}, \"30\": {\"O\": 1}, \"31\": {\"O\": 1}, \"32\": {\"O\": 1}, \"33\": {\"O\": 1}, \"34\": {\"O\": 1}, \"35\": {\"O\": 1}, \"36\": {\"O\": 1}, \"37\": {\"O\": 1}, \"38\": {\"O\": 1}, \"39\": {\"O\": 1}}" n_minim_iter=3 energy=-45192.670864791755 stress="-0.26761587169451395 7.388872030856407e-13 3.4825443466103357e-12 7.388872030856407e-13 -0.30621679869559676 -3.857622971419948e-12 3.4825443466103357e-12 -3.857622971419948e-12 -0.2951538260883255" free_energy=-45192.670864791755 pbc="T T T"
In       2.85537881       4.22557893       7.49896836        0      -0.05818479      -0.31256786       0.01234910
In       0.28925530       3.85962365       5.46821676        1      -0.05818480       0.31256786      -0.01234910
In       2.27686820       1.53051140      11.95180931        2       0.05818479      -0.31256786      -0.01234910
In       4.84299171       1.16455613       1.01537580        3       0.05818479       0.31256786       0.01234910
In       2.27686820       1.16455613       5.46821676        4       0.05818479       0.31256786      -0.01234910
In       4.84299171       1.53051140       7.49896836        5       0.05818479      -0.31256786       0.01234910
In       2.85537881       3.85962365       1.01537580        6      -0.05818479       0.31256786       0.01234910
In       0.28925530       4.22557893      11.95180931        7      -0.05818479      -0.31256786      -0.01234910
In       2.96541215       4.05094648      10.53862951        8      -0.18638119       0.16823507      -0.41428999
In       5.53153566       4.03425610       2.42855560        9      -0.18638119      -0.16823507       0.41428999
In       2.16683487       1.35587895       8.91214816       10       0.18638119       0.16823507       0.41428999
In      -0.39928864       1.33918857       4.05503695       11       0.18638119      -0.16823507      -0.41428999
In       2.16683487       1.33918857       2.42855560       12       0.18638119      -0.16823507       0.41428999
In      -0.39928864       1.35587895      10.53862951       13       0.18638119       0.16823507      -0.41428999
In       2.96541215       4.03425610       4.05503695       14      -0.18638119      -0.16823507      -0.41428999
In       5.53153566       4.05094648       8.91214816       15      -0.18638119       0.16823507       0.41428999
O        4.67322396       4.88514290      10.34631196       16       0.30623096      -0.14389549       0.60665395
O        2.10710045       3.20005968       2.62087316       17       0.30623096       0.14389549      -0.60665395
O        0.45902306       2.19007537       9.10446571       18      -0.30623096      -0.14389549      -0.60665395
O        3.02514657       0.50499215       3.86271940       19      -0.30623096       0.14389549       0.60665395
O        0.45902306       0.50499215       2.62087316       20      -0.30623096       0.14389549      -0.60665395
O        3.02514657       2.19007537      10.34631196       21      -0.30623096      -0.14389549       0.60665395
O        4.67322396       3.20005968       3.86271940       22       0.30623096       0.14389549       0.60665395
O        2.10710045       4.88514290       9.10446571       23       0.30623096      -0.14389549      -0.60665395
O        3.13689826       2.25447867       7.67890811       24       0.35984933       0.01109560      -1.04365092
O        0.57077475       5.83072391       5.28827700       25       0.35984933      -0.01109560       1.04365092
O        1.99534876      -0.44058886      11.77186956       26      -0.35984933       0.01109560       1.04365092
O        4.56147226       3.13565638       1.19531555       27      -0.35984933      -0.01109560      -1.04365092
O        1.99534876       3.13565638       5.28827700       28      -0.35984933      -0.01109560       1.04365092
O        4.56147226      -0.44058886       7.67890811       29      -0.35984933       0.01109560      -1.04365092
O        3.13689826       5.83072391       1.19531555       30       0.35984933      -0.01109560      -1.04365092
O        0.57077475       2.25447867      11.77186956       31       0.35984933       0.01109560       1.04365092
O        3.63342231       3.86900923      12.29742904       32      -0.36687767      -0.78854687      -0.78374191
O        1.06729880       4.21619335       0.66975607       33      -0.36687767       0.78854687       0.78374191
O        1.49882471       1.17394171       7.15334863       34       0.36687767      -0.78854687       0.78374191
O        4.06494822       1.52112582       5.81383648       35       0.36687767       0.78854687      -0.78374191
O        1.49882471       1.52112582       0.66975607       36       0.36687767       0.78854687       0.78374191
O        4.06494822       1.17394171      12.29742904       37       0.36687767      -0.78854687      -0.78374191
O        3.63342231       4.21619335       5.81383648       38      -0.36687767       0.78854687      -0.78374191
O        1.06729880       3.86900923       7.15334863       39      -0.36687767      -0.78854687       0.78374191
40
Lattice="5.123588700966331 -3.3232999345923145e-42 0.0 3.446088393009244e-42 5.397304883128936 0.0 0.0 0.0 12.97184342743897" Properties=species:S:1:pos:R:3:spacegroup_kinds:I:1:forces:R:3 spacegroup="P 1" unit_cell=conventional occupancy="_JSON {\"0\": {\"In\": 1}, \"1\": {\"In\": 1}, \"2\": {\"In\": 1}, \"3\": {\"In\": 1}, \"4\": {\"In\": 1}, \"5\": {\"In\": 1}, \"6\": {\"In\": 1}, \"7\": {\"In\": 1}, \"8\": {\"In\": 1}, \"9\": {\"In\": 1}, \"10\": {\"In\": 1}, \"11\": {\"In\": 1}, \"12\": {\"In\": 1}, \"13\": {\"In\": 1}, \"14\": {\"In\": 1}, \"15\": {\"In\": 1}, \"16\": {\"O\": 1}, \"17\": {\"O\": 1}, \"18\": {\"O\": 1}, \"19\": {\"O\": 1}, \"20\": {\"O\": 1}, \"21\": {\"O\": 1}, \"22\": {\"O\": 1}, \"23\": {\"O\": 1}, \"24\": {\"O\": 1}, \"25\": {\"O\": 1}, \"26\": {\"O\": 1}, \"27\": {\"O\": 1}, \"28\": {\"O\": 1}, \"29\": {\"O\": 1}, \"30\": {\"O\": 1}, \"31\": {\"O\": 1}, \"32\": {\"O\": 1}, \"33\": {\"O\": 1}, \"34\": {\"O\": 1}, \"35\": {\"O\": 1}, \"36\": {\"O\": 1}, \"37\": {\"O\": 1}, \"38\": {\"O\": 1}, \"39\": {\"O\": 1}}" n_minim_iter=4 energy=-45192.904210692104 stress="-0.23739913888840475 9.684626377295517e-13 -1.3577227532354731e-12 9.684626377295517e-13 -0.23465833320599366 -1.269034351673503e-12 -1.3577227532354731e-12 -1.269034351673503e-12 -0.23606603434614457" free_energy=-45192.904210692104 pbc="T T T"
In       2.85039994       4.22659487       7.50190561        0       0.08145363      -0.20068824      -0.43764198
In       0.28860559       3.86936245       5.46993782        1       0.08145363       0.20068824       0.43764198
In       2.27318876       1.52794243      11.95585953        2      -0.08145363      -0.20068824       0.43764198
In       4.83498311       1.17071001       1.01598390        3      -0.08145363       0.20068824      -0.43764198
In       2.27318876       1.17071001       5.46993782        4      -0.08145363       0.20068824       0.43764198
In       4.83498311       1.52794243       7.50190561        5      -0.08145363      -0.20068824      -0.43764198
In       2.85039994       3.86936245       1.01598390        6       0.08145363       0.20068824      -0.43764198
In       0.28860559       4.22659487      11.95585953        7       0.08145363      -0.20068824       0.43764198
In       2.95727840       4.05828647      10.53517423        8      -0.27666527      -0.05832056       0.23193531
In       5.51907275       4.03767086       2.43666919        9      -0.27666527       0.05832056      -0.23193531
In       2.16631030       1.35963402       8.92259091       10       0.27666527      -0.05832056      -0.23193531
In      -0.39548405       1.33901842       4.04925252       11       0.27666527       0.05832056       0.23193531
In       2.16631030       1.33901842       2.43666919       12       0.27666527       0.05832056      -0.23193531
In      -0.39548405       1.35963402      10.53517423       13       0.27666527      -0.05832056       0.23193531
In       2.95727840       4.03767086       4.04925252       14      -0.27666527       0.05832056       0.23193531
In       5.51907275       4.05828647       8.92259091       15      -0.27666527      -0.05832056      -0.23193531
O        4.67078567       4.88979534      10.35940945       16      -0.28049658       0.22093438       0.27584313
O        2.10899132       3.20616199       2.61243397       17      -0.28049658      -0.22093438      -0.27584313
O        0.45280303       2.19114289       9.09835569       18       0.28049658       0.22093438      -0.27584313
O        3.01459738       0.50750955       3.87348774       19       0.28049658      -0.22093438       0.27584313
O        0.45280303       0.50750955       2.61243397       20       0.28049658      -0.22093438      -0.27584313
O        3.01459738       2.19114289      10.35940945       21       0.28049658       0.22093438       0.27584313
O        4.67078567       3.20616199       3.87348774       22      -0.28049658      -0.22093438       0.27584313
O        2.10899132       4.88979534       9.09835569       23      -0.28049658       0.22093438      -0.27584313
O        3.13814655       2.25831712       7.66432888       24      -0.48535174      -0.47337716       0.17764472
O        0.57635220       5.83764020       5.30751455       25      -0.48535174       0.47337716      -0.17764472
O        1.98544215      -0.44033532      11.79343626       26       0.48535174      -0.47337716      -0.17764472
O        4.54723650       3.13898776       1.17840716       27       0.48535174       0.47337716       0.17764472
O        1.98544215       3.13898776       5.30751455       28       0.48535174       0.47337716      -0.17764472
O        4.54723650      -0.44033532       7.66432888       29       0.48535174      -0.47337716       0.17764472
O        3.13814655       5.83764020       1.17840716       30      -0.48535174       0.47337716       0.17764472
O        0.57635220       2.25831712      11.79343626       31      -0.48535174      -0.47337716      -0.17764472
O        3.62169439       3.86122296      12.28904110       32      -0.21344554      -0.16463432      -0.23239840
O        1.05990004       4.23473436       0.68280233       33      -0.21344554       0.16463432       0.23239840
O        1.50189431       1.16257052       7.16872404       34       0.21344554      -0.16463432       0.23239840
O        4.06368866       1.53608192       5.80311939       35       0.21344554       0.16463432      -0.23239840
O        1.50189431       1.53608192       0.68280233       36       0.21344554       0.16463432       0.23239840
O        4.06368866       1.16257052      12.28904110       37       0.21344554      -0.16463432      -0.23239840
O        3.62169439       4.23473436       5.80311939       38      -0.21344554       0.16463432      -0.23239840
O        1.05990004       3.86122296       7.16872404       39      -0.21344554      -0.16463432       0.23239840
40
Lattice="5.125131663499172 -3.324304418776958e-42 0.0 3.4515711535394256e-42 5.399032783158456 0.0 0.0 0.0 12.963787905070049" Properties=species:S:1:pos:R:3:spacegroup_kinds:I:1:forces:R:3 spacegroup="P 1" unit_cell=conventional occupancy="_JSON {\"0\": {\"In\": 1}, \"1\": {\"In\": 1}, \"2\": {\"In\": 1}, \"3\": {\"In\": 1}, \"4\": {\"In\": 1}, \"5\": {\"In\": 1}, \"6\": {\"In\": 1}, \"7\": {\"In\": 1}, \"8\": {\"In\": 1}, \"9\": {\"In\": 1}, \"10\": {\"In\": 1}, \"11\": {\"In\": 1}, \"12\": {\"In\": 1}, \"13\": {\"In\": 1}, \"14\": {\"In\": 1}, \"15\": {\"In\": 1}, \"16\": {\"O\": 1}, \"17\": {\"O\": 1}, \"18\": {\"O\": 1}, \"19\": {\"O\": 1}, \"20\": {\"O\": 1}, \"21\": {\"O\": 1}, \"22\": {\"O\": 1}, \"23\": {\"O\": 1}, \"24\": {\"O\": 1}, \"25\": {\"O\": 1}, \"26\": {\"O\": 1}, \"27\": {\"O\": 1}, \"28\": {\"O\": 1}, \"29\": {\"O\": 1}, \"30\": {\"O\": 1}, \"31\": {\"O\": 1}, \"32\": {\"O\": 1}, \"33\": {\"O\": 1}, \"34\": {\"O\": 1}, \"35\": {\"O\": 1}, \"36\": {\"O\": 1}, \"37\": {\"O\": 1}, \"38\": {\"O\": 1}, \"39\": {\"O\": 1}}" n_minim_iter=5 energy=-45192.96609916832 stress="-0.21929543196148713 -8.744793507911729e-13 -5.961979653306407e-13 -8.744793507911729e-13 -0.21710273324051638 3.107898399481137e-12 -5.961979653306407e-13 3.107898399481137e-12 -0.21575449541637626" free_energy=-45192.96609916832 pbc="T T T"
In       2.85235723       4.22368418       7.49114022        0      -0.10172885      -0.01349804      -0.01413484
In       0.28979140       3.87486499       5.47264768        1      -0.10172885       0.01349804       0.01413484
In       2.27277444       1.52416779      11.95454163        2       0.10172885      -0.01349804       0.01413484
In       4.83534027       1.17534860       1.00924627        3       0.10172885       0.01349804      -0.01413484
In       2.27277444       1.17534860       5.47264768        4       0.10172885       0.01349804       0.01413484
In       4.83534027       1.52416779       7.49114022        5       0.10172885      -0.01349804      -0.01413484
In       2.85235723       3.87486499       1.00924627        6      -0.10172885       0.01349804      -0.01413484
In       0.28979140       4.22368418      11.95454163        7      -0.10172885      -0.01349804       0.01413484
In       2.95328304       4.05939953      10.52983044        8       0.01991542      -0.16141233      -0.63846299
In       5.51584887       4.03914965       2.43395746        9       0.01991542       0.16141233       0.63846299
In       2.17184862       1.35988314       8.91585142       10      -0.01991542      -0.16141233       0.63846299
In      -0.39071721       1.33963326       4.04793649       11      -0.01991542       0.16141233      -0.63846299
In       2.17184862       1.33963326       2.43395746       12      -0.01991542       0.16141233       0.63846299
In      -0.39071721       1.35988314      10.52983044       13      -0.01991542      -0.16141233      -0.63846299
In       2.95328304       4.03914965       4.04793649       14       0.01991542       0.16141233      -0.63846299
In       5.51584887       4.05939953       8.91585142       15       0.01991542      -0.16141233       0.63846299
O        4.66976109       4.89394761      10.35963151       16      -0.06314462      -0.00249604       0.08965747
O        2.10719525       3.20460157       2.60415640       17      -0.06314462       0.00249604      -0.08965747
O        0.45537058       2.19443122       9.08605035       18       0.06314462      -0.00249604      -0.08965747
O        3.01793641       0.50508518       3.87773755       19       0.06314462       0.00249604       0.08965747
O        0.45537058       0.50508518       2.60415640       20       0.06314462       0.00249604      -0.08965747
O        3.01793641       2.19443122      10.35963151       21       0.06314462      -0.00249604       0.08965747
O        4.66976109       3.20460157       3.87773755       22      -0.06314462       0.00249604       0.08965747
O        2.10719525       4.89394761       9.08605035       23      -0.06314462      -0.00249604      -0.08965747
O        3.13402489       2.25245560       7.65703905       24      -0.00886669      -0.15320806      -0.01536009
O        0.57145906       5.84609358       5.30674885       25      -0.00886669       0.15320806       0.01536009
O        1.99110677      -0.44706079      11.78864281       26       0.00886669      -0.15320806       0.01536009
O        4.55367260       3.14657719       1.17514510       27       0.00886669       0.15320806      -0.01536009
O        1.99110677       3.14657719       5.30674885       28       0.00886669       0.15320806       0.01536009
O        4.55367260      -0.44706079       7.65703905       29       0.00886669      -0.15320806      -0.01536009
O        3.13402489       5.84609358       1.17514510       30      -0.00886669       0.15320806      -0.01536009
O        0.57145906       2.25245560      11.78864281       31      -0.00886669      -0.15320806       0.01536009
O        3.61804642       3.85628437      12.27440115       32       0.18033687       0.07022997       0.20308665
O        1.05548059       4.24226481       0.68938675       33       0.18033687      -0.07022997      -0.20308665
O        1.50708524       1.15676798       7.17128070       34      -0.18033687       0.07022997      -0.20308665
O        4.06965107       1.54274842       5.79250720       35      -0.18033687      -0.07022997       0.20308665
O        1.50708524       1.54274842       0.68938675       36      -0.18033687      -0.07022997      -0.20308665
O        4.06965107       1.15676798      12.27440115       37      -0.18033687       0.07022997       0.20308665
O        3.61804642       4.24226481       5.79250720       38       0.18033687      -0.07022997       0.20308665
O        1.05548059       3.85628437       7.17128070       39       0.18033687       0.07022997      -0.20308665
40