40
Lattice="5.239120743135392 -4.537156040886838e-42 0.0 4.766018535731499e-42 5.503391628522886 0.0 0.0 0.0 14.036284151710987" Properties=species:S:1:pos:R:3:spacegroup_kinds:I:1:forces:R:3 spacegroup="P 1" unit_cell=conventional occupancy="_JSON {\"0\": {\"In\": 1}, \"1\": {\"In\": 1}, \"2\": {\"In\": 1}, \"3\": {\"In\": 1}, \"4\": {\"In\": 1}, \"5\": {\"In\": 1}, \"6\": {\"In\": 1}, \"7\": {\"In\": 1}, \"8\": {\"In\": 1}, \"9\": {\"In\": 1}, \"10\": {\"In\": 1}, \"11\": {\"In\": 1}, \"12\": {\"In\": 1}, \"13\": {\"In\": 1}, \"14\": {\"In\": 1}, \"15\": {\"In\": 1}, \"16\": {\"O\": 1}, \"17\": {\"O\": 1}, \"18\": {\"O\": 1}, \"19\": {\"O\": 1}, \"20\": {\"O\": 1}, \"21\": {\"O\": 1}, \"22\": {\"O\": 1}, \"23\": {\"O\": 1}, \"24\": {\"O\": 1}, \"25\": {\"O\": 1}, \"26\": {\"O\": 1}, \"27\": {\"O\": 1}, \"28\": {\"O\": 1}, \"29\": {\"O\": 1}, \"30\": {\"O\": 1}, \"31\": {\"O\": 1}, \"32\": {\"O\": 1}, \"33\": {\"O\": 1}, \"34\": {\"O\": 1}, \"35\": {\"O\": 1}, \"36\": {\"O\": 1}, \"37\": {\"O\": 1}, \"38\": {\"O\": 1}, \"39\": {\"O\": 1}}" n_minim_iter=1 energy=-45190.01485609147 stress="0.4786666323673403 2.64803176066213e-12 4.92140136777393e-13 2.64803176066213e-12 0.5321547981523628 9.734344638572678e-14 4.92140136777393e-13 9.734344638572678e-14 0.41824575533320996" free_energy=-45190.01485609147 pbc="T T T"
In       3.16069042       4.17099387       8.29780345        0       0.02310610      -0.08215596       0.85585759
In       0.54113005       4.08409357       5.73848070        1       0.02310610       0.08215596      -0.85585759
In       2.07843032       1.41929806      12.75662278        2      -0.02310610      -0.08215596      -0.85585759
In       4.69799069       1.33239776       1.27966137        3      -0.02310610       0.08215596       0.85585759
In       2.07843032       1.33239776       5.73848070        4      -0.02310610       0.08215596      -0.85585759
In       4.69799069       1.41929806       8.29780345        5      -0.02310610      -0.08215596       0.85585759
In       3.16069042       4.08409357       1.27966137        6       0.02310610       0.08215596       0.85585759
In       0.54113005       4.17099387      12.75662278        7       0.02310610      -0.08215596      -0.85585759
In       3.06264465       4.16138334      11.34809341        8       0.24870009      -0.25181847       0.06822434
In       5.68220503       4.09370410       2.68819074        9       0.24870009       0.25181847      -0.06822434
In       2.17647609       1.40968753       9.70633281       10      -0.24870009      -0.25181847      -0.06822434
In      -0.44308428       1.34200829       4.32995134       11      -0.24870009       0.25181847       0.06822434
In       2.17647609       1.34200829       2.68819074       12      -0.24870009       0.25181847      -0.06822434
In      -0.44308428       1.40968753      11.34809341       13      -0.24870009      -0.25181847       0.06822434
In       3.06264465       4.09370410       4.32995134       14       0.24870009       0.25181847       0.06822434
In       5.68220503       4.16138334       9.70633281       15       0.24870009      -0.25181847      -0.06822434
O        4.76282705       5.01004317      11.27045103       16      -0.27839422       0.55088042      -0.43482213
O        2.14326668       3.24504427       2.76583312       17      -0.27839422      -0.55088042       0.43482213
O        0.47629369       2.25834735       9.78397519       18       0.27839422       0.55088042       0.43482213
O        3.09585406       0.49334846       4.25230896       19       0.27839422      -0.55088042      -0.43482213
O        0.47629369       0.49334846       2.76583312       20       0.27839422      -0.55088042       0.43482213
O        3.09585406       2.25834735      11.27045103       21       0.27839422       0.55088042      -0.43482213
O        4.76282705       3.24504427       4.25230896       22      -0.27839422      -0.55088042      -0.43482213
O        2.14326668       5.01004317       9.78397519       23      -0.27839422       0.55088042       0.43482213
O        3.05903153       2.25919653       8.36753560       24       0.35889410       0.47433843       1.48772450
O        0.43947115       5.99589091       5.66874855       25       0.35889410      -0.47433843      -1.48772450
O        2.18008922      -0.49249928      12.68689063       26      -0.35889410       0.47433843      -1.48772450
O        4.79964959       3.24419510       1.34939353       27      -0.35889410      -0.47433843       1.48772450
O        2.18008922       3.24419510       5.66874855       28      -0.35889410      -0.47433843      -1.48772450
O        4.79964959      -0.49249928       8.36753560       29      -0.35889410       0.47433843       1.48772450
O        3.05903153       5.99589091       1.34939353       30       0.35889410      -0.47433843       1.48772450
O        0.43947115       2.25919653      12.68689063       31       0.35889410       0.47433843      -1.48772450
O        4.05528684       4.12994308      13.38360154       32       0.02153926      -0.03292948       0.09941770
O        1.43572647       4.12514436       0.65268261       33       0.02153926       0.03292948      -0.09941770
O        1.18383390       1.37824727       7.67082469       34      -0.02153926      -0.03292948      -0.09941770
O        3.80339427       1.37344855       6.36545947       35      -0.02153926       0.03292948       0.09941770
O        1.18383390       1.37344855       0.65268261       36      -0.02153926       0.03292948      -0.09941770
O        3.80339427       1.37824727      13.38360154       37      -0.02153926      -0.03292948       0.09941770
O        4.05528684       4.12514436       6.36545947       38       0.02153926       0.03292948       0.09941770
O        1.43572647       4.12994308       7.67082469       39       0.02153926      -0.03292948      -0.09941770
40
Lattice="5.237998638947885 -4.569584482062065e-42 0.0 4.720146832516066e-42 5.475001053770771 0.0 0.0 0.0 14.112091691391456" Properties=species:S:1:pos:R:3:spacegroup_kinds:I:1:forces:R:3 spacegroup="P 1" unit_cell=conventional occupancy="_JSON {\"0\": {\"In\": 1}, \"1\": {\"In\": 1}, \"2\": {\"In\": 1}, \"3\": {\"In\": 1}, \"4\": {\"In\": 1}, \"5\": {\"In\": 1}, \"6\": {\"In\": 1}, \"7\": {\"In\": 1}, \"8\": {\"In\": 1}, \"9\": {\"In\": 1}, \"10\": {\"In\": 1}, \"11\": {\"In\": 1}, \"12\": {\"In\": 1}, \"13\": {\"In\": 1}, \"14\": {\"In\": 1}, \"15\": {\"In\": 1}, \"16\": {\"O\": 1}, \"17\": {\"O\": 1}, \"18\": {\"O\": 1}, \"19\": {\"O\": 1}, \"20\": {\"O\": 1}, \"21\": {\"O\": 1}, \"22\": {\"O\": 1}, \"23\": {\"O\": 1}, \"24\": {\"O\": 1}, \"25\": {\"O\": 1}, \"26\": {\"O\": 1}, \"27\": {\"O\": 1}, \"28\": {\"O\": 1}, \"29\": {\"O\": 1}, \"30\": {\"O\": 1}, \"31\": {\"O\": 1}, \"32\": {\"O\": 1}, \"33\": {\"O\": 1}, \"34\": {\"O\": 1}, \"35\": {\"O\": 1}, \"36\": {\"O\": 1}, \"37\": {\"O\": 1}, \"38\": {\"O\": 1}, \"39\": {\"O\": 1}}" n_minim_iter=2 energy=-45190.143714735066 stress="0.46473015486352104 -1.4485421584933338e-13 9.554319998854466e-13 -1.4485421584933338e-13 0.4429955546198655 -1.4542953535807567e-12 9.554319998854466e-13 -1.4542953535807567e-12 0.4449467811068363" free_energy=-45190.143714735066 pbc="T T T"
In       3.16001876       4.14945807       8.34281553        0       0.12084156       0.06701918       1.42500798
In       0.54101944       4.06304351       5.76927616        1       0.12084156      -0.06701918      -1.42500798
In       2.07797988       1.41195755      12.82532201        2      -0.12084156       0.06701918      -1.42500798
In       4.69697920       1.32554298       1.28676968        3      -0.12084156      -0.06701918       1.42500798
In       2.07797988       1.32554298       5.76927616        4      -0.12084156      -0.06701918      -1.42500798
In       4.69697920       1.41195755       8.34281553        5      -0.12084156       0.06701918       1.42500798
In       3.16001876       4.06304351       1.28676968        6       0.12084156      -0.06701918       1.42500798
In       0.54101944       4.14945807      12.82532201        7       0.12084156       0.06701918      -1.42500798
In       3.06204565       4.13985846      11.40939821        8       0.00589665       0.04889969      -0.29884114
In       5.68104497       4.07264312       2.70269348        9       0.00589665      -0.04889969       0.29884114
In       2.17595299       1.40235794       9.75873933       10      -0.00589665       0.04889969       0.29884114
In      -0.44304633       1.33514259       4.35335237       11      -0.00589665      -0.04889969      -0.29884114
In       2.17595299       1.33514259       2.70269348       12      -0.00589665      -0.04889969       0.29884114
In      -0.44304633       1.40235794      11.40939821       13      -0.00589665       0.04889969      -0.29884114
In       3.06204565       4.07264312       4.35335237       14       0.00589665      -0.04889969      -0.29884114
In       5.68104497       4.13985846       9.75873933       15       0.00589665       0.04889969       0.29884114
O        4.76174321       4.98432317      11.33122066       16      -0.26715704       0.31451950      -0.62561237
O        2.14274389       3.22817841       2.78087103       17      -0.26715704      -0.31451950       0.62561237
O        0.47625543       2.24682264       9.83691688       18       0.26715704       0.31451950       0.62561237
O        3.09525475       0.49067788       4.27517482       19       0.26715704      -0.31451950      -0.62561237
O        0.47625543       0.49067788       2.78087103       20       0.26715704      -0.31451950       0.62561237
O        3.09525475       2.24682264      11.33122066       21       0.26715704       0.31451950      -0.62561237
O        4.76174321       3.22817841       4.27517482       22      -0.26715704      -0.31451950      -0.62561237
O        2.14274389       4.98432317       9.83691688       23      -0.26715704       0.31451950       0.62561237
O        3.05845853       2.24765000       8.41306979       24       0.26274386       0.45229031       1.72884419
O        0.43945921       5.96485158       5.69902190       25       0.26274386      -0.45229031      -1.72884419
O        2.17954011      -0.48985053      12.75506775       26      -0.26274386       0.45229031      -1.72884419
O        4.79853943       3.22735106       1.35702394       27      -0.26274386      -0.45229031       1.72884419
O        2.17954011       3.22735106       5.69902190       28      -0.26274386      -0.45229031      -1.72884419
O        4.79853943      -0.48985053       8.41306979       29      -0.26274386       0.45229031       1.72884419
O        3.05845853       5.96485158       1.35702394       30       0.26274386      -0.45229031       1.72884419
O        0.43945921       2.24765000      12.75506775       31       0.26274386       0.45229031      -1.72884419
O        4.05442322       4.10863027      13.45590695       32       0.24593962      -0.04555750       0.20851150
O        1.43542390       4.10387131       0.65618474       33       0.24593962       0.04555750      -0.20851150
O        1.18357542       1.37112974       7.71223059       34      -0.24593962      -0.04555750      -0.20851150
O        3.80257474       1.36637078       6.39986110       35      -0.24593962       0.04555750       0.20851150
O        1.18357542       1.36637078       0.65618474       36      -0.24593962       0.04555750      -0.20851150
O        3.80257474       1.37112974      13.45590695       37      -0.24593962      -0.04555750       0.20851150
O        4.05442322       4.10387131       6.39986110       38       0.24593962       0.04555750       0.20851150
O        1.43542390       4.10863027       7.71223059       39       0.24593962      -0.04555750      -0.20851150
40
Lattice="5.22690601086337 -4.574337209785647e-42 0.0 4.716015218364645e-42 5.478518086292759 0.0 0.0 0.0 14.132961874848611" Properties=species:S:1:pos:R:3:spacegroup_kinds:I:1:forces:R:3 spacegroup="P 1" unit_cell=conventional occupancy="_JSON {\"0\": {\"In\": 1}, \"1\": {\"In\": 1}, \"2\": {\"In\": 1}, \"3\": {\"In\": 1}, \"4\": {\"In\": 1}, \"5\": {\"In\": 1}, \"6\": {\"In\": 1}, \"7\": {\"In\": 1}, \"8\": {\"In\": 1}, \"9\": {\"In\": 1}, \"10\": {\"In\": 1}, \"11\": {\"In\": 1}, \"12\": {\"In\": 1}, \"13\": {\"In\": 1}, \"14\": {\"In\": 1}, \"15\": {\"In\": 1}, \"16\": {\"O\": 1}, \"17\": {\"O\": 1}, \"18\": {\"O\": 1}, \"19\": {\"O\": 1}, \"20\": {\"O\": 1}, \"21\": {\"O\": 1}, \"22\": {\"O\": 1}, \"23\": {\"O\": 1}, \"24\": {\"O\": 1}, \"25\": {\"O\": 1}, \"26\": {\"O\": 1}, \"27\": {\"O\": 1}, \"28\": {\"O\": 1}, \"29\": {\"O\": 1}, \"30\": {\"O\": 1}, \"31\": {\"O\": 1}, \"32\": {\"O\": 1}, \"33\": {\"O\": 1}, \"34\": {\"O\": 1}, \"35\": {\"O\": 1}, \"36\": {\"O\": 1}, \"37\": {\"O\": 1}, \"38\": {\"O\": 1}, \"39\": {\"O\": 1}}" n_minim_iter=3 energy=-45190.16286981892 stress="0.43274994805768335 -4.5126095886649277e-13 -2.5265282965694925e-12 -4.5126095886649277e-13 0.45432618175817274 1.5487429995019196e-14 -2.5265282965694925e-12 1.5487429995019196e-14 0.45418171397769125" free_energy=-45190.16286981892 pbc="T T T"
In       3.15337241       4.15214645       8.35571486        0       0.09904346       0.04157022       1.52036644
In       0.53991941       4.06563068       5.77724701        1       0.09904346      -0.04157022      -1.52036644
In       2.07353360       1.41288740      12.84372795        2      -0.09904346       0.04157022      -1.52036644
In       4.68698660       1.32637164       1.28923393        3      -0.09904346      -0.04157022       1.52036644
In       2.07353360       1.32637164       5.77724701        4      -0.09904346      -0.04157022      -1.52036644
In       4.68698660       1.41288740       8.35571486        5      -0.09904346       0.04157022       1.52036644
In       3.15337241       4.06563068       1.28923393        6       0.09904346      -0.04157022       1.52036644
In       0.53991941       4.15214645      12.84372795        7       0.09904346       0.04157022      -1.52036644
In       3.05556938       4.14252981      11.42615984        8      -0.02346601       0.04548880      -0.38793685
In       5.66902238       4.07524732       2.70680204        9      -0.02346601      -0.04548880       0.38793685
In       2.17133663       1.40327076       9.77328298       10       0.02346601       0.04548880       0.38793685
In      -0.44211637       1.33598828       4.35967890       11       0.02346601      -0.04548880      -0.38793685
In       2.17133663       1.33598828       2.70680204       12       0.02346601      -0.04548880       0.38793685
In      -0.44211637       1.40327076      11.42615984       13       0.02346601       0.04548880      -0.38793685
In       3.05556938       4.07524732       4.35967890       14      -0.02346601      -0.04548880      -0.38793685
In       5.66902238       4.14252981       9.77328298       15      -0.02346601       0.04548880       0.38793685
O        4.75155257       4.98765508      11.34773039       16      -0.22965705       0.35414850      -0.67993578
O        2.13809957       3.23012205       2.78523149       17      -0.22965705      -0.35414850       0.67993578
O        0.47535344       2.24839604       9.85171243       18       0.22965705       0.35414850       0.67993578
O        3.08880644       0.49086301       4.28124945       19       0.22965705      -0.35414850      -0.67993578
O        0.47535344       0.49086301       2.78523149       20       0.22965705      -0.35414850       0.67993578
O        3.08880644       2.24839604      11.34773039       21       0.22965705       0.35414850      -0.67993578
O        4.75155257       3.23012205       4.28124945       22      -0.22965705      -0.35414850      -0.67993578
O        2.13809957       4.98765508       9.85171243       23      -0.22965705       0.35414850       0.67993578
O        3.05208847       2.24927314       8.42620380       24       0.20940805       0.52143637       1.70275219
O        0.43863547       5.96850399       5.70675808       25       0.20940805      -0.52143637      -1.70275219
O        2.17481754      -0.48998590      12.77323901       26      -0.20940805       0.52143637      -1.70275219
O        4.78827054       3.22924495       1.35972286       27      -0.20940805      -0.52143637       1.70275219
O        2.17481754       3.22924495       5.70675808       28      -0.20940805      -0.52143637      -1.70275219
O        4.78827054      -0.48998590       8.42620380       29      -0.20940805       0.52143637       1.70275219
O        3.05208847       5.96850399       1.35972286       30       0.20940805      -0.52143637       1.70275219
O        0.43863547       2.24927314      12.77323901       31       0.20940805       0.52143637      -1.70275219
O        4.04592945       4.11125188      13.47588820       32       0.29026969      -0.06224854       0.21521847
O        1.43247645       4.10652525       0.65707368       33       0.29026969       0.06224854      -0.21521847
O        1.18097656       1.37199283       7.72355462       34      -0.29026969      -0.06224854      -0.21521847
O        3.79442956       1.36726621       6.40940726       35      -0.29026969       0.06224854       0.21521847
O        1.18097656       1.36726621       0.65707368       36      -0.29026969       0.06224854      -0.21521847
O        3.79442956       1.37199283      13.47588820       37      -0.29026969      -0.06224854       0.21521847
O        4.04592945       4.10652525       6.40940726       38       0.29026969       0.06224854       0.21521847
O        1.43247645       4.11125188       7.72355462       39       0.29026969      -0.06224854      -0.21521847
40
Lattice="5.213906025521085 -4.5499558849511894e-42 0.0 4.714045995928674e-42 5.450649955757082 0.0 0.0 0.0 14.240639300936298" Properties=species:S:1:pos:R:3:spacegroup_kinds:I:1:forces:R:3 spacegroup="P 1" unit_cell=conventional occupancy="_JSON {\"0\": {\"In\": 1}, \"1\": {\"In\": 1}, \"2\": {\"In\": 1}, \"3\": {\"In\": 1}, \"4\": {\"In\": 1}, \"5\": {\"In\": 1}, \"6\": {\"In\": 1}, \"7\": {\"In\": 1}, \"8\": {\"In\": 1}, \"9\": {\"In\": 1}, \"10\": {\"In\": 1}, \"11\": {\"In\": 1}, \"12\": {\"In\": 1}, \"13\": {\"In\": 1}, \"14\": {\"In\": 1}, \"15\": {\"In\": 1}, \"16\": {\"O\": 1}, \"17\": {\"O\": 1}, \"18\": {\"O\": 1}, \"19\": {\"O\": 1}, \"20\": {\"O\": 1}, \"21\": {\"O\": 1}, \"22\": {\"O\": 1}, \"23\": {\"O\": 1}, \"24\": {\"O\": 1}, \"25\": {\"O\": 1}, \"26\": {\"O\": 1}, \"27\": {\"O\": 1}, \"28\": {\"O\": 1}, \"29\": {\"O\": 1}, \"30\": {\"O\": 1}, \"31\": {\"O\": 1}, \"32\": {\"O\": 1}, \"33\": {\"O\": 1}, \"34\": {\"O\": 1}, \"35\": {\"O\": 1}, \"36\": {\"O\": 1}, \"37\": {\"O\": 1}, \"38\": {\"O\": 1}, \"39\": {\"O\": 1}}" n_minim_iter=4 energy=-45190.9055712296 stress="0.3208090274400343 -2.557468042647099e-12 7.281220878599201e-13 -2.557468042647099e-12 0.3220741178853421 2.542749826795945e-12 7.281220878599201e-13 2.542749826795945e-12 0.3190542194564927" free_energy=-45190.9055712296 pbc="T T T"
In       3.14792134       4.13215965       8.45237907        0      -0.31230516       0.79693855       1.01796037
In       0.54096833       4.04381528       5.78826023        1      -0.31230516      -0.79693855      -1.01796037
In       2.06598468       1.40683467      12.90857988        2       0.31230516       0.79693855      -1.01796037
In       4.67293770       1.31849030       1.33205942        3       0.31230516      -0.79693855       1.01796037
In       2.06598468       1.31849030       5.78826023        4       0.31230516      -0.79693855      -1.01796037
In       4.67293770       1.40683467       8.45237907        5       0.31230516       0.79693855       1.01796037
In       3.14792134       4.04381528       1.33205942        6      -0.31230516      -0.79693855       1.01796037
In       0.54096833       4.13215965      12.90857988        7      -0.31230516       0.79693855      -1.01796037
In       3.04790384       4.12235560      11.50566740        8       0.00788307       0.67680859      -0.23341871
In       5.65485685       4.05361933       2.73497190        9       0.00788307      -0.67680859       0.23341871
In       2.16600219       1.39703062       9.85529155       10      -0.00788307       0.67680859       0.23341871
In      -0.44095082       1.32829436       4.38534775       11      -0.00788307      -0.67680859      -0.23341871
In       2.16600219       1.32829436       2.73497190       12      -0.00788307      -0.67680859       0.23341871
In      -0.44095082       1.39703062      11.50566740       13      -0.00788307       0.67680859      -0.23341871
In       3.04790384       4.05361933       4.38534775       14       0.00788307      -0.67680859      -0.23341871
In       5.65485685       4.12235560       9.85529155       15       0.00788307       0.67680859       0.23341871
O        4.73423303       4.96967305      11.41953768       16       0.22144052      -0.29989113      -0.10123087
O        2.12728002       3.20630188       2.82110162       17       0.22144052       0.29989113       0.10123087
O        0.47967299       2.24434807       9.94142127       18      -0.22144052      -0.29989113       0.10123087
O        3.08662600       0.48097691       4.29921803       19      -0.22144052       0.29989113      -0.10123087
O        0.47967299       0.48097691       2.82110162       20      -0.22144052       0.29989113       0.10123087
O        3.08662600       2.24434807      11.41953768       21      -0.22144052      -0.29989113      -0.10123087
O        4.73423303       3.20630188       4.29921803       22       0.22144052       0.29989113      -0.10123087
O        2.12728002       4.96967305       9.94142127       23       0.22144052      -0.29989113       0.10123087
O        3.04977565       2.24844010       8.52913036       24       0.08272698       0.71417501      -0.03712311
O        0.44282263       5.92753484       5.71150894       25       0.08272698      -0.71417501       0.03712311
O        2.16413038      -0.47688488      12.83182859       26      -0.08272698       0.71417501       0.03712311
O        4.77108339       3.20220986       1.40881071       27      -0.08272698      -0.71417501      -0.03712311
O        2.16413038       3.20220986       5.71150894       28      -0.08272698      -0.71417501       0.03712311
O        4.77108339      -0.47688488       8.52913036       29      -0.08272698       0.71417501      -0.03712311
O        3.04977565       5.92753484       1.40881071       30       0.08272698      -0.71417501      -0.03712311
O        0.44282263       2.24844010      12.83182859       31       0.08272698       0.71417501       0.03712311
O        4.04164631       4.08917633      13.58329904       32       0.69832450       0.00843491       0.45909686
O        1.43469330       4.08679860       0.65734027       33       0.69832450      -0.00843491      -0.45909686
O        1.17225971       1.36385135       7.77765992       34      -0.69832450       0.00843491      -0.45909686
O        3.77921273       1.36147362       6.46297938       35      -0.69832450      -0.00843491       0.45909686
O        1.17225971       1.36147362       0.65734027       36      -0.69832450      -0.00843491      -0.45909686
O        3.77921273       1.36385135      13.58329904       37      -0.69832450       0.00843491       0.45909686
O        4.04164631       4.08679860       6.46297938       38       0.69832450      -0.00843491       0.45909686
O        1.43469330       4.08917633       7.77765992       39       0.69832450       0.00843491      -0.45909686
40
Lattice="5.194921317353853 -4.930262827405491e-42 0.0 4.678959771489221e-42 5.417201467120277 0.0 0.0 0.0 14.380931459456779" Properties=species:S:1:pos:R:3:spacegroup_kinds:I:1:forces:R:3 spacegroup="P 1" unit_cell=conventional occupancy="_JSON {\"0\": {\"In\": 1}, \"1\": {\"In\": 1}, \"2\": {\"In\": 1}, \"3\": {\"In\": 1}, \"4\": {\"In\": 1}, \"5\": {\"In\": 1}, \"6\": {\"In\": 1}, \"7\": {\"In\": 1}, \"8\": {\"In\": 1}, \"9\": {\"In\": 1}, \"10\": {\"In\": 1}, \"11\": {\"In\": 1}, \"12\": {\"In\": 1}, \"13\": {\"In\": 1}, \"14\": {\"In\": 1}, \"15\": {\"In\": 1}, \"16\": {\"O\": 1}, \"17\": {\"O\": 1}, \"18\": {\"O\": 1}, \"19\": {\"O\": 1}, \"20\": {\"O\": 1}, \"21\": {\"O\": 1}, \"22\": {\"O\": 1}, \"23\": {\"O\": 1}, \"24\": {\"O\": 1}, \"25\": {\"O\": 1}, \"26\": {\"O\": 1}, \"27\": {\"O\": 1}, \"28\": {\"O\": 1}, \"29\": {\"O\": 1}, \"30\": {\"O\": 1}, \"31\": {\"O\": 1}, \"32\": {\"O\": 1}, \"33\": {\"O\": 1}, \"34\": {\"O\": 1}, \"35\": {\"O\": 1}, \"36\": {\"O\": 1}, \"37\": {\"O\": 1}, \"38\": {\"O\": 1}, \"39\": {\"O\": 1}}" n_minim_iter=5 energy=-45191.383807796694 stress="0.20953652094857483 -8.977074711477995e-13 -3.3948437770603517e-12 -8.977074711477995e-13 0.20071054212521652 1.6327771757721654e-12 -3.3948437770603517e-12 1.6327771757721654e-12 0.20977879261057078" free_energy=-45191.383807796694 pbc="T T T"
In       3.13318770       4.11979923       8.57418503        0       0.15674450       0.72883165       0.08605130
In       0.53572705       4.00600297       5.80674643        1       0.15674450      -0.72883165      -0.08605130
In       2.06173361       1.41119850      12.99721216        2      -0.15674450       0.72883165      -0.08605130
In       4.65919427       1.29740224       1.38371930        3      -0.15674450      -0.72883165       0.08605130
In       2.06173361       1.29740224       5.80674643        4      -0.15674450      -0.72883165      -0.08605130
In       4.65919427       1.41119850       8.57418503        5      -0.15674450       0.72883165       0.08605130
In       3.13318770       4.00600297       1.38371930        6       0.15674450      -0.72883165       0.08605130
In       0.53572705       4.11979923      12.99721216        7       0.15674450       0.72883165      -0.08605130
In       3.03682566       4.10809634      11.61013212        8      -0.45862722       0.30121312      -0.00931679
In       5.63428632       4.01770586       2.77079934        9      -0.45862722      -0.30121312       0.00931679
In       2.15809566       1.39949560       9.96126507       10       0.45862722       0.30121312       0.00931679
In      -0.43936500       1.30910513       4.41966639       11       0.45862722      -0.30121312      -0.00931679
In       2.15809566       1.30910513       2.77079934       12       0.45862722      -0.30121312       0.00931679
In      -0.43936500       1.39949560      11.61013212       13       0.45862722       0.30121312      -0.00931679
In       3.03682566       4.01770586       4.41966639       14      -0.45862722      -0.30121312      -0.00931679
In       5.63428632       4.10809634       9.96126507       15      -0.45862722       0.30121312       0.00931679
O        4.71686114       4.93930846      11.52068216       16       0.41304847       0.30575491       0.09065916
O        2.11940048       3.18649374       2.86024930       17       0.41304847      -0.30575491      -0.09065916
O        0.47806018       2.23070773      10.05071503       18      -0.41304847       0.30575491      -0.09065916
O        3.07552083       0.47789301       4.33021643       19      -0.41304847      -0.30575491       0.09065916
O        0.47806018       0.47789301       2.86024930       20      -0.41304847      -0.30575491      -0.09065916
O        3.07552083       2.23070773      11.52068216       21      -0.41304847       0.30575491       0.09065916
O        4.71686114       3.18649374       4.33021643       22       0.41304847      -0.30575491       0.09065916
O        2.11940048       4.93930846      10.05071503       23       0.41304847       0.30575491      -0.09065916
O        3.04336142       2.25247079       8.63812133       24      -0.28005155       0.46422638      -0.42428090
O        0.44590076       5.87333141       5.74281013       25      -0.28005155      -0.46422638       0.42428090
O        2.15155990      -0.45612994      12.93327586       26       0.28005155       0.46422638       0.42428090
O        4.74902056       3.16473067       1.44765560       27       0.28005155      -0.46422638      -0.42428090
O        2.15155990       3.16473067       5.74281013       28       0.28005155      -0.46422638       0.42428090
O        4.74902056      -0.45612994       8.63812133       29       0.28005155       0.46422638      -0.42428090
O        3.04336142       5.87333141       1.44765560       30      -0.28005155      -0.46422638      -0.42428090
O        0.44590076       2.25247079      12.93327586       31      -0.28005155       0.46422638       0.42428090
O        4.04158529       4.06345526      13.72777476       32       0.66611387       0.09968286       0.49009743
O        1.44412463       4.06234694       0.65315669       33       0.66611387      -0.09968286      -0.49009743
O        1.15333603       1.35485452       7.84362242       34      -0.66611387       0.09968286      -0.49009743
O        3.75079669       1.35374621       6.53730903       35      -0.66611387      -0.09968286       0.49009743
O        1.15333603       1.35374621       0.65315669       36      -0.66611387      -0.09968286      -0.49009743
O        3.75079669       1.35485452      13.72777476       37      -0.66611387       0.09968286       0.49009743
O        4.04158529       4.06234694       6.53730903       38       0.66611387      -0.09968286       0.49009743
O        1.44412463       4.06345526       7.84362242       39       0.66611387       0.09968286      -0.49009743
40