40
Lattice="5.122184938794397 -4.384744643838184e-42 0.0 4.7357421704253196e-42 5.165876312181851 0.0 0.0 0.0 11.818652409894437" Properties=species:S:1:pos:R:3:spacegroup_kinds:I:1:forces:R:3 spacegroup="P 1" unit_cell=conventional occupancy="_JSON {\"0\": {\"In\": 1}, \"1\": {\"In\": 1}, \"2\": {\"In\": 1}, \"3\": {\"In\": 1}, \"4\": {\"In\": 1}, \"5\": {\"In\": 1}, \"6\": {\"In\": 1}, \"7\": {\"In\": 1}, \"8\": {\"In\": 1}, \"9\": {\"In\": 1}, \"10\": {\"In\": 1}, \"11\": {\"In\": 1}, \"12\": {\"In\": 1}, \"13\": {\"In\": 1}, \"14\": {\"In\": 1}, \"15\": {\"In\": 1}, \"16\": {\"O\": 1}, \"17\": {\"O\": 1}, \"18\": {\"O\": 1}, \"19\": {\"O\": 1}, \"20\": {\"O\": 1}, \"21\": {\"O\": 1}, \"22\": {\"O\": 1}, \"23\": {\"O\": 1}, \"24\": {\"O\": 1}, \"25\": {\"O\": 1}, \"26\": {\"O\": 1}, \"27\": {\"O\": 1}, \"28\": {\"O\": 1}, \"29\": {\"O\": 1}, \"30\": {\"O\": 1}, \"31\": {\"O\": 1}, \"32\": {\"O\": 1}, \"33\": {\"O\": 1}, \"34\": {\"O\": 1}, \"35\": {\"O\": 1}, \"36\": {\"O\": 1}, \"37\": {\"O\": 1}, \"38\": {\"O\": 1}, \"39\": {\"O\": 1}}" n_minim_iter=12 energy=-45212.64863583366 stress="-0.29692543059806265 -1.8606227686049473e-12 -5.907551328069585e-12 -1.8606227686049473e-12 -0.2968968665244438 1.5846542042822693e-12 -5.907551328069585e-12 1.5846542042822693e-12 -0.29697096682748125" free_energy=-45212.64863583366 pbc="T T T"
In       3.00954775       3.82298913       6.71219647        0      -0.00126799       0.00439013       0.00353855
In       0.44845528       3.92582534       5.10645594        1      -0.00126799      -0.00439013      -0.00353855
In       2.11263719       1.24005097      11.01578214        2       0.00126799       0.00439013      -0.00353855
In       4.67372966       1.34288718       0.80287027        3       0.00126799      -0.00439013       0.00353855
In       2.11263719       1.34288718       5.10645594        4       0.00126799      -0.00439013      -0.00353855
In       4.67372966       1.24005097       6.71219647        5       0.00126799       0.00439013       0.00353855
In       3.00954775       3.92582534       0.80287027        6      -0.00126799      -0.00439013       0.00353855
In       0.44845528       3.82298913      11.01578214        7      -0.00126799       0.00439013      -0.00353855
In       2.92017456       3.78267126       9.57411317        8      -0.00457891      -0.00085446       0.00161862
In       5.48126703       3.96614320       2.24453924        9      -0.00457891       0.00085446      -0.00161862
In       2.20201038       1.19973311       8.15386545       10       0.00457891      -0.00085446      -0.00161862
In      -0.35908209       1.38320505       3.66478696       11       0.00457891       0.00085446       0.00161862
In       2.20201038       1.38320505       2.24453924       12       0.00457891       0.00085446      -0.00161862
In      -0.35908209       1.19973311       9.57411317       13       0.00457891      -0.00085446       0.00161862
In       2.92017456       3.96614320       3.66478696       14      -0.00457891       0.00085446       0.00161862
In       5.48126703       3.78267126       8.15386545       15      -0.00457891      -0.00085446      -0.00161862
O        4.63220873       4.54490856       9.65595160       16       0.00089024       0.00015153       0.00063946
O        2.07111627       3.20390591       2.16270081       17       0.00089024      -0.00015153      -0.00063946
O        0.48997620       1.96197040       8.07202702       18      -0.00089024       0.00015153      -0.00063946
O        3.05106867       0.62096775       3.74662539       19      -0.00089024      -0.00015153       0.00063946
O        0.48997620       0.62096775       2.16270081       20      -0.00089024      -0.00015153      -0.00063946
O        3.05106867       1.96197040       9.65595160       21      -0.00089024       0.00015153       0.00063946
O        4.63220873       3.20390591       3.74662539       22       0.00089024      -0.00015153       0.00063946
O        2.07111627       4.54490856       8.07202702       23       0.00089024       0.00015153      -0.00063946
O        2.97254072       1.97417498       6.60832856       24      -0.00051720      -0.00394606      -0.00236638
O        0.41144825       5.77463949       5.21032385       25      -0.00051720       0.00394606       0.00236638
O        2.14964422      -0.60876317      11.11965005       26       0.00051720      -0.00394606       0.00236638
O        4.71073669       3.19170133       0.69900236       27       0.00051720       0.00394606      -0.00236638
O        2.14964422       3.19170133       5.21032385       28       0.00051720       0.00394606       0.00236638
O        4.71073669      -0.60876317       6.60832856       29       0.00051720      -0.00394606      -0.00236638
O        2.97254072       5.77463949       0.69900236       30      -0.00051720       0.00394606      -0.00236638
O        0.41144825       1.97417498      11.11965005       31      -0.00051720      -0.00394606       0.00236638
O        3.79011344       3.27405624      11.12813370       32       0.00132414       0.00037161      -0.00130608
O        1.22902097       4.47475823       0.69051871       33       0.00132414      -0.00037161       0.00130608
O        1.33207150       0.69111808       6.59984491       34      -0.00132414       0.00037161       0.00130608
O        3.89316397       1.89182007       5.21880750       35      -0.00132414      -0.00037161      -0.00130608
O        1.33207150       1.89182007       0.69051871       36      -0.00132414      -0.00037161       0.00130608
O        3.89316397       0.69111808      11.12813370       37      -0.00132414       0.00037161      -0.00130608
O        3.79011344       4.47475823       5.21880750       38       0.00132414      -0.00037161      -0.00130608
O        1.22902097       3.27405624       6.59984491       39       0.00132414       0.00037161       0.00130608
