40
Lattice="5.266805173778822 -3.3033075310354916e-42 0.0 3.402132372571493e-42 5.424371849545316 0.0 0.0 0.0 15.453712621401177" Properties=species:S:1:pos:R:3:spacegroup_kinds:I:1:forces:R:3 spacegroup="P 1" unit_cell=conventional occupancy="_JSON {\"0\": {\"In\": 1}, \"1\": {\"In\": 1}, \"2\": {\"In\": 1}, \"3\": {\"In\": 1}, \"4\": {\"In\": 1}, \"5\": {\"In\": 1}, \"6\": {\"In\": 1}, \"7\": {\"In\": 1}, \"8\": {\"In\": 1}, \"9\": {\"In\": 1}, \"10\": {\"In\": 1}, \"11\": {\"In\": 1}, \"12\": {\"In\": 1}, \"13\": {\"In\": 1}, \"14\": {\"In\": 1}, \"15\": {\"In\": 1}, \"16\": {\"O\": 1}, \"17\": {\"O\": 1}, \"18\": {\"O\": 1}, \"19\": {\"O\": 1}, \"20\": {\"O\": 1}, \"21\": {\"O\": 1}, \"22\": {\"O\": 1}, \"23\": {\"O\": 1}, \"24\": {\"O\": 1}, \"25\": {\"O\": 1}, \"26\": {\"O\": 1}, \"27\": {\"O\": 1}, \"28\": {\"O\": 1}, \"29\": {\"O\": 1}, \"30\": {\"O\": 1}, \"31\": {\"O\": 1}, \"32\": {\"O\": 1}, \"33\": {\"O\": 1}, \"34\": {\"O\": 1}, \"35\": {\"O\": 1}, \"36\": {\"O\": 1}, \"37\": {\"O\": 1}, \"38\": {\"O\": 1}, \"39\": {\"O\": 1}}" n_minim_iter=1 energy=-45177.52148653042 stress="0.6557532902753006 -2.5021904232384948e-12 -5.79349504580319e-13 -2.5021904232384948e-12 0.6984980275815776 -5.685111588752514e-13 -5.79349504580319e-13 -5.685111588752514e-13 0.6246662223240508" free_energy=-45177.52148653042 pbc="T T T"
In       3.16880726       4.17196905       9.26773106        0      -0.02710827      -0.25372348       0.67525982
In       0.53540468       3.96458872       6.18598156        1      -0.02710827       0.25372348      -0.67525982
In       2.09799791       1.45978313      13.91283787        2       0.02710827      -0.25372348      -0.67525982
In       4.73140050       1.25240280       1.54087475        3       0.02710827       0.25372348       0.67525982
In       2.09799791       1.25240280       6.18598156        4       0.02710827       0.25372348      -0.67525982
In       4.73140050       1.45978313       9.26773106        5       0.02710827      -0.25372348       0.67525982
In       3.16880726       3.96458872       1.54087475        6      -0.02710827       0.25372348       0.67525982
In       0.53540468       4.17196905      13.91283787        7      -0.02710827      -0.25372348      -0.67525982
In       3.07743473       4.19857870      12.40341322        8       0.03607277      -0.10128251      -0.31799363
In       5.71083732       3.93797907       3.05029940        9       0.03607277       0.10128251       0.31799363
In       2.18937044       1.48639278      10.77715571       10      -0.03607277      -0.10128251       0.31799363
In      -0.44403214       1.22579315       4.67655691       11      -0.03607277       0.10128251      -0.31799363
In       2.18937044       1.22579315       3.05029940       12      -0.03607277       0.10128251       0.31799363
In      -0.44403214       1.48639278      12.40341322       13      -0.03607277      -0.10128251      -0.31799363
In       3.07743473       3.93797907       4.67655691       14       0.03607277       0.10128251      -0.31799363
In       5.71083732       4.19857870      10.77715571       15       0.03607277      -0.10128251       0.31799363
O        4.80743672       5.03274040      12.30511122       16       0.03270205       0.36290318      -0.58261120
O        2.17403414       3.10381737       3.14860140       17       0.03270205      -0.36290318       0.58261120
O        0.45936845       2.32055448      10.87545771       18      -0.03270205       0.36290318       0.58261120
O        3.09277104       0.39163145       4.57825491       19      -0.03270205      -0.36290318      -0.58261120
O        0.45936845       0.39163145       3.14860140       20      -0.03270205      -0.36290318       0.58261120
O        3.09277104       2.32055448      12.30511122       21      -0.03270205       0.36290318      -0.58261120
O        4.80743672       3.10381737       4.57825491       22       0.03270205      -0.36290318      -0.58261120
O        2.17403414       5.03274040      10.87545771       23       0.03270205       0.36290318       0.58261120
O        3.07111443       2.31206247       9.39373969       24       0.11563973       0.26978239       1.19378190
O        0.43771185       5.82449531       6.05997293       25       0.11563973      -0.26978239      -1.19378190
O        2.19569074      -0.40012346      13.78682925       26      -0.11563973       0.26978239      -1.19378190
O        4.82909333       3.11230938       1.66688338       27      -0.11563973      -0.26978239       1.19378190
O        2.19569074       3.11230938       6.05997293       28      -0.11563973      -0.26978239      -1.19378190
O        4.82909333      -0.40012346       9.39373969       29      -0.11563973       0.26978239       1.19378190
O        3.07111443       5.82449531       1.66688338       30       0.11563973      -0.26978239       1.19378190
O        0.43771185       2.31206247      13.78682925       31       0.11563973       0.26978239      -1.19378190
O        4.12050685       4.10232945      14.75300293       32      -0.19345709       0.06943040      -0.10868562
O        1.48710427       4.03422832       0.70070970       33      -0.19345709      -0.06943040       0.10868562
O        1.14629832       1.39014353       8.42756601       34       0.19345709       0.06943040       0.10868562
O        3.77970091       1.32204239       7.02614661       35       0.19345709      -0.06943040      -0.10868562
O        1.14629832       1.32204239       0.70070970       36       0.19345709      -0.06943040       0.10868562
O        3.77970091       1.39014353      14.75300293       37       0.19345709       0.06943040      -0.10868562
O        4.12050685       4.03422832       7.02614661       38      -0.19345709      -0.06943040      -0.10868562
O        1.48710427       4.10232945       8.42756601       39      -0.19345709       0.06943040       0.10868562
40
Lattice="5.26872496840555 -3.330053376404526e-42 0.0 3.3644477373042425e-42 5.404639166732511 0.0 0.0 0.0 15.504483599055579" Properties=species:S:1:pos:R:3:spacegroup_kinds:I:1:forces:R:3 spacegroup="P 1" unit_cell=conventional occupancy="_JSON {\"0\": {\"In\": 1}, \"1\": {\"In\": 1}, \"2\": {\"In\": 1}, \"3\": {\"In\": 1}, \"4\": {\"In\": 1}, \"5\": {\"In\": 1}, \"6\": {\"In\": 1}, \"7\": {\"In\": 1}, \"8\": {\"In\": 1}, \"9\": {\"In\": 1}, \"10\": {\"In\": 1}, \"11\": {\"In\": 1}, \"12\": {\"In\": 1}, \"13\": {\"In\": 1}, \"14\": {\"In\": 1}, \"15\": {\"In\": 1}, \"16\": {\"O\": 1}, \"17\": {\"O\": 1}, \"18\": {\"O\": 1}, \"19\": {\"O\": 1}, \"20\": {\"O\": 1}, \"21\": {\"O\": 1}, \"22\": {\"O\": 1}, \"23\": {\"O\": 1}, \"24\": {\"O\": 1}, \"25\": {\"O\": 1}, \"26\": {\"O\": 1}, \"27\": {\"O\": 1}, \"28\": {\"O\": 1}, \"29\": {\"O\": 1}, \"30\": {\"O\": 1}, \"31\": {\"O\": 1}, \"32\": {\"O\": 1}, \"33\": {\"O\": 1}, \"34\": {\"O\": 1}, \"35\": {\"O\": 1}, \"36\": {\"O\": 1}, \"37\": {\"O\": 1}, \"38\": {\"O\": 1}, \"39\": {\"O\": 1}}" n_minim_iter=2 energy=-45177.58335486802 stress="0.6551397441779728 1.904687151672472e-12 5.139707716030297e-13 1.904687151672472e-12 0.6449143762296077 1.4407137677591133e-13 5.139707716030297e-13 1.4407137677591133e-13 0.6437790488783242" free_energy=-45177.58335486802 pbc="T T T"
In       3.16995656       4.15673863       9.29832279        0      -0.08044475      -0.14694788       0.79390959
In       0.53559408       3.95022012       6.20616081        1      -0.08044475       0.14694788      -0.79390959
In       2.09876841       1.45441905      13.95840261        2       0.08044475      -0.14694788      -0.79390959
In       4.73313089       1.24790053       1.54608099        3       0.08044475       0.14694788       0.79390959
In       2.09876841       1.24790053       6.20616081        4       0.08044475       0.14694788      -0.79390959
In       4.73313089       1.45441905       9.29832279        5       0.08044475      -0.14694788       0.79390959
In       3.16995656       3.95022012       1.54608099        6      -0.08044475       0.14694788       0.79390959
In       0.53559408       4.15673863      13.95840261        7      -0.08044475      -0.14694788      -0.79390959
In       3.07856415       4.18328375      12.44409510        8      -0.08121600       0.08022192      -0.46005166
In       5.71292663       3.92367500       3.06038850        9      -0.08121600      -0.08022192       0.46005166
In       2.19016082       1.48096417      10.81263030       10       0.08121600       0.08022192       0.46005166
In      -0.44420166       1.22135541       4.69185330       11       0.08121600      -0.08022192      -0.46005166
In       2.19016082       1.22135541       3.06038850       12       0.08121600      -0.08022192       0.46005166
In      -0.44420166       1.48096417      12.44409510       13       0.08121600       0.08022192      -0.46005166
In       3.07856415       3.92367500       4.69185330       14      -0.08121600      -0.08022192      -0.46005166
In       5.71292663       4.18328375      10.81263030       15      -0.08121600       0.08022192       0.46005166
O        4.80919602       5.01450920      12.34541375       16       0.07245841       0.16219277      -0.73737214
O        2.17483354       3.09244955       3.15906985       17       0.07245841      -0.16219277       0.73737214
O        0.45952895       2.31218962      10.91131165       18      -0.07245841       0.16219277       0.73737214
O        3.09389143       0.39012997       4.59317195       19      -0.07245841      -0.16219277      -0.73737214
O        0.45952895       0.39012997       3.15906985       20      -0.07245841      -0.16219277       0.73737214
O        3.09389143       2.31218962      12.34541375       21      -0.07245841       0.16219277      -0.73737214
O        4.80919602       3.09244955       4.59317195       22       0.07245841      -0.16219277      -0.73737214
O        2.17483354       5.01450920      10.91131165       23       0.07245841       0.16219277       0.73737214
O        3.07225845       2.30370879       9.42485591       24      -0.00878151       0.06689240       1.34191331
O        0.43789597       5.80324996       6.07962769       25      -0.00878151      -0.06689240      -1.34191331
O        2.19646651      -0.39861079      13.83186949       26       0.00878151       0.06689240      -1.34191331
O        4.83082900       3.10093038       1.67261411       27       0.00878151      -0.06689240       1.34191331
O        2.19646651       3.10093038       6.07962769       28       0.00878151      -0.06689240      -1.34191331
O        4.83082900      -0.39861079       9.42485591       29       0.00878151       0.06689240       1.34191331
O        3.07225845       5.80324996       1.67261411       30      -0.00878151      -0.06689240       1.34191331
O        0.43789597       2.30370879      13.83186949       31      -0.00878151       0.06689240      -1.34191331
O        4.12196770       4.08742077      14.80144866       32      -0.08497171       0.05547528      -0.07113592
O        1.48760522       4.01953798       0.70303494       33      -0.08497171      -0.05547528       0.07113592
O        1.14675727       1.38510119       8.45527674       34       0.08497171       0.05547528       0.07113592
O        3.78111975       1.31721840       7.04920686       35       0.08497171      -0.05547528      -0.07113592
O        1.14675727       1.31721840       0.70303494       36       0.08497171      -0.05547528       0.07113592
O        3.78111975       1.38510119      14.80144866       37       0.08497171       0.05547528      -0.07113592
O        4.12196770       4.01953798       7.04920686       38      -0.08497171      -0.05547528      -0.07113592
O        1.48760522       4.08742077       8.45527674       39      -0.08497171       0.05547528       0.07113592
40
Lattice="5.257914366805574 -3.342490242598998e-42 0.0 3.421015235511276e-42 5.40721705368554 0.0 0.0 0.0 15.528954839808728" Properties=species:S:1:pos:R:3:spacegroup_kinds:I:1:forces:R:3 spacegroup="P 1" unit_cell=conventional occupancy="_JSON {\"0\": {\"In\": 1}, \"1\": {\"In\": 1}, \"2\": {\"In\": 1}, \"3\": {\"In\": 1}, \"4\": {\"In\": 1}, \"5\": {\"In\": 1}, \"6\": {\"In\": 1}, \"7\": {\"In\": 1}, \"8\": {\"In\": 1}, \"9\": {\"In\": 1}, \"10\": {\"In\": 1}, \"11\": {\"In\": 1}, \"12\": {\"In\": 1}, \"13\": {\"In\": 1}, \"14\": {\"In\": 1}, \"15\": {\"In\": 1}, \"16\": {\"O\": 1}, \"17\": {\"O\": 1}, \"18\": {\"O\": 1}, \"19\": {\"O\": 1}, \"20\": {\"O\": 1}, \"21\": {\"O\": 1}, \"22\": {\"O\": 1}, \"23\": {\"O\": 1}, \"24\": {\"O\": 1}, \"25\": {\"O\": 1}, \"26\": {\"O\": 1}, \"27\": {\"O\": 1}, \"28\": {\"O\": 1}, \"29\": {\"O\": 1}, \"30\": {\"O\": 1}, \"31\": {\"O\": 1}, \"32\": {\"O\": 1}, \"33\": {\"O\": 1}, \"34\": {\"O\": 1}, \"35\": {\"O\": 1}, \"36\": {\"O\": 1}, \"37\": {\"O\": 1}, \"38\": {\"O\": 1}, \"39\": {\"O\": 1}}" n_minim_iter=3 energy=-45177.59815911621 stress="0.6329035527714263 7.069290585884533e-13 8.898215059419631e-13 7.069290585884533e-13 0.6496803303327553 -2.8274828731442145e-13 8.898215059419631e-13 -2.8274828731442145e-13 0.6519830287956982" free_energy=-45177.59815911621 pbc="T T T"
In       3.16339870       4.15861910       9.31354237        0      -0.11397447      -0.18245914       0.79843536
In       0.53444151       3.95220648       6.21541247        1      -0.11397447       0.18245914      -0.79843536
In       2.09451567       1.45501058      13.97988989        2       0.11397447      -0.18245914      -0.79843536
In       4.72347285       1.24859795       1.54906495        3       0.11397447       0.18245914       0.79843536
In       2.09451567       1.24859795       6.21541247        4       0.11397447       0.18245914      -0.79843536
In       4.72347285       1.45501058       9.31354237        5       0.11397447      -0.18245914       0.79843536
In       3.16339870       3.95220648       1.54906495        6      -0.11397447       0.18245914       0.79843536
In       0.53444151       4.15861910      13.97988989        7      -0.11397447      -0.18245914      -0.79843536
In       3.07219479       4.18532923      12.46342268        8      -0.11789447       0.09699040      -0.53331704
In       5.70115197       3.92549635       3.06553216        9      -0.11789447      -0.09699040       0.53331704
In       2.18571958       1.48172070      10.83000958       10       0.11789447       0.09699040       0.53331704
In      -0.44323760       1.22188782       4.69894526       11       0.11789447      -0.09699040      -0.53331704
In       2.18571958       1.22188782       3.06553216       12       0.11789447      -0.09699040       0.53331704
In      -0.44323760       1.48172070      12.46342268       13       0.11789447       0.09699040      -0.53331704
In       3.07219479       3.92549635       4.69894526       14      -0.11789447      -0.09699040      -0.53331704
In       5.70115197       4.18532923      10.83000958       15      -0.11789447       0.09699040       0.53331704
O        4.79937678       5.01701576      12.36439497       16       0.12370254       0.18721494      -0.79361612
O        2.17041960       3.09380982       3.16455987       17       0.12370254      -0.18721494       0.79361612
O        0.45853758       2.31340723      10.92903729       18      -0.12370254       0.18721494       0.79361612
O        3.08749477       0.39020130       4.59991755       19      -0.12370254      -0.18721494      -0.79361612
O        0.45853758       0.39020130       3.16455987       20      -0.12370254      -0.18721494       0.79361612
O        3.08749477       2.31340723      12.36439497       21      -0.12370254       0.18721494      -0.79361612
O        4.79937678       3.09380982       4.59991755       22       0.12370254      -0.18721494      -0.79361612
O        2.17041960       5.01701576      10.92903729       23       0.12370254       0.18721494       0.79361612
O        3.06595160       2.30485776       9.44065177       24      -0.09173792       0.07519275       1.32340729
O        0.43699442       5.80596782       6.08830307       25      -0.09173792      -0.07519275      -1.32340729
O        2.19196276      -0.39875077      13.85278049       26       0.09173792       0.07519275      -1.32340729
O        4.82091995       3.10235929       1.67617435       27       0.09173792      -0.07519275       1.32340729
O        2.19196276       3.10235929       6.08830307       28       0.09173792      -0.07519275      -1.32340729
O        4.82091995      -0.39875077       9.44065177       29       0.09173792       0.07519275       1.32340729
O        3.06595160       5.80596782       1.67617435       30      -0.09173792      -0.07519275       1.32340729
O        0.43699442       2.30485776      13.85278049       31      -0.09173792       0.07519275      -1.32340729
O        4.11344956       4.08940834      14.82476041       32      -0.09963721       0.04744114      -0.05564717
O        1.48449237       4.02141724       0.70419443       33      -0.09963721      -0.04744114       0.05564717
O        1.14446481       1.38579981       8.46867185       34       0.09963721       0.04744114       0.05564717
O        3.77342199       1.31780872       7.06028299       35       0.09963721      -0.04744114      -0.05564717
O        1.14446481       1.31780872       0.70419443       36       0.09963721      -0.04744114       0.05564717
O        3.77342199       1.38579981      14.82476041       37       0.09963721       0.04744114      -0.05564717
O        4.11344956       4.02141724       7.06028299       38      -0.09963721      -0.04744114      -0.05564717
O        1.48449237       4.08940834       8.46867185       39      -0.09963721       0.04744114       0.05564717
40
Lattice="5.253519331608188 -3.3386251798074294e-42 0.0 3.41375057706311e-42 5.395703086967538 0.0 0.0 0.0 15.575111366404744" Properties=species:S:1:pos:R:3:spacegroup_kinds:I:1:forces:R:3 spacegroup="P 1" unit_cell=conventional occupancy="_JSON {\"0\": {\"In\": 1}, \"1\": {\"In\": 1}, \"2\": {\"In\": 1}, \"3\": {\"In\": 1}, \"4\": {\"In\": 1}, \"5\": {\"In\": 1}, \"6\": {\"In\": 1}, \"7\": {\"In\": 1}, \"8\": {\"In\": 1}, \"9\": {\"In\": 1}, \"10\": {\"In\": 1}, \"11\": {\"In\": 1}, \"12\": {\"In\": 1}, \"13\": {\"In\": 1}, \"14\": {\"In\": 1}, \"15\": {\"In\": 1}, \"16\": {\"O\": 1}, \"17\": {\"O\": 1}, \"18\": {\"O\": 1}, \"19\": {\"O\": 1}, \"20\": {\"O\": 1}, \"21\": {\"O\": 1}, \"22\": {\"O\": 1}, \"23\": {\"O\": 1}, \"24\": {\"O\": 1}, \"25\": {\"O\": 1}, \"26\": {\"O\": 1}, \"27\": {\"O\": 1}, \"28\": {\"O\": 1}, \"29\": {\"O\": 1}, \"30\": {\"O\": 1}, \"31\": {\"O\": 1}, \"32\": {\"O\": 1}, \"33\": {\"O\": 1}, \"34\": {\"O\": 1}, \"35\": {\"O\": 1}, \"36\": {\"O\": 1}, \"37\": {\"O\": 1}, \"38\": {\"O\": 1}, \"39\": {\"O\": 1}}" n_minim_iter=4 energy=-45177.8628458517 stress="0.588495059656622 2.246151935750289e-13 2.4932082798703448e-12 2.246151935750289e-13 0.5836545677941505 -2.0754964925585134e-12 2.4932082798703448e-12 -2.0754964925585134e-12 0.5896736560635687" free_energy=-45177.8628458517 pbc="T T T"
In       3.15897550       4.14667414       9.35678715        0      -0.37437004       0.23336292      -0.23729090
In       0.53221584       3.94688049       6.21832422        1      -0.37437004      -0.23336292       0.23729090
In       2.09454383       1.44882260      14.00587990        2       0.37437004       0.23336292       0.23729090
In       4.72130349       1.24902895       1.56923147        3       0.37437004      -0.23336292      -0.23729090
In       2.09454383       1.24902895       6.21832422        4       0.37437004      -0.23336292       0.23729090
In       4.72130349       1.44882260       9.35678715        5       0.37437004       0.23336292      -0.23729090
In       3.15897550       3.94688049       1.56923147        6      -0.37437004      -0.23336292      -0.23729090
In       0.53221584       4.14667414      14.00587990        7      -0.37437004       0.23336292       0.23729090
In       3.06782295       4.17804003      12.49095809        8       0.30556654       0.12181345      -0.12532300
In       5.69458261       3.91551460       3.08415327        9       0.30556654      -0.12181345       0.12532300
In       2.18569638       1.48018848      10.87170896       10      -0.30556654       0.12181345       0.12532300
In      -0.44106328       1.21766306       4.70340241       11      -0.30556654      -0.12181345      -0.12532300
In       2.18569638       1.21766306       3.08415327       12      -0.30556654      -0.12181345       0.12532300
In      -0.44106328       1.48018848      12.49095809       13      -0.30556654       0.12181345      -0.12532300
In       3.06782295       3.91551460       4.70340241       14       0.30556654      -0.12181345      -0.12532300
In       5.69458261       4.17804003      10.87170896       15       0.30556654       0.12181345       0.12532300
O        4.79711703       5.00965934      12.38632761       16       0.10354152      -0.07436316      -0.25500199
O        2.17035737       3.08389530       3.18878376       17       0.10354152       0.07436316       0.25500199
O        0.45640230       2.31180779      10.97633944       18      -0.10354152      -0.07436316       0.25500199
O        3.08316196       0.38604375       4.59877193       19      -0.10354152       0.07436316      -0.25500199
O        0.45640230       0.38604375       3.18878376       20      -0.10354152       0.07436316       0.25500199
O        3.08316196       2.31180779      12.38632761       21      -0.10354152      -0.07436316      -0.25500199
O        4.79711703       3.08389530       4.59877193       22       0.10354152       0.07436316      -0.25500199
O        2.17035737       5.00965934      10.97633944       23       0.10354152      -0.07436316       0.25500199
O        3.06265914       2.30133050       9.49483921       24      -0.15587524      -0.26345814       0.02326878
O        0.43589947       5.79222413       6.08027216       25      -0.15587524       0.26345814      -0.02326878
O        2.19086020      -0.39652105      13.86782784       26       0.15587524      -0.26345814      -0.02326878
O        4.81761986       3.09437259       1.70728353       27       0.15587524       0.26345814       0.02326878
O        2.19086020       3.09437259       6.08027216       28       0.15587524       0.26345814      -0.02326878
O        4.81761986      -0.39652105       9.49483921       29       0.15587524      -0.26345814       0.02326878
O        3.06265914       5.79222413       1.70728353       30      -0.15587524       0.26345814       0.02326878
O        0.43589947       2.30133050      13.86782784       31      -0.15587524      -0.26345814      -0.02326878
O        4.10824680       4.08171165      14.86753396       32      -0.03212210       0.06466126      -0.02152825
O        1.48148713       4.01184298       0.70757741       33      -0.03212210      -0.06466126       0.02152825
O        1.14527253       1.38386011       8.49513309       34       0.03212210       0.06466126       0.02152825
O        3.77203220       1.31399144       7.07997828       35       0.03212210      -0.06466126      -0.02152825
O        1.14527253       1.31399144       0.70757741       36       0.03212210      -0.06466126       0.02152825
O        3.77203220       1.38386011      14.86753396       37       0.03212210       0.06466126      -0.02152825
O        4.10824680       4.01184298       7.07997828       38      -0.03212210      -0.06466126      -0.02152825
O        1.48148713       4.08171165       8.49513309       39      -0.03212210       0.06466126       0.02152825
40
Lattice="5.251526177969108 -3.3543011648160716e-42 0.0 3.4121451082278954e-42 5.393831032852544 0.0 0.0 0.0 15.586430467891466" Properties=species:S:1:pos:R:3:spacegroup_kinds:I:1:forces:R:3 spacegroup="P 1" unit_cell=conventional occupancy="_JSON {\"0\": {\"In\": 1}, \"1\": {\"In\": 1}, \"2\": {\"In\": 1}, \"3\": {\"In\": 1}, \"4\": {\"In\": 1}, \"5\": {\"In\": 1}, \"6\": {\"In\": 1}, \"7\": {\"In\": 1}, \"8\": {\"In\": 1}, \"9\": {\"In\": 1}, \"10\": {\"In\": 1}, \"11\": {\"In\": 1}, \"12\": {\"In\": 1}, \"13\": {\"In\": 1}, \"14\": {\"In\": 1}, \"15\": {\"In\": 1}, \"16\": {\"O\": 1}, \"17\": {\"O\": 1}, \"18\": {\"O\": 1}, \"19\": {\"O\": 1}, \"20\": {\"O\": 1}, \"21\": {\"O\": 1}, \"22\": {\"O\": 1}, \"23\": {\"O\": 1}, \"24\": {\"O\": 1}, \"25\": {\"O\": 1}, \"26\": {\"O\": 1}, \"27\": {\"O\": 1}, \"28\": {\"O\": 1}, \"29\": {\"O\": 1}, \"30\": {\"O\": 1}, \"31\": {\"O\": 1}, \"32\": {\"O\": 1}, \"33\": {\"O\": 1}, \"34\": {\"O\": 1}, \"35\": {\"O\": 1}, \"36\": {\"O\": 1}, \"37\": {\"O\": 1}, \"38\": {\"O\": 1}, \"39\": {\"O\": 1}}" n_minim_iter=5 energy=-45177.884626715364 stress="0.5803920646205597 -8.432889538411454e-13 -1.7941617002431792e-13 -8.432889538411454e-13 0.5805536666481297 -8.914559145430276e-13 -1.7941617002431792e-13 -8.914559145430276e-13 0.5815120822481135" free_energy=-45177.884626715364 pbc="T T T"
In       3.15225307       4.14804606       9.36187432        0       0.25200722      -0.08557955       0.02035303
In       0.52648998       3.94270049       6.22455614        1       0.25200722       0.08557955      -0.02035303
In       2.09927311       1.45113055      14.01777138        2      -0.25200722      -0.08557955      -0.02035303
In       4.72503620       1.24578497       1.56865909        3      -0.25200722       0.08557955       0.02035303
In       2.09927311       1.24578497       6.22455614        4      -0.25200722       0.08557955      -0.02035303
In       4.72503620       1.45113055       9.36187432        5      -0.25200722      -0.08557955       0.02035303
In       3.15225307       3.94270049       1.56865909        6       0.25200722       0.08557955       0.02035303
In       0.52648998       4.14804606      14.01777138        7       0.25200722      -0.08557955      -0.02035303
In       3.07095202       4.17830933      12.49719565        8      -0.09723505      -0.10533022       0.12873663
In       5.69671511       3.91243721       3.08923481        9      -0.09723505       0.10533022      -0.12873663
In       2.18057416       1.48139382      10.88245005       10       0.09723505      -0.10533022      -0.12873663
In      -0.44518893       1.21552170       4.70398042       11       0.09723505       0.10533022       0.12873663
In       2.18057416       1.21552170       3.08923481       12       0.09723505       0.10533022      -0.12873663
In      -0.44518893       1.48139382      12.49719565       13       0.09723505      -0.10533022       0.12873663
In       3.07095202       3.91243721       4.70398042       14      -0.09723505       0.10533022       0.12873663
In       5.69671511       4.17830933      10.88245005       15      -0.09723505      -0.10533022      -0.12873663
O        4.79695656       5.00751718      12.38995819       16       0.15021274       0.12148399      -0.09620842
O        2.17119347       3.08322937       3.19647227       17       0.15021274      -0.12148399       0.09620842
O        0.45456962       2.31060167      10.98968751       18      -0.15021274       0.12148399       0.09620842
O        3.08033271       0.38631385       4.59674296       19      -0.15021274      -0.12148399      -0.09620842
O        0.45456962       0.38631385       3.19647227       20      -0.15021274      -0.12148399       0.09620842
O        3.08033271       2.31060167      12.38995819       21      -0.15021274       0.12148399      -0.09620842
O        4.79695656       3.08322937       4.59674296       22       0.15021274      -0.12148399      -0.09620842
O        2.17119347       5.00751718      10.98968751       23       0.15021274       0.12148399       0.09620842
O        3.05930989       2.29719391       9.50509686       24       0.14480937       0.03824311      -0.05329929
O        0.43354680       5.79355264       6.08133361       25       0.14480937      -0.03824311       0.05329929
O        2.19221629      -0.39972161      13.87454884       26      -0.14480937       0.03824311       0.05329929
O        4.81797938       3.09663712       1.71188163       27      -0.14480937      -0.03824311      -0.05329929
O        2.19221629       3.09663712       6.08133361       28      -0.14480937      -0.03824311       0.05329929
O        4.81797938      -0.39972161       9.50509686       29      -0.14480937       0.03824311      -0.05329929
O        3.05930989       5.79355264       1.71188163       30       0.14480937      -0.03824311      -0.05329929
O        0.43354680       2.29719391      13.87454884       31       0.14480937       0.03824311       0.05329929
O        4.10587749       4.08135658      14.87782233       32      -0.12855907       0.09964666       0.06520105
O        1.48011440       4.00938997       0.70860814       33      -0.12855907      -0.09964666      -0.06520105
O        1.14564869       1.38444107       8.50182337       34       0.12855907       0.09964666      -0.06520105
O        3.77141178       1.31247445       7.08460710       35       0.12855907      -0.09964666       0.06520105
O        1.14564869       1.31247445       0.70860814       36       0.12855907      -0.09964666      -0.06520105
O        3.77141178       1.38444107      14.87782233       37       0.12855907       0.09964666       0.06520105
O        4.10587749       4.00938997       7.08460710       38      -0.12855907      -0.09964666       0.06520105
O        1.48011440       4.08135658       8.50182337       39      -0.12855907       0.09964666      -0.06520105
40