40
Lattice="5.191834619811925 -2.922417518177819e-42 0.0 4.0191224322712735e-42 5.453291499660605 0.0 0.0 0.0 13.319643314692591" Properties=species:S:1:pos:R:3:spacegroup_kinds:I:1:forces:R:3 spacegroup="P 1" unit_cell=conventional occupancy="_JSON {\"0\": {\"In\": 1}, \"1\": {\"In\": 1}, \"2\": {\"In\": 1}, \"3\": {\"In\": 1}, \"4\": {\"In\": 1}, \"5\": {\"In\": 1}, \"6\": {\"In\": 1}, \"7\": {\"In\": 1}, \"8\": {\"In\": 1}, \"9\": {\"In\": 1}, \"10\": {\"In\": 1}, \"11\": {\"In\": 1}, \"12\": {\"In\": 1}, \"13\": {\"In\": 1}, \"14\": {\"In\": 1}, \"15\": {\"In\": 1}, \"16\": {\"O\": 1}, \"17\": {\"O\": 1}, \"18\": {\"O\": 1}, \"19\": {\"O\": 1}, \"20\": {\"O\": 1}, \"21\": {\"O\": 1}, \"22\": {\"O\": 1}, \"23\": {\"O\": 1}, \"24\": {\"O\": 1}, \"25\": {\"O\": 1}, \"26\": {\"O\": 1}, \"27\": {\"O\": 1}, \"28\": {\"O\": 1}, \"29\": {\"O\": 1}, \"30\": {\"O\": 1}, \"31\": {\"O\": 1}, \"32\": {\"O\": 1}, \"33\": {\"O\": 1}, \"34\": {\"O\": 1}, \"35\": {\"O\": 1}, \"36\": {\"O\": 1}, \"37\": {\"O\": 1}, \"38\": {\"O\": 1}, \"39\": {\"O\": 1}}" n_minim_iter=12 energy=-45192.988294581475 stress="0.21472131996241378 -1.0874836484751233e-12 -6.005410398266314e-13 -1.0874836484751233e-12 0.21469250529634976 1.9626129140848686e-13 -6.005410398266314e-13 1.9626129140848686e-13 0.21471671336631554" free_energy=-45192.988294581475 pbc="T T T"
In       2.89759094       4.28270943       7.70925872        0      -0.00537838      -0.00037056       0.00158339
In       0.30167363       3.89722782       5.61038460        1      -0.00537838       0.00037056      -0.00158339
In       2.29424368       1.55606368      12.27020626        2       0.00537838      -0.00037056      -0.00158339
In       4.89016099       1.17058207       1.04943706        3       0.00537838       0.00037056       0.00158339
In       2.29424368       1.17058207       5.61038460        4       0.00537838       0.00037056      -0.00158339
In       4.89016099       1.55606368       7.70925872        5       0.00537838      -0.00037056       0.00158339
In       2.89759094       3.89722782       1.04943706        6      -0.00537838       0.00037056       0.00158339
In       0.30167363       4.28270943      12.27020626        7      -0.00537838      -0.00037056      -0.00158339
In       3.00767062       4.10463315      10.83068262        8      -0.00426747      -0.00113811      -0.00081635
In       5.60358793       4.07530410       2.48896069        9      -0.00426747       0.00113811       0.00081635
In       2.18416400       1.37798740       9.14878235       10       0.00426747      -0.00113811       0.00081635
In      -0.41175331       1.34865835       4.17086097       11       0.00426747       0.00113811      -0.00081635
In       2.18416400       1.34865835       2.48896069       12       0.00426747       0.00113811       0.00081635
In      -0.41175331       1.37798740      10.83068262       13       0.00426747      -0.00113811      -0.00081635
In       3.00767062       4.07530410       4.17086097       14      -0.00426747       0.00113811      -0.00081635
In       5.60358793       4.10463315       9.14878235       15      -0.00426747      -0.00113811       0.00081635
O        4.72519497       4.95113390      10.61439652       16       0.00134145       0.00361602      -0.00329076
O        2.12927766       3.22880335       2.70524679       17       0.00134145      -0.00361602       0.00329076
O        0.46663965       2.22448815       9.36506845       18      -0.00134145       0.00361602       0.00329076
O        3.06255696       0.50215760       3.95457487       19      -0.00134145      -0.00361602      -0.00329076
O        0.46663965       0.50215760       2.70524679       20      -0.00134145      -0.00361602       0.00329076
O        3.06255696       2.22448815      10.61439652       21      -0.00134145       0.00361602      -0.00329076
O        4.72519497       3.22880335       3.95457487       22       0.00134145      -0.00361602      -0.00329076
O        2.12927766       4.95113390       9.36506845       23       0.00134145       0.00361602       0.00329076
O        3.16510699       2.29092745       7.90473127       24       0.00163616       0.00109381      -0.00053536
O        0.56918968       5.88900980       5.41491205       25       0.00163616      -0.00109382       0.00053536
O        2.02672763      -0.43571830      12.07473370       26      -0.00163616       0.00109382       0.00053536
O        4.62264494       3.16236405       1.24490961       27      -0.00163616      -0.00109382      -0.00053536
O        2.02672763       3.16236405       5.41491205       28      -0.00163616      -0.00109382       0.00053536
O        4.62264494      -0.43571830       7.90473127       29      -0.00163616       0.00109381      -0.00053536
O        3.16510699       5.88900980       1.24490961       30       0.00163616      -0.00109382      -0.00053536
O        0.56918968       2.29092745      12.07473370       31       0.00163616       0.00109382       0.00053536
O        3.69098401       3.93258433      12.64609521       32      -0.00034777       0.00033748       0.00196895
O        1.09506670       4.24735292       0.67354810       33      -0.00034777      -0.00033748      -0.00196895
O        1.50085061       1.20593858       7.33336976       34       0.00034777       0.00033749      -0.00196895
O        4.09676792       1.52070717       5.98627355       35       0.00034777      -0.00033748       0.00196895
O        1.50085061       1.52070717       0.67354810       36       0.00034777      -0.00033749      -0.00196895
O        4.09676792       1.20593858      12.64609521       37       0.00034777       0.00033748       0.00196895
O        3.69098401       4.24735292       5.98627355       38      -0.00034777      -0.00033748       0.00196895
O        1.09506670       3.93258433       7.33336976       39      -0.00034777       0.00033749      -0.00196895
