40
Lattice="5.158719852157921 -7.803265140074862e-42 5.644917346420359e-85 1.9995492706202164e-42 4.4858774533516375 -6.6776135726239094e-43 -4.1079451923203695e-85 -1.8974495617857382e-42 11.923951669713986" Properties=species:S:1:pos:R:3:spacegroup_kinds:I:1:forces:R:3 spacegroup="P 1" unit_cell=conventional occupancy="_JSON {\"0\": {\"In\": 1}, \"1\": {\"In\": 1}, \"2\": {\"In\": 1}, \"3\": {\"In\": 1}, \"4\": {\"In\": 1}, \"5\": {\"In\": 1}, \"6\": {\"In\": 1}, \"7\": {\"In\": 1}, \"8\": {\"In\": 1}, \"9\": {\"In\": 1}, \"10\": {\"In\": 1}, \"11\": {\"In\": 1}, \"12\": {\"In\": 1}, \"13\": {\"In\": 1}, \"14\": {\"In\": 1}, \"15\": {\"In\": 1}, \"16\": {\"O\": 1}, \"17\": {\"O\": 1}, \"18\": {\"O\": 1}, \"19\": {\"O\": 1}, \"20\": {\"O\": 1}, \"21\": {\"O\": 1}, \"22\": {\"O\": 1}, \"23\": {\"O\": 1}, \"24\": {\"O\": 1}, \"25\": {\"O\": 1}, \"26\": {\"O\": 1}, \"27\": {\"O\": 1}, \"28\": {\"O\": 1}, \"29\": {\"O\": 1}, \"30\": {\"O\": 1}, \"31\": {\"O\": 1}, \"32\": {\"O\": 1}, \"33\": {\"O\": 1}, \"34\": {\"O\": 1}, \"35\": {\"O\": 1}, \"36\": {\"O\": 1}, \"37\": {\"O\": 1}, \"38\": {\"O\": 1}, \"39\": {\"O\": 1}}" n_minim_iter=18 energy=-45200.22158267152 stress="-0.25852295286438876 3.4814113406982742e-12 -1.3569785612031806e-12 3.4814113406982742e-12 -0.2586186685729783 -9.782340967606677e-13 -1.3569785612031806e-12 -9.782340967606677e-13 -0.258366054541031" free_energy=-45200.22158267152 pbc="T T T"
In       3.05206092       3.39919464       6.74146780        0       0.00391390       0.00549748       0.00185455
In       0.47270099       3.32962154       5.18248387        1       0.00391390      -0.00549748      -0.00185455
In       2.10665894       1.15625591      11.14445970        2      -0.00391390       0.00549748      -0.00185455
In       4.68601886       1.08668281       0.77949197        3      -0.00391390      -0.00549748       0.00185455
In       2.10665894       1.08668281       5.18248387        4      -0.00391390      -0.00549748      -0.00185455
In       4.68601886       1.15625591       6.74146780        5      -0.00391390       0.00549748       0.00185455
In       3.05206092       3.32962154       0.77949197        6       0.00391390      -0.00549748       0.00185455
In       0.47270099       3.39919464      11.14445970        7       0.00391390       0.00549748      -0.00185455
In       2.92745151       3.37052500       9.66994319        8       0.00106293       0.00047179       0.00062194
In       5.50681144       3.35829118       2.25400848        9       0.00106293      -0.00047179      -0.00062194
In       2.23126834       1.12758627       8.21598431       10      -0.00106293       0.00047179      -0.00062194
In      -0.34809159       1.11535246       3.70796736       11      -0.00106293      -0.00047179       0.00062194
In       2.23126834       1.11535246       2.25400848       12      -0.00106293      -0.00047179      -0.00062194
In      -0.34809159       1.12758627       9.66994319       13      -0.00106293       0.00047179       0.00062194
In       2.92745151       3.35829118       3.70796736       14       0.00106293      -0.00047179       0.00062194
In       5.50681144       3.37052500       8.21598431       15       0.00106293       0.00047179      -0.00062194
O        4.64049777       3.82449528       9.73379000       16      -0.00346221      -0.00354379      -0.00385169
O        2.06113784       2.90432090       2.19016167       17      -0.00346221       0.00354379       0.00385169
O        0.51822209       1.58155656       8.15213751       18       0.00346221      -0.00354379       0.00385169
O        3.09758201       0.66138217       3.77181416       19       0.00346221       0.00354379      -0.00385169
O        0.51822209       0.66138217       2.19016167       20       0.00346221       0.00354379       0.00385169
O        3.09758201       1.58155656       9.73379000       21       0.00346221      -0.00354379      -0.00385169
O        4.64049777       2.90432090       3.77181416       22      -0.00346221       0.00354379      -0.00385169
O        2.06113784       3.82449528       8.15213751       23      -0.00346221      -0.00354379       0.00385169
O        2.94983717       1.59076011       6.63825967       24       0.00379338       0.00096006       0.00387810
O        0.37047724       5.13805607       5.28569200       25       0.00379338      -0.00096006      -0.00387810
O        2.20888268      -0.65217862      11.24766783       26      -0.00379338       0.00096006      -0.00387810
O        4.78824261       2.89511735       0.67628384       27      -0.00379338      -0.00096006       0.00387810
O        2.20888268       2.89511735       5.28569200       28      -0.00379338      -0.00096006      -0.00387810
O        4.78824261      -0.65217862       6.63825967       29      -0.00379338       0.00096006       0.00387810
O        2.94983717       5.13805607       0.67628384       30       0.00379338      -0.00096006       0.00387810
O        0.37047724       1.59076011      11.24766783       31       0.00379338       0.00096006      -0.00387810
O        3.83793703       2.46957011      11.13218691       32      -0.00108065      -0.00194554      -0.00298788
O        1.25857710       4.25924607       0.79176476       33      -0.00108065       0.00194554       0.00298788
O        1.32078283       0.22663139       6.75374059       34       0.00108065      -0.00194554       0.00298788
O        3.90014275       2.01630734       5.17021108       35       0.00108065       0.00194554      -0.00298788
O        1.32078283       2.01630734       0.79176476       36       0.00108065       0.00194554       0.00298788
O        3.90014275       0.22663139      11.13218691       37       0.00108065      -0.00194554      -0.00298788
O        3.83793703       4.25924607       5.17021108       38      -0.00108065       0.00194554      -0.00298788
O        1.25857710       2.46957011       6.75374059       39      -0.00108065      -0.00194554       0.00298788
