40
Lattice="5.20385743470989 -4.375330139639563e-42 0.0 4.542068318346155e-42 5.379515458840928 0.0 0.0 0.0 15.113936149310948" Properties=species:S:1:pos:R:3:spacegroup_kinds:I:1:forces:R:3 spacegroup="P 1" unit_cell=conventional occupancy="_JSON {\"0\": {\"In\": 1}, \"1\": {\"In\": 1}, \"2\": {\"In\": 1}, \"3\": {\"In\": 1}, \"4\": {\"In\": 1}, \"5\": {\"In\": 1}, \"6\": {\"In\": 1}, \"7\": {\"In\": 1}, \"8\": {\"In\": 1}, \"9\": {\"In\": 1}, \"10\": {\"In\": 1}, \"11\": {\"In\": 1}, \"12\": {\"In\": 1}, \"13\": {\"In\": 1}, \"14\": {\"In\": 1}, \"15\": {\"In\": 1}, \"16\": {\"O\": 1}, \"17\": {\"O\": 1}, \"18\": {\"O\": 1}, \"19\": {\"O\": 1}, \"20\": {\"O\": 1}, \"21\": {\"O\": 1}, \"22\": {\"O\": 1}, \"23\": {\"O\": 1}, \"24\": {\"O\": 1}, \"25\": {\"O\": 1}, \"26\": {\"O\": 1}, \"27\": {\"O\": 1}, \"28\": {\"O\": 1}, \"29\": {\"O\": 1}, \"30\": {\"O\": 1}, \"31\": {\"O\": 1}, \"32\": {\"O\": 1}, \"33\": {\"O\": 1}, \"34\": {\"O\": 1}, \"35\": {\"O\": 1}, \"36\": {\"O\": 1}, \"37\": {\"O\": 1}, \"38\": {\"O\": 1}, \"39\": {\"O\": 1}}" n_minim_iter=15 energy=-45186.85025564281 stress="0.3797135775073512 -9.107857098490287e-13 1.231776152853131e-12 -9.107857098490287e-13 0.3796962951187806 -2.5622934861844524e-12 1.231776152853131e-12 -2.5622934861844524e-12 0.37973775431110524" free_energy=-45186.85025564281 pbc="T T T"
In       3.14535558       4.14665397       9.05449178        0       0.00167107       0.00309976       0.00060448
In       0.54342686       3.92261922       6.05944437        1       0.00167107      -0.00309976      -0.00060448
In       2.05850185       1.45689624      13.61641244        2      -0.00167107       0.00309976      -0.00060448
In       4.66043057       1.23286149       1.49752371        3      -0.00167107      -0.00309976       0.00060448
In       2.05850185       1.23286149       6.05944437        4      -0.00167107      -0.00309976      -0.00060448
In       4.66043057       1.45689624       9.05449178        5      -0.00167107       0.00309976       0.00060448
In       3.14535558       3.92261922       1.49752371        6       0.00167107      -0.00309976       0.00060448
In       0.54342686       4.14665397      13.61641244        7       0.00167107       0.00309976      -0.00060448
In       3.03329698       4.16606298      12.13167657        8      -0.00432744      -0.00325936      -0.00317279
In       5.63522570       3.90321021       2.98225958        9      -0.00432744       0.00325936       0.00317279
In       2.17056046       1.47630525      10.53922766       10       0.00432744      -0.00325936       0.00317279
In      -0.43136826       1.21345248       4.57470849       11       0.00432744       0.00325936      -0.00317279
In       2.17056046       1.21345248       2.98225958       12       0.00432744       0.00325936       0.00317279
In      -0.43136826       1.47630525      12.13167657       13       0.00432744      -0.00325936      -0.00317279
In       3.03329698       3.90321021       4.57470849       14      -0.00432744       0.00325936      -0.00317279
In       5.63522570       4.16606298      10.53922766       15      -0.00432744      -0.00325936       0.00317279
O        4.74118505       4.99028852      12.06720917       16      -0.00259863      -0.00060917       0.00161782
O        2.13925633       3.07898467       3.04672698       17      -0.00259863       0.00060917      -0.00161782
O        0.46267239       2.30053079      10.60369506       18       0.00259863      -0.00060917      -0.00161782
O        3.06460111       0.38922694       4.51024109       19       0.00259863       0.00060917       0.00161782
O        0.46267239       0.38922694       3.04672698       20       0.00259863       0.00060917      -0.00161782
O        3.06460111       2.30053079      12.06720917       21       0.00259863      -0.00060917       0.00161782
O        4.74118505       3.07898467       4.51024109       22      -0.00259863       0.00060917       0.00161782
O        2.13925633       4.99028852      10.60369506       23      -0.00259863      -0.00060917      -0.00161782
O        3.02062488       2.30357304       9.15082707       24      -0.00237022      -0.00152538       0.00026142
O        0.41869616       5.76570015       5.96310908       25      -0.00237022       0.00152538      -0.00026142
O        2.18323256      -0.38618469      13.52007715       26       0.00237022      -0.00152538      -0.00026142
O        4.78516127       3.07594242       1.59385900       27       0.00237022       0.00152538       0.00026142
O        2.18323256       3.07594242       5.96310908       28       0.00237022       0.00152538      -0.00026142
O        4.78516127      -0.38618469       9.15082707       29       0.00237022      -0.00152538       0.00026142
O        3.02062488       5.76570015       1.59385900       30      -0.00237022       0.00152538       0.00026142
O        0.41869616       2.30357304      13.52007715       31      -0.00237022      -0.00152538      -0.00026142
O        4.08148123       4.06674099      14.41635633       32      -0.00209534       0.00252617      -0.00301397
O        1.47955252       4.00253220       0.69757981       33      -0.00209534      -0.00252617       0.00301397
O        1.12237620       1.37698326       8.25454789       34       0.00209534       0.00252617       0.00301397
O        3.72430492       1.31277447       6.85938826       35       0.00209534      -0.00252617      -0.00301397
O        1.12237620       1.31277447       0.69757981       36       0.00209534      -0.00252617       0.00301397
O        3.72430492       1.37698326      14.41635633       37       0.00209534       0.00252617      -0.00301397
O        4.08148123       4.00253220       6.85938826       38      -0.00209534      -0.00252617      -0.00301397
O        1.47955252       4.06674099       8.25454789       39      -0.00209534       0.00252617       0.00301397
