40
Lattice="5.239738744144154 -3.786216232938026e-42 0.0 2.6819722412198866e-42 5.5438444693016935 0.0 0.0 0.0 12.032371348707297" Properties=species:S:1:pos:R:3:spacegroup_kinds:I:1:forces:R:3 spacegroup="P 1" unit_cell=conventional occupancy="_JSON {\"0\": {\"In\": 1}, \"1\": {\"In\": 1}, \"2\": {\"In\": 1}, \"3\": {\"In\": 1}, \"4\": {\"In\": 1}, \"5\": {\"In\": 1}, \"6\": {\"In\": 1}, \"7\": {\"In\": 1}, \"8\": {\"In\": 1}, \"9\": {\"In\": 1}, \"10\": {\"In\": 1}, \"11\": {\"In\": 1}, \"12\": {\"In\": 1}, \"13\": {\"In\": 1}, \"14\": {\"In\": 1}, \"15\": {\"In\": 1}, \"16\": {\"O\": 1}, \"17\": {\"O\": 1}, \"18\": {\"O\": 1}, \"19\": {\"O\": 1}, \"20\": {\"O\": 1}, \"21\": {\"O\": 1}, \"22\": {\"O\": 1}, \"23\": {\"O\": 1}, \"24\": {\"O\": 1}, \"25\": {\"O\": 1}, \"26\": {\"O\": 1}, \"27\": {\"O\": 1}, \"28\": {\"O\": 1}, \"29\": {\"O\": 1}, \"30\": {\"O\": 1}, \"31\": {\"O\": 1}, \"32\": {\"O\": 1}, \"33\": {\"O\": 1}, \"34\": {\"O\": 1}, \"35\": {\"O\": 1}, \"36\": {\"O\": 1}, \"37\": {\"O\": 1}, \"38\": {\"O\": 1}, \"39\": {\"O\": 1}}" n_minim_iter=22 energy=-45198.221466125935 stress="0.253702817254148 1.5473525347727747e-12 -4.58383250019275e-13 1.5473525347727747e-12 0.2538187653131634 -3.417590373162877e-12 -4.58383250019275e-13 -3.417590373162877e-12 0.2537848377669026" free_energy=-45198.221466125935 pbc="T T T"
In       3.07662336       4.14300859       6.86339991        0       0.00094496       0.00205018      -0.00333593
In       0.45675398       4.17275812       5.16897144        1       0.00094495      -0.00205018       0.00333593
In       2.16311539       1.37108635      11.18515712        2      -0.00094496       0.00205018       0.00333593
In       4.78298476       1.40083588       0.84721423        3      -0.00094496      -0.00205018      -0.00333593
In       2.16311539       1.40083588       5.16897144        4      -0.00094496      -0.00205018       0.00333593
In       4.78298476       1.37108635       6.86339991        5      -0.00094496       0.00205018      -0.00333593
In       3.07662336       4.17275812       0.84721423        6       0.00094496      -0.00205018      -0.00333593
In       0.45675398       4.14300859      11.18515712        7       0.00094495       0.00205018       0.00333593
In       2.97609826       4.13839385       9.71650269        8      -0.00120944      -0.00073950      -0.00111253
In       5.59596763       4.17737285       2.31586866        9      -0.00120944       0.00073950       0.00111253
In       2.26364049       1.36647162       8.33205434       10       0.00120944      -0.00073950       0.00111253
In      -0.35622888       1.40545061       3.70031701       11       0.00120944       0.00073950      -0.00111253
In       2.26364049       1.40545061       2.31586866       12       0.00120944       0.00073950       0.00111253
In      -0.35622888       1.36647162       9.71650269       13       0.00120944      -0.00073950      -0.00111253
In       2.97609826       4.17737285       3.70031701       14      -0.00120944       0.00073950      -0.00111253
In       5.59596763       4.13839385       8.33205434       15      -0.00120944      -0.00073950       0.00111253
O        4.76084156       5.02296673       9.82154539       16      -0.00145277      -0.00208898      -0.00028624
O        2.14097219       3.29279997       2.21082596       17      -0.00145277       0.00208898       0.00028624
O        0.47889719       2.25104450       8.22701163       18       0.00145277      -0.00208898       0.00028624
O        3.09876656       0.52087774       3.80535971       19       0.00145277       0.00208898      -0.00028624
O        0.47889719       0.52087774       2.21082596       20       0.00145277       0.00208898       0.00028624
O        3.09876656       2.25104450       9.82154539       21       0.00145277      -0.00208898      -0.00028624
O        4.76084156       3.29279997       3.80535971       22      -0.00145277       0.00208898      -0.00028624
O        2.14097219       5.02296673       8.22701163       23      -0.00145277      -0.00208898       0.00028624
O        3.08096449       2.15272879       6.77694942       24       0.00072105       0.00316705      -0.00413522
O        0.46109512       6.16303792       5.25542193       25       0.00072105      -0.00316705       0.00413522
O        2.15877425      -0.61919345      11.27160760       26      -0.00072105       0.00316705       0.00413522
O        4.77864362       3.39111568       0.76076375       27      -0.00072105      -0.00316705      -0.00413522
O        2.15877425       3.39111568       5.25542193       28      -0.00072105      -0.00316705       0.00413522
O        4.77864362      -0.61919345       6.77694942       29      -0.00072105       0.00316705      -0.00413522
O        3.08096449       6.16303792       0.76076375       30       0.00072105      -0.00316705      -0.00413522
O        0.46109512       2.15272879      11.27160760       31       0.00072105       0.00316705       0.00413522
O        3.87226103       4.04242058      11.28404513       32       0.00107370      -0.00049941       0.00115403
O        1.25239166       4.27334612       0.74832622       33       0.00107370       0.00049941      -0.00115403
O        1.36747771       1.27049835       6.76451189       34      -0.00107370      -0.00049941      -0.00115403
O        3.98734708       1.50142389       5.26785946       35      -0.00107370       0.00049941       0.00115403
O        1.36747771       1.50142389       0.74832622       36      -0.00107370       0.00049941      -0.00115403
O        3.98734708       1.27049835      11.28404513       37      -0.00107370      -0.00049941       0.00115403
O        3.87226103       4.27334612       5.26785946       38       0.00107370       0.00049941       0.00115403
O        1.25239166       4.04242058       6.76451189       39       0.00107370      -0.00049941      -0.00115403
