40
Lattice="5.266805173778822 -3.3033075310354916e-42 0.0 4.664400268745034e-42 5.424371849545316 0.0 0.0 0.0 15.453712621401177" Properties=species:S:1:pos:R:3:spacegroup_kinds:I:1:forces:R:3 spacegroup="P 1" unit_cell=conventional occupancy="_JSON {\"0\": {\"In\": 1}, \"1\": {\"In\": 1}, \"2\": {\"In\": 1}, \"3\": {\"In\": 1}, \"4\": {\"In\": 1}, \"5\": {\"In\": 1}, \"6\": {\"In\": 1}, \"7\": {\"In\": 1}, \"8\": {\"In\": 1}, \"9\": {\"In\": 1}, \"10\": {\"In\": 1}, \"11\": {\"In\": 1}, \"12\": {\"In\": 1}, \"13\": {\"In\": 1}, \"14\": {\"In\": 1}, \"15\": {\"In\": 1}, \"16\": {\"O\": 1}, \"17\": {\"O\": 1}, \"18\": {\"O\": 1}, \"19\": {\"O\": 1}, \"20\": {\"O\": 1}, \"21\": {\"O\": 1}, \"22\": {\"O\": 1}, \"23\": {\"O\": 1}, \"24\": {\"O\": 1}, \"25\": {\"O\": 1}, \"26\": {\"O\": 1}, \"27\": {\"O\": 1}, \"28\": {\"O\": 1}, \"29\": {\"O\": 1}, \"30\": {\"O\": 1}, \"31\": {\"O\": 1}, \"32\": {\"O\": 1}, \"33\": {\"O\": 1}, \"34\": {\"O\": 1}, \"35\": {\"O\": 1}, \"36\": {\"O\": 1}, \"37\": {\"O\": 1}, \"38\": {\"O\": 1}, \"39\": {\"O\": 1}}" n_minim_iter=15 energy=-45182.848764049326 stress="0.490589128917211 2.0413288074722277e-12 -2.405720024905777e-12 2.0413288074722277e-12 0.49060733107881505 1.0252491040080364e-12 -2.405720024905777e-12 1.0252491040080364e-12 0.4905993515613773" free_energy=-45182.848764049326 pbc="T T T"
In       3.16880726       4.17196905       9.26773106        0      -0.00021016      -0.00148840      -0.00050651
In       0.53540468       3.96458872       6.18598156        1      -0.00021016       0.00148840       0.00050651
In       2.09799791       1.45978313      13.91283787        2       0.00021016      -0.00148840       0.00050651
In       4.73140050       1.25240280       1.54087475        3       0.00021016       0.00148840      -0.00050651
In       2.09799791       1.25240280       6.18598156        4       0.00021016       0.00148840       0.00050651
In       4.73140050       1.45978313       9.26773106        5       0.00021016      -0.00148840      -0.00050651
In       3.16880726       3.96458872       1.54087475        6      -0.00021016       0.00148840      -0.00050651
In       0.53540468       4.17196905      13.91283787        7      -0.00021016      -0.00148840       0.00050651
In       3.07743473       4.19857870      12.40341322        8      -0.00022245      -0.00198227      -0.00113157
In       5.71083732       3.93797907       3.05029940        9      -0.00022245       0.00198227       0.00113157
In       2.18937044       1.48639278      10.77715571       10       0.00022245      -0.00198227       0.00113157
In      -0.44403214       1.22579315       4.67655691       11       0.00022245       0.00198227      -0.00113157
In       2.18937044       1.22579315       3.05029940       12       0.00022245       0.00198227       0.00113157
In      -0.44403214       1.48639278      12.40341322       13       0.00022245      -0.00198227      -0.00113157
In       3.07743473       3.93797907       4.67655691       14      -0.00022245       0.00198227      -0.00113157
In       5.71083732       4.19857870      10.77715571       15      -0.00022245      -0.00198227       0.00113157
O        4.80743672       5.03274040      12.30511122       16      -0.00092216      -0.00221054      -0.00072005
O        2.17403414       3.10381737       3.14860140       17      -0.00092216       0.00221054       0.00072005
O        0.45936845       2.32055448      10.87545771       18       0.00092216      -0.00221054       0.00072005
O        3.09277104       0.39163145       4.57825491       19       0.00092216       0.00221054      -0.00072005
O        0.45936845       0.39163145       3.14860140       20       0.00092216       0.00221054       0.00072005
O        3.09277104       2.32055448      12.30511122       21       0.00092216      -0.00221054      -0.00072005
O        4.80743672       3.10381737       4.57825491       22      -0.00092216       0.00221054      -0.00072005
O        2.17403414       5.03274040      10.87545771       23      -0.00092216      -0.00221054       0.00072005
O        3.07111443       2.31206247       9.39373969       24      -0.00102348       0.00113285       0.00080102
O        0.43771185       5.82449531       6.05997293       25      -0.00102348      -0.00113285      -0.00080102
O        2.19569074      -0.40012346      13.78682925       26       0.00102348       0.00113285      -0.00080102
O        4.82909333       3.11230938       1.66688338       27       0.00102348      -0.00113285       0.00080102
O        2.19569074       3.11230938       6.05997293       28       0.00102348      -0.00113285      -0.00080102
O        4.82909333      -0.40012346       9.39373969       29       0.00102348       0.00113285       0.00080102
O        3.07111443       5.82449531       1.66688338       30      -0.00102348      -0.00113285       0.00080102
O        0.43771185       2.31206247      13.78682925       31      -0.00102348       0.00113285      -0.00080102
O        4.12050685       4.10232945      14.75300293       32      -0.00335038       0.00363247      -0.00221263
O        1.48710427       4.03422832       0.70070970       33      -0.00335038      -0.00363247       0.00221263
O        1.14629832       1.39014353       8.42756601       34       0.00335038       0.00363247       0.00221263
O        3.77970091       1.32204239       7.02614661       35       0.00335038      -0.00363247      -0.00221263
O        1.14629832       1.32204239       0.70070970       36       0.00335038      -0.00363247       0.00221263
O        3.77970091       1.39014353      14.75300293       37       0.00335038       0.00363247      -0.00221263
O        4.12050685       4.03422832       7.02614661       38      -0.00335038      -0.00363247      -0.00221263
O        1.48710427       4.10232945       8.42756601       39      -0.00335038       0.00363247       0.00221263
