40
Lattice="4.998565708038464 -4.623796651785677e-42 0.0 4.9888347056371005e-42 4.921565547490559 0.0 0.0 0.0 11.590477179295387" Properties=species:S:1:pos:R:3:spacegroup_kinds:I:1:forces:R:3 spacegroup="P 1" unit_cell=conventional occupancy="_JSON {\"0\": {\"In\": 1}, \"1\": {\"In\": 1}, \"2\": {\"In\": 1}, \"3\": {\"In\": 1}, \"4\": {\"In\": 1}, \"5\": {\"In\": 1}, \"6\": {\"In\": 1}, \"7\": {\"In\": 1}, \"8\": {\"In\": 1}, \"9\": {\"In\": 1}, \"10\": {\"In\": 1}, \"11\": {\"In\": 1}, \"12\": {\"In\": 1}, \"13\": {\"In\": 1}, \"14\": {\"In\": 1}, \"15\": {\"In\": 1}, \"16\": {\"O\": 1}, \"17\": {\"O\": 1}, \"18\": {\"O\": 1}, \"19\": {\"O\": 1}, \"20\": {\"O\": 1}, \"21\": {\"O\": 1}, \"22\": {\"O\": 1}, \"23\": {\"O\": 1}, \"24\": {\"O\": 1}, \"25\": {\"O\": 1}, \"26\": {\"O\": 1}, \"27\": {\"O\": 1}, \"28\": {\"O\": 1}, \"29\": {\"O\": 1}, \"30\": {\"O\": 1}, \"31\": {\"O\": 1}, \"32\": {\"O\": 1}, \"33\": {\"O\": 1}, \"34\": {\"O\": 1}, \"35\": {\"O\": 1}, \"36\": {\"O\": 1}, \"37\": {\"O\": 1}, \"38\": {\"O\": 1}, \"39\": {\"O\": 1}}" n_minim_iter=13 energy=-45200.25783562165 stress="-1.0185150952168962 -3.0453072052265178e-12 2.1612004085181144e-12 -3.0453072052265178e-12 -1.0182163241293103 4.802248735539274e-12 2.1612004085181144e-12 4.802248735539274e-12 -1.01832794172895" free_energy=-45200.25783562165 pbc="T T T"
In       2.95197339       3.66899721       6.57853319        0       0.00108454       0.00093074       0.00498984
In       0.45269053       3.71335111       5.01194398        1       0.00108454      -0.00093074      -0.00498984
In       2.04659232       1.20821444      10.80718257        2      -0.00108454       0.00093074      -0.00498984
In       4.54587518       1.25256833       0.78329461        3      -0.00108454      -0.00093074       0.00498984
In       2.04659232       1.25256833       5.01194398        4      -0.00108454      -0.00093074      -0.00498984
In       4.54587518       1.20821444       6.57853319        5      -0.00108453       0.00093074       0.00498984
In       2.95197339       3.71335111       0.78329461        6       0.00108454      -0.00093074       0.00498984
In       0.45269053       3.66899721      10.80718257        7       0.00108454       0.00093074      -0.00498984
In       2.83658311       3.62012388       9.38140351        8       0.00032289      -0.00082319       0.00289283
In       5.33586597       3.76222444       2.20907367        9       0.00032289       0.00082319      -0.00289283
In       2.16198259       1.15934111       8.00431226       10      -0.00032289      -0.00082319      -0.00289283
In      -0.33730026       1.30144167       3.58616492       11      -0.00032289       0.00082319       0.00289283
In       2.16198259       1.30144167       2.20907367       12      -0.00032289       0.00082319      -0.00289283
In      -0.33730026       1.15934111       9.38140351       13      -0.00032289      -0.00082319       0.00289283
In       2.83658311       3.76222444       3.58616492       14       0.00032289       0.00082319       0.00289283
In       5.33586597       3.62012388       8.00431226       15       0.00032289      -0.00082319      -0.00289283
O        4.50164920       4.31322173       9.46752467       16       0.00060591      -0.00428163      -0.00174012
O        2.00236635       3.06912659       2.12295251       17       0.00060591       0.00428163       0.00174012
O        0.49691650       1.85243895       7.91819109       18      -0.00060591      -0.00428163       0.00174012
O        2.99619936       0.60834382       3.67228608       19      -0.00060591       0.00428163      -0.00174012
O        0.49691650       0.60834382       2.12295251       20      -0.00060591       0.00428163       0.00174012
O        2.99619936       1.85243895       9.46752467       21      -0.00060591      -0.00428163      -0.00174012
O        4.50164920       3.06912659       3.67228608       22       0.00060591       0.00428163      -0.00174012
O        2.00236635       4.31322173       7.91819109       23       0.00060591      -0.00428163       0.00174012
O        2.87993603       1.86464898       6.47924195       24      -0.00161277      -0.00759349      -0.00038770
O        0.38065317       5.51769934       5.11123523       25      -0.00161277       0.00759349       0.00038770
O        2.11862968      -0.59613379      10.90647382       26       0.00161277      -0.00759349       0.00038770
O        4.61791254       3.05691656       0.68400336       27       0.00161277       0.00759349      -0.00038770
O        2.11862968       3.05691656       5.11123523       28       0.00161277       0.00759349       0.00038770
O        4.61791254      -0.59613379       6.47924195       29       0.00161277      -0.00759349      -0.00038770
O        2.87993603       5.51769934       0.68400336       30      -0.00161277       0.00759349      -0.00038770
O        0.38065317       1.86464898      10.90647382       31      -0.00161277      -0.00759349       0.00038770
O        3.72171305       3.02322397      10.89450716       32       0.00154010       0.00105752      -0.00405505
O        1.22243020       4.35912436       0.69597002       33       0.00154010      -0.00105752       0.00405505
O        1.27685266       0.56244119       6.49120861       34      -0.00154010       0.00105752       0.00405505
O        3.77613551       1.89834158       5.09926857       35      -0.00154010      -0.00105752      -0.00405505
O        1.27685266       1.89834158       0.69597002       36      -0.00154010      -0.00105752       0.00405505
O        3.77613551       0.56244119      10.89450716       37      -0.00154010       0.00105752      -0.00405505
O        3.72171305       4.35912436       5.09926857       38       0.00154010      -0.00105752      -0.00405505
O        1.22243020       3.02322397       6.49120861       39       0.00154010       0.00105752       0.00405505
