40
Lattice="9.21198670661974 7.220118534301583e-10 1.1629930836016349e-14 -3.0706622362206315 8.685144357694192 -1.2505665847271761e-09 -3.0706622351995634 -4.342572178125083 7.521555650131956" Properties=species:S:1:pos:R:3:spacegroup_kinds:I:1:forces:R:3 spacegroup="P 1" unit_cell=conventional occupancy="_JSON {\"0\": {\"In\": 1}, \"1\": {\"In\": 1}, \"2\": {\"In\": 1}, \"3\": {\"In\": 1}, \"4\": {\"In\": 1}, \"5\": {\"In\": 1}, \"6\": {\"In\": 1}, \"7\": {\"In\": 1}, \"8\": {\"In\": 1}, \"9\": {\"In\": 1}, \"10\": {\"In\": 1}, \"11\": {\"In\": 1}, \"12\": {\"In\": 1}, \"13\": {\"In\": 1}, \"14\": {\"In\": 1}, \"15\": {\"In\": 1}, \"16\": {\"O\": 1}, \"17\": {\"O\": 1}, \"18\": {\"O\": 1}, \"19\": {\"O\": 1}, \"20\": {\"O\": 1}, \"21\": {\"O\": 1}, \"22\": {\"O\": 1}, \"23\": {\"O\": 1}, \"24\": {\"O\": 1}, \"25\": {\"O\": 1}, \"26\": {\"O\": 1}, \"27\": {\"O\": 1}, \"28\": {\"O\": 1}, \"29\": {\"O\": 1}, \"30\": {\"O\": 1}, \"31\": {\"O\": 1}, \"32\": {\"O\": 1}, \"33\": {\"O\": 1}, \"34\": {\"O\": 1}, \"35\": {\"O\": 1}, \"36\": {\"O\": 1}, \"37\": {\"O\": 1}, \"38\": {\"O\": 1}, \"39\": {\"O\": 1}}" n_minim_iter=1 energy=-45150.36132215645 stress="0.031920059786721675 -1.646805300957347e-12 1.3673058393312607e-12 -1.646805300957347e-12 0.03192005978691708 -1.1323641084820526e-12 1.3673058393312607e-12 -1.1323641084820526e-12 0.03192005978481291" free_energy=-45150.36132215645 pbc="T T T"
In      -4.39352526       3.10669151       5.90138594        0      -0.01271944       0.00899400      -0.01557807
In       7.46418750       1.23588068       1.62016970        1       0.01271944      -0.00899400       0.01557807
In       1.32286302      -0.93540541       5.38094753        2       0.01271944      -0.00899400       0.01557807
In      -1.53533112      -2.17128609       3.76077782        3      -0.00000000      -0.00000000       0.00000000
In      -1.32286303       4.19233455       3.50055862        4      -0.01271944       0.00899400       0.01557807
In       4.81846144      -2.95645388       5.64116674        5      -0.01271944      -0.01798800      -0.00000000
In      -1.32286303       1.38611830       5.64116673        6      -0.01271944      -0.01798800      -0.00000000
In      -1.74779921       7.29902606       1.88038891        7       0.01271944       0.01798800      -0.00000000
In       4.39352526       0.15023763       4.02099703        8       0.01271944      -0.00899400      -0.01557807
In      -1.53533112       4.34257218      -0.00000000        9       0.00000000       0.00000000       0.00000000
In       4.39352526       6.66409590       0.26021920       10       0.01271944      -0.00899400      -0.01557807
In      -1.32286303      -2.32152372       7.26133644       11      -0.01271944       0.00899400       0.01557807
In       4.39352526       2.95645388       1.88038891       12       0.01271944       0.01798800       0.00000000
In       1.74779921       5.27797760       2.14060811       13      -0.01271944       0.00899400      -0.01557807
In       4.60599335       0.00000000      -0.00000000       14      -0.00000000       0.00000000       0.00000000
In       1.53533112       2.17128609       3.76077782       15      -0.00000000      -0.00000000      -0.00000000
O        0.93335443       4.34112156       4.06771832       16       0.05491748       0.02442042      -0.07339753
O       -2.13730781       3.52347272       5.48895276       17       0.05491748      -0.07577433       0.01555006
O       -0.46250390       2.33920752       0.01860461       18      -0.03011111      -0.01565005      -0.08858826
O       -0.93335443      -0.82055008       2.03511544       19      -0.05491748      -0.05135391      -0.05784747
O        4.03439787       5.17386364       2.01651082       20      -0.08974655       0.00020745       0.03074079
O        2.10692660       3.01186831       1.72817494       21       0.08974655      -0.02651858       0.01555006
O        2.10692660       6.50456752       0.28833589       22       0.08974655       0.02672603       0.01519074
O       -2.35959396       6.17017529       3.77938243       23       0.00471797       0.03360571      -0.08858826
O        3.53316613       2.00336467       7.50295104       24       0.03011111       0.01565005       0.08858826
O        5.43025619      -1.82760310       3.74217321       25      -0.00471797      -0.03360571       0.08858826
O        6.60382837       3.35700191       1.74426699       26       0.03011111      -0.08454471      -0.03074079
O        3.78173051       2.35923965       4.04911371       27       0.00471797      -0.09352254       0.01519074
O        0.71106827       4.49830161       7.21461515       28       0.00471797       0.05991683       0.07339753
O        2.35959396      -0.15572943       0.30694050       29      -0.00471797      -0.05991683      -0.07339753
O       -3.53316613       0.98557027       5.77728865       30      -0.03011111       0.08454471       0.03074079
O        5.20797004       0.81909947       2.03260288       31      -0.05491748       0.07577433      -0.01555006
O        0.96373563       1.33070388       5.79338071       32      -0.08974655       0.02651858      -0.01555006
O        3.53316613      -1.01779439       5.79589326       33       0.03011111       0.06889466      -0.05784747
O        2.13730780       0.00145062       3.45383732       34      -0.05491748      -0.02442042       0.07339753
O        0.96373563      -2.16199533       7.23321976       35      -0.08974655      -0.02672603      -0.01519074
O       -0.71106828       1.98333253       3.47244193       36      -0.00471797       0.09352254      -0.01519074
O       -0.96373563      -0.83129146       5.50504482       37       0.08974655      -0.00020745      -0.03074079
O       -0.46250390       5.36036658       1.72566238       38      -0.03011111      -0.06889466       0.05784747
O        4.00401667       5.16312227       5.48644021       39       0.05491748       0.05135391       0.05784747
40
Lattice="9.21198670661974 7.220118534301583e-10 1.1629930836016349e-14 -3.0706622362206315 8.685144357694192 -1.2505665847271761e-09 -3.0706622351995634 -4.342572178125083 7.521555650131956" Properties=species:S:1:pos:R:3:spacegroup_kinds:I:1:forces:R:3 spacegroup="P 1" unit_cell=conventional occupancy="_JSON {\"0\": {\"In\": 1}, \"1\": {\"In\": 1}, \"2\": {\"In\": 1}, \"3\": {\"In\": 1}, \"4\": {\"In\": 1}, \"5\": {\"In\": 1}, \"6\": {\"In\": 1}, \"7\": {\"In\": 1}, \"8\": {\"In\": 1}, \"9\": {\"In\": 1}, \"10\": {\"In\": 1}, \"11\": {\"In\": 1}, \"12\": {\"In\": 1}, \"13\": {\"In\": 1}, \"14\": {\"In\": 1}, \"15\": {\"In\": 1}, \"16\": {\"O\": 1}, \"17\": {\"O\": 1}, \"18\": {\"O\": 1}, \"19\": {\"O\": 1}, \"20\": {\"O\": 1}, \"21\": {\"O\": 1}, \"22\": {\"O\": 1}, \"23\": {\"O\": 1}, \"24\": {\"O\": 1}, \"25\": {\"O\": 1}, \"26\": {\"O\": 1}, \"27\": {\"O\": 1}, \"28\": {\"O\": 1}, \"29\": {\"O\": 1}, \"30\": {\"O\": 1}, \"31\": {\"O\": 1}, \"32\": {\"O\": 1}, \"33\": {\"O\": 1}, \"34\": {\"O\": 1}, \"35\": {\"O\": 1}, \"36\": {\"O\": 1}, \"37\": {\"O\": 1}, \"38\": {\"O\": 1}, \"39\": {\"O\": 1}}" n_minim_iter=2 energy=-45150.371739773196 stress="0.031011463246702967 1.6264301621084427e-12 1.1342818331804163e-12 1.6264301621084427e-12 0.031011463242582707 -1.2353412064591545e-12 1.1342818331804163e-12 -1.2353412064591545e-12 0.031011463245003028" free_energy=-45150.371739773196 pbc="T T T"
In      -4.39443380       3.10733394       5.90027322        0      -0.00914735       0.00646815      -0.01120317
In       7.46509603       1.23523825       1.62128242        1       0.00914735      -0.00646815       0.01120317
In       1.32377156      -0.93604784       5.38206025        2       0.00914735      -0.00646815       0.01120317
In      -1.53533112      -2.17128609       3.76077782        3      -0.00000000       0.00000000      -0.00000000
In      -1.32377156       4.19297698       3.50167134        4      -0.00914735       0.00646815       0.01120317
In       4.81755291      -2.95773873       5.64116674        5      -0.00914735      -0.01293631       0.00000000
In      -1.32377156       1.38483345       5.64116673        6      -0.00914735      -0.01293631       0.00000000
In      -1.74689068       7.30031092       1.88038891        7       0.00914735       0.01293631      -0.00000000
In       4.39443379       0.14959520       4.01988431        8       0.00914735      -0.00646815      -0.01120317
In      -1.53533112       4.34257218      -0.00000000        9      -0.00000000       0.00000000       0.00000000
In       4.39443379       6.66345347       0.25910648       10       0.00914735      -0.00646815      -0.01120317
In      -1.32377156      -2.32088129       7.26244916       11      -0.00914735       0.00646815       0.01120317
In       4.39443379       2.95773874       1.88038891       12       0.00914735       0.01293631       0.00000000
In       1.74689068       5.27862003       2.13949540       13      -0.00914735       0.00646815      -0.01120317
In       4.60599335       0.00000000      -0.00000000       14      -0.00000000       0.00000000       0.00000000
In       1.53533112       2.17128609       3.76077782       15       0.00000000       0.00000000      -0.00000000
O        0.93727711       4.34286587       4.06247564       16       0.03704093       0.00737762      -0.00685114
O       -2.13338513       3.51806027       5.49006348       17       0.03704093      -0.00962207      -0.00296364
O       -0.46465469       2.33808966       0.01227687       18       0.01023089       0.00933549      -0.03579910
O       -0.93727711      -0.82421822       2.03098347       19      -0.03704093      -0.00224445      -0.00981477
O        4.02798740       5.17387846       2.01870660       20      -0.02141875      -0.01842417       0.02598432
O        2.11333707       3.00997412       1.72928565       21       0.02141875      -0.03171517      -0.00296364
O        2.11333707       6.50647652       0.28942094       22       0.02141875       0.01329100       0.02894796
O       -2.35925696       6.17257569       3.77305470       23      -0.00539129      -0.01275761      -0.03579910
O        3.53531692       2.00448253       7.50927877       24      -0.01023089      -0.00933549       0.03579910
O        5.42991920      -1.83000351       3.74850095       25       0.00539129       0.01275761       0.03579910
O        6.60597916       3.35096301       1.74207122       26      -0.01023089      -0.02633518      -0.02598432
O        3.78206751       2.35255947       4.05019876       27      -0.00539129      -0.02462413       0.02894796
O        0.71140527       4.50258138       7.21985783       28      -0.00539129       0.03738173       0.00685114
O        2.35925696      -0.16000920       0.30169782       29       0.00539129      -0.03738173      -0.00685114
O       -3.53531693       0.99160918       5.77948442       30       0.01023089       0.02633518       0.02598432
O        5.20404736       0.82451192       2.03149217       31      -0.03704093       0.00962207       0.00296364
O        0.95732516       1.33259806       5.79226999       32      -0.02141875       0.03171517       0.00296364
O        3.53531692      -1.01287335       5.79176130       33      -0.01023089       0.03567068      -0.00981477
O        2.13338513      -0.00029369       3.45908000       34      -0.03704093      -0.00737762       0.00685114
O        0.95732516      -2.16390433       7.23213471       35      -0.02141875      -0.01329100      -0.02894796
O       -0.71140527       1.99001272       3.47135688       36       0.00539129       0.02462413      -0.02894796
O       -0.95732517      -0.83130628       5.50284905       37       0.02141875       0.01842417      -0.02598432
O       -0.46465469       5.35544553       1.72979435       38       0.01023089      -0.03567068       0.00981477
O        4.00793934       5.16679040       5.49057217       39       0.03704093       0.00224445       0.00981477
40
Lattice="9.21198670661974 7.220118534301583e-10 1.1629930836016349e-14 -3.0706622362206315 8.685144357694192 -1.2505665847271761e-09 -3.0706622351995634 -4.342572178125083 7.521555650131956" Properties=species:S:1:pos:R:3:spacegroup_kinds:I:1:forces:R:3 spacegroup="P 1" unit_cell=conventional occupancy="_JSON {\"0\": {\"In\": 1}, \"1\": {\"In\": 1}, \"2\": {\"In\": 1}, \"3\": {\"In\": 1}, \"4\": {\"In\": 1}, \"5\": {\"In\": 1}, \"6\": {\"In\": 1}, \"7\": {\"In\": 1}, \"8\": {\"In\": 1}, \"9\": {\"In\": 1}, \"10\": {\"In\": 1}, \"11\": {\"In\": 1}, \"12\": {\"In\": 1}, \"13\": {\"In\": 1}, \"14\": {\"In\": 1}, \"15\": {\"In\": 1}, \"16\": {\"O\": 1}, \"17\": {\"O\": 1}, \"18\": {\"O\": 1}, \"19\": {\"O\": 1}, \"20\": {\"O\": 1}, \"21\": {\"O\": 1}, \"22\": {\"O\": 1}, \"23\": {\"O\": 1}, \"24\": {\"O\": 1}, \"25\": {\"O\": 1}, \"26\": {\"O\": 1}, \"27\": {\"O\": 1}, \"28\": {\"O\": 1}, \"29\": {\"O\": 1}, \"30\": {\"O\": 1}, \"31\": {\"O\": 1}, \"32\": {\"O\": 1}, \"33\": {\"O\": 1}, \"34\": {\"O\": 1}, \"35\": {\"O\": 1}, \"36\": {\"O\": 1}, \"37\": {\"O\": 1}, \"38\": {\"O\": 1}, \"39\": {\"O\": 1}}" n_minim_iter=3 energy=-45150.373335061355 stress="0.03053765266879538 6.559379719183427e-13 -1.439185808388046e-12 6.559379719183427e-13 0.03053765266793654 1.149276513326314e-13 -1.439185808388046e-12 1.149276513326314e-13 0.030537652671209167" free_energy=-45150.373335061355 pbc="T T T"
In      -4.39498385       3.10772288       5.89959954        0      -0.00626915       0.00443296      -0.00767811
In       7.46564608       1.23484930       1.62195610        1       0.00626915      -0.00443296       0.00767811
In       1.32432161      -0.93643679       5.38273393        2       0.00626915      -0.00443296       0.00767811
In      -1.53533112      -2.17128609       3.76077782        3      -0.00000000      -0.00000000      -0.00000000
In      -1.32432161       4.19336593       3.50234501        4      -0.00626915       0.00443296       0.00767811
In       4.81700286      -2.95851663       5.64116674        5      -0.00626915      -0.00886592       0.00000000
In      -1.32432161       1.38405555       5.64116673        6      -0.00626915      -0.00886592      -0.00000000
In      -1.74634062       7.30108881       1.88038891        7       0.00626915       0.00886592       0.00000000
In       4.39498385       0.14920625       4.01921063        8       0.00626915      -0.00443296      -0.00767811
In      -1.53533112       4.34257218      -0.00000000        9       0.00000000      -0.00000000       0.00000000
In       4.39498385       6.66306452       0.25843281       10       0.00626915      -0.00443296      -0.00767811
In      -1.32432161      -2.32049234       7.26312284       11      -0.00626915       0.00443296       0.00767811
In       4.39498385       2.95851663       1.88038891       12       0.00626915       0.00886592      -0.00000000
In       1.74634062       5.27900897       2.13882172       13      -0.00626915       0.00443296      -0.00767811
In       4.60599335       0.00000000      -0.00000000       14      -0.00000000      -0.00000000       0.00000000
In       1.53533112       2.17128609       3.76077782       15       0.00000000      -0.00000000       0.00000000
O        0.93960101       4.34371019       4.06025655       16       0.02588034      -0.00066669       0.02113315
O       -2.13106122       3.51571632       5.49044182       17       0.02588034       0.01863519      -0.00998920
O       -0.46529392       2.33784096       0.00902613       18       0.02556764       0.01885630      -0.01037218
O       -0.93960102      -0.82571785       2.02914273       19      -0.02588034       0.01796849       0.01114395
O        4.02500287       5.17350128       2.02011659       20       0.00894265      -0.02395687       0.02151612
O        2.11632160       3.00856444       1.72966400       21      -0.00894265      -0.03061194      -0.00998920
O        2.11632160       6.50750902       0.29045259       22      -0.00894265       0.00665507       0.03150532
O       -2.35923557       6.17326127       3.76980396       23      -0.00925534      -0.03039083      -0.01037217
O        3.53595615       2.00473122       7.51252951       24      -0.02556764      -0.01885630       0.01037217
O        5.42989780      -1.83068908       3.75175169       25       0.00925534       0.03039083       0.01037217
O        6.60661839       3.34802343       1.74066123       26      -0.02556764       0.00044558      -0.02151612
O        3.78208890       2.34940146       4.05123041       27      -0.00925534       0.00621285       0.03150532
O        0.71142667       4.50505382       7.22207692       28      -0.00925534       0.02417798      -0.02113315
O        2.35923556      -0.16248164       0.29947872       29       0.00925534      -0.02417798       0.02113315
O       -3.53595616       0.99454875       5.78089441       30       0.02556764      -0.00044558       0.02151612
O        5.20172346       0.82685587       2.03111382       31      -0.02588034      -0.01863519       0.00998920
O        0.95434063       1.33400774       5.79189165       32       0.00894265       0.03061194       0.00998920
O        3.53595615      -1.01018247       5.78992055       33      -0.02556764       0.01841072       0.01114395
O        2.13106122      -0.00113801       3.46129910       34      -0.02588034       0.00066669      -0.02113315
O        0.95434063      -2.16493683       7.23110306       35       0.00894265      -0.00665507      -0.03150532
O       -0.71142667       1.99317073       3.47032523       36       0.00925534      -0.00621285      -0.03150532
O       -0.95434063      -0.83092909       5.50143906       37      -0.00894265       0.02395687      -0.02151612
O       -0.46529392       5.35275465       1.73163509       38       0.02556764      -0.01841072      -0.01114395
O        4.01026325       5.16829003       5.49241292       39       0.02588034      -0.01796849      -0.01114395
40
Lattice="9.21198670661974 7.220118534301585e-10 1.1629930836016353e-14 -3.0706622362206324 8.685144357694192 -1.2505665847271763e-09 -3.0706622351995643 -4.342572178125083 7.521555650131958" Properties=species:S:1:pos:R:3:spacegroup_kinds:I:1:forces:R:3 spacegroup="P 1" unit_cell=conventional occupancy="_JSON {\"0\": {\"In\": 1}, \"1\": {\"In\": 1}, \"2\": {\"In\": 1}, \"3\": {\"In\": 1}, \"4\": {\"In\": 1}, \"5\": {\"In\": 1}, \"6\": {\"In\": 1}, \"7\": {\"In\": 1}, \"8\": {\"In\": 1}, \"9\": {\"In\": 1}, \"10\": {\"In\": 1}, \"11\": {\"In\": 1}, \"12\": {\"In\": 1}, \"13\": {\"In\": 1}, \"14\": {\"In\": 1}, \"15\": {\"In\": 1}, \"16\": {\"O\": 1}, \"17\": {\"O\": 1}, \"18\": {\"O\": 1}, \"19\": {\"O\": 1}, \"20\": {\"O\": 1}, \"21\": {\"O\": 1}, \"22\": {\"O\": 1}, \"23\": {\"O\": 1}, \"24\": {\"O\": 1}, \"25\": {\"O\": 1}, \"26\": {\"O\": 1}, \"27\": {\"O\": 1}, \"28\": {\"O\": 1}, \"29\": {\"O\": 1}, \"30\": {\"O\": 1}, \"31\": {\"O\": 1}, \"32\": {\"O\": 1}, \"33\": {\"O\": 1}, \"34\": {\"O\": 1}, \"35\": {\"O\": 1}, \"36\": {\"O\": 1}, \"37\": {\"O\": 1}, \"38\": {\"O\": 1}, \"39\": {\"O\": 1}}" n_minim_iter=4 energy=-45150.3743711216 stress="0.03009851830974559 -1.6949485897815765e-12 -2.9598795517612084e-14 -1.6949485897815765e-12 0.03009851830975061 1.8801310170125745e-12 -2.9598795517612084e-14 1.8801310170125745e-12 0.030098518311588822" free_energy=-45150.3743711216 pbc="T T T"
In      -4.39584046       3.10832860       5.89855041        0       0.00078053      -0.00055192       0.00095595
In       7.46650270       1.23424358       1.62300523        1      -0.00078053       0.00055192      -0.00095595
In       1.32517822      -0.93704251       5.38378306        2      -0.00078053       0.00055192      -0.00095595
In      -1.53533112      -2.17128609       3.76077782        3      -0.00000000      -0.00000000       0.00000000
In      -1.32517823       4.19397165       3.50339415        4       0.00078053      -0.00055192      -0.00095595
In       4.81614624      -2.95972806       5.64116674        5       0.00078053       0.00110384      -0.00000000
In      -1.32517823       1.38284412       5.64116673        6       0.00078053       0.00110384       0.00000000
In      -1.74548401       7.30230025       1.88038891        7      -0.00078053      -0.00110384       0.00000000
In       4.39584046       0.14860054       4.01816150        8      -0.00078053       0.00055192       0.00095595
In      -1.53533112       4.34257218      -0.00000000        9      -0.00000000       0.00000000      -0.00000000
In       4.39584046       6.66245880       0.25738367       10      -0.00078053       0.00055192       0.00095595
In      -1.32517823      -2.31988662       7.26417197       11       0.00078053      -0.00055192      -0.00095595
In       4.39584046       2.95972807       1.88038891       12      -0.00078053      -0.00110384      -0.00000000
In       1.74548401       5.27961469       2.13777259       13       0.00078053      -0.00055192       0.00095595
In       4.60599335       0.00000000      -0.00000000       14       0.00000000      -0.00000000      -0.00000000
In       1.53533112       2.17128609       3.76077782       15      -0.00000000      -0.00000000      -0.00000000
O        0.94319107       4.34440535       4.05959683       16       0.00606353      -0.00489769       0.02627290
O       -2.12747116       3.51479741       5.49016966       17       0.00606353       0.02520184      -0.00889493
O       -0.46430819       2.33876359       0.00556433       18       0.02116412       0.01452412       0.00959944
O       -0.94319108      -0.82594160       2.02821085       19      -0.00606353       0.02030415       0.01737797
O        4.02293983       5.17172635       2.02264651       20       0.02173935      -0.01476192       0.00777854
O        2.11838464       3.00548600       1.72939183       21      -0.02173935      -0.01411737      -0.00889493
O        2.11838464       6.50881253       0.29325468       22      -0.02173935      -0.00064455       0.01667346
O       -2.35977686       6.17202436       3.76634215       23      -0.00663876      -0.02479509       0.00959944
O        3.53497042       2.00380859       7.51599131       24      -0.02116412      -0.01452412      -0.00959944
O        5.43043909      -1.82945218       3.75521349       25       0.00663876       0.02479509      -0.00959944
O        6.60563266       3.34548674       1.73813131       26      -0.02116412       0.01557542      -0.00777854
O        3.78154761       2.34702190       4.05403250       27      -0.00663876       0.02071090       0.01667346
O        0.71088538       4.50867028       7.22273663       28      -0.00663876       0.00408419      -0.02627290
O        2.35977685      -0.16609810       0.29881901       29       0.00663876      -0.00408419       0.02627290
O       -3.53497042       0.99708544       5.78342434       30       0.02116412      -0.01557542       0.00777854
O        5.19813339       0.82777477       2.03138599       31      -0.00606353      -0.02520184       0.00889493
O        0.95227759       1.33708618       5.79216381       32       0.02173935       0.01411737       0.00889493
O        3.53497042      -1.00672315       5.78898867       33      -0.02116412      -0.00105130       0.01737797
O        2.12747116      -0.00183317       3.46195881       34      -0.00606353       0.00489769      -0.02627290
O        0.95227759      -2.16624035       7.22830097       35       0.02173935       0.00064455      -0.01667346
O       -0.71088538       1.99555028       3.46752314       36       0.00663876      -0.02071090      -0.01667346
O       -0.95227759      -0.82915417       5.49890913       37      -0.02173935       0.01476192      -0.00777854
O       -0.46430819       5.34929533       1.73256697       38       0.02116412       0.00105130      -0.01737797
O        4.01385331       5.16851379       5.49334480       39       0.00606353      -0.02030415      -0.01737797
40
Lattice="9.21198670661974 7.220118534301586e-10 1.162993083601636e-14 -3.070662236220633 8.685144357694192 -1.2505665847271763e-09 -3.0706622351995647 -4.342572178125083 7.521555650131959" Properties=species:S:1:pos:R:3:spacegroup_kinds:I:1:forces:R:3 spacegroup="P 1" unit_cell=conventional occupancy="_JSON {\"0\": {\"In\": 1}, \"1\": {\"In\": 1}, \"2\": {\"In\": 1}, \"3\": {\"In\": 1}, \"4\": {\"In\": 1}, \"5\": {\"In\": 1}, \"6\": {\"In\": 1}, \"7\": {\"In\": 1}, \"8\": {\"In\": 1}, \"9\": {\"In\": 1}, \"10\": {\"In\": 1}, \"11\": {\"In\": 1}, \"12\": {\"In\": 1}, \"13\": {\"In\": 1}, \"14\": {\"In\": 1}, \"15\": {\"In\": 1}, \"16\": {\"O\": 1}, \"17\": {\"O\": 1}, \"18\": {\"O\": 1}, \"19\": {\"O\": 1}, \"20\": {\"O\": 1}, \"21\": {\"O\": 1}, \"22\": {\"O\": 1}, \"23\": {\"O\": 1}, \"24\": {\"O\": 1}, \"25\": {\"O\": 1}, \"26\": {\"O\": 1}, \"27\": {\"O\": 1}, \"28\": {\"O\": 1}, \"29\": {\"O\": 1}, \"30\": {\"O\": 1}, \"31\": {\"O\": 1}, \"32\": {\"O\": 1}, \"33\": {\"O\": 1}, \"34\": {\"O\": 1}, \"35\": {\"O\": 1}, \"36\": {\"O\": 1}, \"37\": {\"O\": 1}, \"38\": {\"O\": 1}, \"39\": {\"O\": 1}}" n_minim_iter=5 energy=-45150.37487827965 stress="0.03017847702146065 -3.114714777793409e-12 -1.6038661447695566e-12 -3.114714777793409e-12 0.030178477024498787 7.794968603115109e-13 -1.6038661447695566e-12 7.794968603115109e-13 0.030178477026719584" free_energy=-45150.37487827965 pbc="T T T"
In      -4.39587919       3.10835598       5.89850298        0       0.00212076      -0.00149960       0.00259739
In       7.46654142       1.23421620       1.62305266        1      -0.00212076       0.00149960      -0.00259739
In       1.32521695      -0.93706989       5.38383048        2      -0.00212076       0.00149960      -0.00259739
In      -1.53533112      -2.17128609       3.76077782        3       0.00000000       0.00000000       0.00000000
In      -1.32521695       4.19399903       3.50344157        4       0.00212076      -0.00149960      -0.00259739
In       4.81610752      -2.95978282       5.64116674        5       0.00212076       0.00299920      -0.00000000
In      -1.32521695       1.38278935       5.64116673        6       0.00212076       0.00299920       0.00000000
In      -1.74544529       7.30235501       1.88038891        7      -0.00212076      -0.00299920      -0.00000000
In       4.39587918       0.14857316       4.01811407        8      -0.00212076       0.00149960       0.00259739
In      -1.53533112       4.34257218      -0.00000000        9      -0.00000000      -0.00000000      -0.00000000
In       4.39587918       6.66243142       0.25733625       10      -0.00212076       0.00149960       0.00259739
In      -1.32521695      -2.31985924       7.26421940       11       0.00212076      -0.00149960      -0.00259739
In       4.39587918       2.95978283       1.88038891       12      -0.00212076      -0.00299920      -0.00000000
In       1.74544528       5.27964207       2.13772516       13       0.00212076      -0.00149960       0.00259739
In       4.60599335       0.00000000      -0.00000000       14       0.00000000       0.00000000      -0.00000000
In       1.53533112       2.17128609       3.76077782       15      -0.00000000      -0.00000000      -0.00000000
O        0.94347080       4.34422749       4.06060309       16       0.00334608      -0.00200593       0.01206825
O       -2.12719144       3.51575778       5.48982056       17       0.00334608       0.01145438      -0.00429694
O       -0.46347718       2.33933415       0.00589041       18       0.01002344       0.00673277       0.00388113
O       -0.94347080      -0.82515909       2.02886800       19      -0.00334608       0.00944845       0.00777132
O        4.02375203       5.17113210       2.02297759       20       0.00968393      -0.00720768       0.00389019
O        2.11757243       3.00490215       1.72904273       21      -0.00968393      -0.00697284      -0.00429694
O        2.11757243       6.50880213       0.29393486       22      -0.00968393      -0.00023484       0.00818713
O       -2.36003778       6.17105070       3.76666823       23      -0.00300657      -0.01169445       0.00388113
O        3.53413942       2.00323803       7.51566524       24      -0.01002344      -0.00673277      -0.00388113
O        5.43070001      -1.82847852       3.75488741       25       0.00300657       0.01169445      -0.00388113
O        6.60480165       3.34605441       1.73780023       26      -0.01002344       0.00672754      -0.00389019
O        3.78128669       2.34779112       4.05471268       27      -0.00300657       0.00920838       0.00818713
O        0.71062445       4.50887472       7.22173038       28      -0.00300657       0.00248607      -0.01206825
O        2.36003778      -0.16630254       0.29982527       29       0.00300657      -0.00248607       0.01206825
O       -3.53413942       0.99651777       5.78375542       30       0.01002344      -0.00672754       0.00389019
O        5.19785367       0.82681440       2.03173509       31      -0.00334608      -0.01145438       0.00429694
O        0.95308980       1.33767003       5.79251291       32       0.00968393       0.00697284       0.00429694
O        3.53413942      -1.00672026       5.78964583       33      -0.01002344       0.00000523       0.00777132
O        2.12719143      -0.00165531       3.46095255       34      -0.00334608       0.00200593      -0.01206825
O        0.95308980      -2.16622994       7.22762079       35       0.00968393       0.00023484      -0.00818713
O       -0.71062446       1.99478106       3.46684296       36       0.00300657      -0.00920838      -0.00818713
O       -0.95308980      -0.82855991       5.49857805       37      -0.00968393       0.00720768      -0.00389019
O       -0.46347718       5.34929244       1.73190982       38       0.01002344      -0.00000523      -0.00777132
O        4.01413303       5.16773127       5.49268764       39       0.00334608      -0.00944845      -0.00777132
40