40
Lattice="9.34949931900489 7.327875767455568e-10 1.3351001466602634e-14 -3.11649977369251 8.814792491978885 -1.2692352865334665e-09 -3.1164997726562 -4.407396245256651 7.6338342279882" Properties=species:S:1:pos:R:3:spacegroup_kinds:I:1:forces:R:3 spacegroup="P 1" unit_cell=conventional occupancy="_JSON {\"0\": {\"In\": 1}, \"1\": {\"In\": 1}, \"2\": {\"In\": 1}, \"3\": {\"In\": 1}, \"4\": {\"In\": 1}, \"5\": {\"In\": 1}, \"6\": {\"In\": 1}, \"7\": {\"In\": 1}, \"8\": {\"In\": 1}, \"9\": {\"In\": 1}, \"10\": {\"In\": 1}, \"11\": {\"In\": 1}, \"12\": {\"In\": 1}, \"13\": {\"In\": 1}, \"14\": {\"In\": 1}, \"15\": {\"In\": 1}, \"16\": {\"O\": 1}, \"17\": {\"O\": 1}, \"18\": {\"O\": 1}, \"19\": {\"O\": 1}, \"20\": {\"O\": 1}, \"21\": {\"O\": 1}, \"22\": {\"O\": 1}, \"23\": {\"O\": 1}, \"24\": {\"O\": 1}, \"25\": {\"O\": 1}, \"26\": {\"O\": 1}, \"27\": {\"O\": 1}, \"28\": {\"O\": 1}, \"29\": {\"O\": 1}, \"30\": {\"O\": 1}, \"31\": {\"O\": 1}, \"32\": {\"O\": 1}, \"33\": {\"O\": 1}, \"34\": {\"O\": 1}, \"35\": {\"O\": 1}, \"36\": {\"O\": 1}, \"37\": {\"O\": 1}, \"38\": {\"O\": 1}, \"39\": {\"O\": 1}}" n_minim_iter=5 energy=-45149.96831075435 stress="0.029067119225186122 -1.6824994462484524e-12 6.531370461620094e-13 -1.6824994462484524e-12 0.02906711922948918 -1.737586623869781e-12 6.531370461620094e-13 -1.737586623869781e-12 0.02906711922924267" free_energy=-45149.96831075435 pbc="T T T"
In      -4.46268587       3.15559544       5.98509971        0       0.00253973      -0.00179586       0.00311052
In       7.57918564       1.25180081       1.64873452        1      -0.00253973       0.00179586      -0.00311052
In       1.34618610      -0.95189732       5.46565163        2      -0.00253973       0.00179586      -0.00311052
In      -1.55824989      -2.20369812       3.81691711        3       0.00000000      -0.00000000      -0.00000000
In      -1.34618610       4.25744450       3.55719307        4       0.00253973      -0.00179586      -0.00311052
In       4.88681345      -3.00564369       5.72537567        5       0.00253973       0.00359171      -0.00000000
In      -1.34618610       1.40175255       5.72537567        6       0.00253973       0.00359172       0.00000000
In      -1.77031368       7.41303994       1.90845855        7      -0.00253973      -0.00359171       0.00000000
In       4.46268587       0.14995175       4.07664115        8      -0.00253973       0.00179586       0.00311052
In      -1.55824989       4.40739625      -0.00000000        9       0.00000000       0.00000000       0.00000000
In       4.46268587       6.76104611       0.25972404       10      -0.00253973       0.00179586       0.00311052
In      -1.34618610      -2.35364986       7.37411019       11       0.00253973      -0.00179586      -0.00311052
In       4.46268587       3.00564370       1.90845855       12      -0.00253973      -0.00359171      -0.00000000
In       1.77031367       5.35929357       2.16818259       13       0.00253973      -0.00179586       0.00311052
In       4.67474966       0.00000000      -0.00000000       14       0.00000000      -0.00000000       0.00000000
In       1.55824988       2.20369813       3.81691711       15      -0.00000000       0.00000000      -0.00000000
O        0.96759880       4.41374422       4.11888291       16       0.00065853      -0.00373526       0.00399180
O       -2.14890098       3.56388326       5.56889526       17       0.00065853       0.00532463       0.00123893
O       -0.46675382       2.37442559      -0.00473786       18       0.00171798       0.00457549       0.00253648
O       -0.96759880      -0.83716502       2.05394395       19      -0.00065853       0.00158937       0.00523073
O        4.07636168       5.24182586       2.05868181       20       0.00480060      -0.00012493       0.00269424
O        2.15663786       3.04174031       1.75197814       21      -0.00480060      -0.00239575       0.00123893
O        2.15663786       6.60748180       0.30670366       22      -0.00480060       0.00227082       0.00145531
O       -2.39421452       6.25967889       3.81217925       23      -0.00374115      -0.00314489       0.00253648
O        3.58325359       2.03297066       7.63857208       24      -0.00171798      -0.00457548      -0.00253648
O        5.51071429      -1.85228264       3.82165497       25       0.00374115       0.00314489      -0.00253648
O        6.69975336       3.38680781       1.75823530       26      -0.00171798       0.00448440      -0.00269424
O        3.83878502       2.37530276       4.12362077       27      -0.00374115       0.00376910       0.00145531
O        0.72228525       4.58720709       7.33186842       28      -0.00374115      -0.00062421      -0.00399180
O        2.39421452      -0.17981084       0.30196580       29       0.00374115       0.00062421       0.00399180
O       -3.58325359       1.02058844       5.87559892       30       0.00171798      -0.00448440       0.00269424
O        5.26540075       0.84351299       2.06493896       31      -0.00065853      -0.00532463      -0.00123893
O        0.95986191       1.36565594       5.88185608       32       0.00480060       0.00239575      -0.00123893
O        3.58325359      -1.01238222       5.87086106       33      -0.00171798       0.00009108       0.00523073
O        2.14890097      -0.00634797       3.51495131       34      -0.00065853       0.00373526      -0.00399180
O        0.95986191      -2.20008555       7.32713056       35       0.00480060      -0.00227082      -0.00145531
O       -0.72228526       2.03209349       3.51021345       36       0.00374115      -0.00376910      -0.00145531
O       -0.95986191      -0.83442961       5.57515242       37      -0.00480060       0.00012493      -0.00269424
O       -0.46675382       5.41977847       1.76297316       38       0.00171798      -0.00009108      -0.00523073
O        4.08409857       5.24456127       5.57989027       39       0.00065853      -0.00158937      -0.00523073
