40
Lattice="8.453347379167418 6.625470495622713e-10 3.1003958090575566e-15 -2.817782460347129 7.969892340492237 -1.1475778404244725e-09 -2.8177824594101493 -3.984946169583562 6.902129233058342" Properties=species:S:1:pos:R:3:spacegroup_kinds:I:1:forces:R:3 spacegroup="P 1" unit_cell=conventional occupancy="_JSON {\"0\": {\"In\": 1}, \"1\": {\"In\": 1}, \"2\": {\"In\": 1}, \"3\": {\"In\": 1}, \"4\": {\"In\": 1}, \"5\": {\"In\": 1}, \"6\": {\"In\": 1}, \"7\": {\"In\": 1}, \"8\": {\"In\": 1}, \"9\": {\"In\": 1}, \"10\": {\"In\": 1}, \"11\": {\"In\": 1}, \"12\": {\"In\": 1}, \"13\": {\"In\": 1}, \"14\": {\"In\": 1}, \"15\": {\"In\": 1}, \"16\": {\"O\": 1}, \"17\": {\"O\": 1}, \"18\": {\"O\": 1}, \"19\": {\"O\": 1}, \"20\": {\"O\": 1}, \"21\": {\"O\": 1}, \"22\": {\"O\": 1}, \"23\": {\"O\": 1}, \"24\": {\"O\": 1}, \"25\": {\"O\": 1}, \"26\": {\"O\": 1}, \"27\": {\"O\": 1}, \"28\": {\"O\": 1}, \"29\": {\"O\": 1}, \"30\": {\"O\": 1}, \"31\": {\"O\": 1}, \"32\": {\"O\": 1}, \"33\": {\"O\": 1}, \"34\": {\"O\": 1}, \"35\": {\"O\": 1}, \"36\": {\"O\": 1}, \"37\": {\"O\": 1}, \"38\": {\"O\": 1}, \"39\": {\"O\": 1}}" n_minim_iter=6 energy=-45151.210046906424 stress="0.08015053071995326 -1.3881685899824097e-12 7.095436885072338e-13 -1.3881685899824097e-12 0.08015053071974086 -1.7328071075074691e-13 7.095436885072338e-13 -1.7328071075074691e-13 0.08015053071569563" free_energy=-45151.210046906424 pbc="T T T"
In      -4.03492066       2.85311976       5.41144547        0      -0.00452868       0.00320226      -0.00554648
In       6.85270311       1.13182641       1.49068376        1       0.00452868      -0.00320226       0.00554648
In       1.21713820      -0.86064667       4.94174838        2       0.00452868      -0.00320226       0.00554648
In      -1.40889123      -1.99247308       3.45106461        3       0.00000000      -0.00000000       0.00000000
In      -1.21713820       3.84935630       3.21621607        4      -0.00452868       0.00320226       0.00554648
In       4.41842672      -2.71752989       5.17659692        5      -0.00452868      -0.00640452       0.00000000
In      -1.21713820       1.26741628       5.17659692        6      -0.00452868      -0.00640452      -0.00000000
In      -1.60064426       6.70247606       1.72553230        7       0.00452868       0.00640452       0.00000000
In       4.03492066       0.13558987       3.68591316        8       0.00452868      -0.00320226      -0.00554648
In      -1.40889123       3.98494617      -0.00000000        9       0.00000000       0.00000000       0.00000000
In       4.03492065       6.11300913       0.23484854       10       0.00452868      -0.00320226      -0.00554648
In      -1.21713820      -2.12806295       6.66728069       11      -0.00452868       0.00320226       0.00554648
In       4.03492065       2.71752989       1.72553231       12       0.00452868       0.00640452      -0.00000000
In       1.60064426       4.84559284       1.96038085       13      -0.00452868       0.00320226      -0.00554648
In       4.22667369       0.00000000      -0.00000000       14      -0.00000000       0.00000000      -0.00000000
In       1.40889123       1.99247309       3.45106461       15       0.00000000       0.00000000       0.00000000
O        0.73060303       3.94463781       3.86024850       16      -0.00261416      -0.00269978      -0.00529012
O       -2.08717943       3.36322745       5.00691304       17      -0.00261416      -0.00323149       0.00498314
O       -0.38063078       2.15651532       0.19487052       18      -0.00646344      -0.00050964       0.00026875
O       -0.73060304      -0.66202708       1.96503231       19       0.00261416      -0.00593127      -0.00030699
O        3.86660772       4.75948180       1.77016179       20      -0.00217529       0.00608643      -0.00057574
O        1.76895720       2.83920891       1.55584842       21       0.00217529       0.00354182       0.00498314
O        1.76895720       5.90521907       0.21431336       22       0.00217529       0.00254461      -0.00555887
O       -2.16005907       5.61744295       3.64593513       23      -0.00167399       0.00626367       0.00026875
O        3.19841323       1.82843085       6.70725871       24       0.00646344       0.00050964      -0.00026875
O        4.97784153      -1.63249678       3.25619409       25       0.00167399      -0.00626367      -0.00026875
O        6.01619569       3.23949357       1.68090282       26       0.00646344      -0.00002207       0.00057574
O        3.47550585       2.34122406       3.66537798       27      -0.00167399      -0.00289909      -0.00555887
O        0.65772339       3.99617150       6.49294534       28      -0.00167399      -0.00336458       0.00529012
O        2.16005907      -0.01122533       0.40918388       29       0.00167399       0.00336458      -0.00529012
O       -3.19841323       0.74545260       5.22122641       30      -0.00646344       0.00002207      -0.00057574
O        4.90496188       0.62171873       1.89521619       31       0.00261416       0.00323149      -0.00498314
O        1.04882526       1.14573727       5.34628080       32      -0.00217529      -0.00354182      -0.00498314
O        3.19841323      -1.08297824       5.41609693       33       0.00646344      -0.00048756      -0.00030699
O        2.08717942       0.04030836       3.04188073       34       0.00261416       0.00269978       0.00529012
O        1.04882526      -1.92027289       6.68781587       35      -0.00217529      -0.00254461       0.00555887
O       -0.65772339       1.64372211       3.23675125       36       0.00167399       0.00289909       0.00555887
O       -1.04882526      -0.77453563       5.13196744       37       0.00217529      -0.00608643       0.00057574
O       -0.38063078       5.06792442       1.48603230       38      -0.00646344       0.00048756       0.00030699
O        3.54838549       4.64697325       4.93709692       39      -0.00261416       0.00593127       0.00030699
