40
Lattice="8.369645372747309 6.55985032292486e-10 7.514318267378632e-15 -2.7898817915342407 7.890977332042987 -1.1362141986117496e-09 -2.789881790606543 -3.945488665365499 6.83378683099385" Properties=species:S:1:pos:R:3:spacegroup_kinds:I:1:forces:R:3 spacegroup="P 1" unit_cell=conventional occupancy="_JSON {\"0\": {\"In\": 1}, \"1\": {\"In\": 1}, \"2\": {\"In\": 1}, \"3\": {\"In\": 1}, \"4\": {\"In\": 1}, \"5\": {\"In\": 1}, \"6\": {\"In\": 1}, \"7\": {\"In\": 1}, \"8\": {\"In\": 1}, \"9\": {\"In\": 1}, \"10\": {\"In\": 1}, \"11\": {\"In\": 1}, \"12\": {\"In\": 1}, \"13\": {\"In\": 1}, \"14\": {\"In\": 1}, \"15\": {\"In\": 1}, \"16\": {\"O\": 1}, \"17\": {\"O\": 1}, \"18\": {\"O\": 1}, \"19\": {\"O\": 1}, \"20\": {\"O\": 1}, \"21\": {\"O\": 1}, \"22\": {\"O\": 1}, \"23\": {\"O\": 1}, \"24\": {\"O\": 1}, \"25\": {\"O\": 1}, \"26\": {\"O\": 1}, \"27\": {\"O\": 1}, \"28\": {\"O\": 1}, \"29\": {\"O\": 1}, \"30\": {\"O\": 1}, \"31\": {\"O\": 1}, \"32\": {\"O\": 1}, \"33\": {\"O\": 1}, \"34\": {\"O\": 1}, \"35\": {\"O\": 1}, \"36\": {\"O\": 1}, \"37\": {\"O\": 1}, \"38\": {\"O\": 1}, \"39\": {\"O\": 1}}" n_minim_iter=6 energy=-45153.019650848815 stress="0.1817481079337888 -1.7169008545252274e-12 -3.240131762264393e-14 -1.7169008545252274e-12 0.18174810793524643 -7.706498855642455e-13 -3.240131762264393e-14 -7.706498855642455e-13 0.18174810793274454" free_energy=-45153.019650848815 pbc="T T T"
In      -4.00402070       2.83127019       5.34677642        0      -0.00313856       0.00221930      -0.00384394
In       6.79390249       1.11421848       1.48701040        1       0.00313856      -0.00221930       0.00384394
In       1.21413891      -0.85852585       4.90390382        2       0.00313856      -0.00221930       0.00384394
In      -1.39494090      -1.97274433       3.41689341        3       0.00000000      -0.00000000      -0.00000000
In      -1.21413891       3.81764236       3.19545711        4      -0.00313856       0.00221930       0.00384394
In       4.36562467      -2.70342388       5.12534012        5      -0.00313856      -0.00443860      -0.00000000
In      -1.21413891       1.24206479       5.12534012        6      -0.00313856      -0.00443860       0.00000000
In      -1.57574288       6.64891255       1.70844670        7       0.00313856       0.00443860       0.00000000
In       4.00402070       0.12784631       3.63832972        8       0.00313856      -0.00221930      -0.00384394
In      -1.39494090       3.94548867      -0.00000000        9       0.00000000      -0.00000000      -0.00000000
In       4.00402070       6.04607931       0.22143630       10       0.00313856      -0.00221930      -0.00384394
In      -1.21413891      -2.10059064       6.61235052       11      -0.00313856       0.00221930       0.00384394
In       4.00402070       2.70342388       1.70844671       12       0.00313856       0.00443860      -0.00000000
In       1.57574288       4.80401452       1.92988301       13      -0.00313856       0.00221930      -0.00384394
In       4.18482268       0.00000000      -0.00000000       14      -0.00000000       0.00000000      -0.00000000
In       1.39494089       1.97274434       3.41689341       15       0.00000000      -0.00000000       0.00000000
O        0.68592840       3.88662883       3.85617661       16      -0.00179322      -0.00277471      -0.00407125
O       -2.10395339       3.36897683       4.95667263       17      -0.00179322      -0.00213845       0.00443860
O       -0.37039136       2.14316336       0.24605701       18      -0.00522992       0.00029166       0.00022952
O       -0.68592841      -0.63537167       1.97906242       19       0.00179322      -0.00491317       0.00036735
O        3.87761961       4.72292142       1.73300541       20      -0.00141841       0.00504568       0.00013783
O        1.70214397       2.83337833       1.53977922       21       0.00141841       0.00240348       0.00443860
O        1.70214397       5.83503176       0.19322619       22       0.00141841       0.00264220      -0.00430077
O       -2.14405758       5.55305353       3.66295042       23      -0.00201829       0.00483359       0.00022952
O        3.16027315       1.80232531       6.58772982       24       0.00522992      -0.00029166      -0.00022952
O        4.93393937      -1.60756486       3.17083640       25       0.00201829      -0.00483359      -0.00022952
O        5.95015494       3.25741764       1.68388800       26       0.00522992       0.00034460      -0.00013783
O        3.43570600       2.36842569       3.61011960       27      -0.00201829      -0.00221803      -0.00430077
O        0.64582421       3.91498678       6.39450363       28      -0.00201829      -0.00261557       0.00407125
O        2.14405758       0.03050189       0.43928320       29       0.00201829       0.00261557      -0.00407125
O       -3.16027315       0.68807103       5.14989882       30      -0.00522992      -0.00034460       0.00013783
O        4.89383518       0.57651184       1.87711419       31       0.00179322       0.00213845      -0.00443860
O        1.08773782       1.11211034       5.29400761       32      -0.00141841      -0.00240348      -0.00443860
O        3.16027315      -1.11425427       5.39595583       33       0.00522992      -0.00005294       0.00036735
O        2.10395338       0.05885984       2.97761021       34       0.00179322       0.00277471       0.00407125
O        1.08773782      -1.88954309       6.64056064       35      -0.00141841      -0.00264220       0.00430077
O       -0.64582421       1.57706298       3.22366722       36       0.00201829       0.00221803       0.00430077
O       -1.08773782      -0.77743275       5.10078142       37       0.00141841      -0.00504568      -0.00013783
O       -0.37039136       5.05974294       1.43783099       38      -0.00522992       0.00005294      -0.00036735
O        3.47581019       4.58086034       4.85472441       39      -0.00179322       0.00491317      -0.00036735
