40
Lattice="9.61300301521357 7.53445108095585e-10 2.37747884492114e-14 -3.204334339114879 9.063226159247844 -1.3050197020139712e-09 -3.2043343380493625 -4.531613078870471 7.848984095022298" Properties=species:S:1:pos:R:3:spacegroup_kinds:I:1:forces:R:3 spacegroup="P 1" unit_cell=conventional occupancy="_JSON {\"0\": {\"In\": 1}, \"1\": {\"In\": 1}, \"2\": {\"In\": 1}, \"3\": {\"In\": 1}, \"4\": {\"In\": 1}, \"5\": {\"In\": 1}, \"6\": {\"In\": 1}, \"7\": {\"In\": 1}, \"8\": {\"In\": 1}, \"9\": {\"In\": 1}, \"10\": {\"In\": 1}, \"11\": {\"In\": 1}, \"12\": {\"In\": 1}, \"13\": {\"In\": 1}, \"14\": {\"In\": 1}, \"15\": {\"In\": 1}, \"16\": {\"O\": 1}, \"17\": {\"O\": 1}, \"18\": {\"O\": 1}, \"19\": {\"O\": 1}, \"20\": {\"O\": 1}, \"21\": {\"O\": 1}, \"22\": {\"O\": 1}, \"23\": {\"O\": 1}, \"24\": {\"O\": 1}, \"25\": {\"O\": 1}, \"26\": {\"O\": 1}, \"27\": {\"O\": 1}, \"28\": {\"O\": 1}, \"29\": {\"O\": 1}, \"30\": {\"O\": 1}, \"31\": {\"O\": 1}, \"32\": {\"O\": 1}, \"33\": {\"O\": 1}, \"34\": {\"O\": 1}, \"35\": {\"O\": 1}, \"36\": {\"O\": 1}, \"37\": {\"O\": 1}, \"38\": {\"O\": 1}, \"39\": {\"O\": 1}}" n_minim_iter=1 energy=-45148.25181839423 stress="0.02305134357757333 1.889197009674102e-12 -1.0077124643127459e-12 1.889197009674102e-12 0.023051343579314522 -3.411482534191779e-13 -1.0077124643127459e-12 -3.411482534191779e-13 0.023051343577552244" free_energy=-45148.25181839423 pbc="T T T"
In      -4.60042642       3.25299272       6.13912747        0       0.00184406      -0.00130395       0.00225850
In       7.80476076       1.27862036       1.70985661        1      -0.00184406       0.00130395      -0.00225850
In       1.39609208      -0.98718618       5.63434866        2      -0.00184406       0.00130395      -0.00225850
In      -1.60216717      -2.26580654       3.92449204        3       0.00000000       0.00000000      -0.00000000
In      -1.39609208       4.38589599       3.67210264        4       0.00184406      -0.00130395      -0.00225850
In       5.01257659      -3.10727562       5.88673807        5       0.00184406       0.00260790       0.00000000
In      -1.39609208       1.42433746       5.88673807        6       0.00184406       0.00260790       0.00000000
In      -1.80824226       7.63888871       1.96224602        7      -0.00184406      -0.00260790       0.00000000
In       4.60042642       0.14571709       4.17688145        8      -0.00184406       0.00130395       0.00225850
In      -1.60216717       4.53161308      -0.00000000        9      -0.00000000      -0.00000000       0.00000000
In       4.60042642       6.94313671       0.25238940       10      -0.00184406       0.00130395       0.00225850
In      -1.39609208      -2.41152363       7.59659469       11       0.00184406      -0.00130395      -0.00225850
In       4.60042642       3.10727563       1.96224602       12      -0.00184406      -0.00260790      -0.00000000
In       1.80824225       5.51879926       2.21463543       13       0.00184406      -0.00130395       0.00225850
In       4.80650151       0.00000000      -0.00000000       14       0.00000000       0.00000000       0.00000000
In       1.60216717       2.26580654       3.92449204       15      -0.00000000       0.00000000      -0.00000000
O        1.00008414       4.56278320       4.23357267       16      -0.06017226       0.06280061       0.01857932
O       -2.20425020       3.65079643       5.70520364       17      -0.06017226      -0.01531014      -0.06367659
O       -0.46769305       2.42286510      -0.01694100       18       0.02471703      -0.07533593       0.04029113
O       -1.00008414      -0.84964653       2.08979222       19       0.06017226       0.04749047      -0.04509726
O        4.17675394       5.37147872       2.10673322       20       0.00562288      -0.02422838      -0.08538839
O        2.23191473       3.12706141       1.78071159       21      -0.00562288       0.06183433      -0.06367659
O        2.23191473       6.77603039       0.32602163       22      -0.00562288      -0.08606271      -0.02171181
O       -2.44019680       6.43074316       3.90755104       23       0.07926640       0.00180854       0.04029113
O        3.67202739       2.10874799       7.86592509       24      -0.02471703       0.07533593      -0.04029113
O        5.64453114      -1.89913008       3.94143304       25      -0.07926640      -0.00180854      -0.04029113
O        6.87636173       3.46256775       1.81775882       26      -0.02471703      -0.00277482       0.08538839
O        3.96847187       2.43447344       4.25051367       27       0.07926640       0.03398887      -0.02171181
O        0.76413753       4.72962265       7.53990346       28       0.07926640      -0.03579741      -0.01857932
O        2.44019680      -0.19800956       0.30908063       29      -0.07926640       0.03579741       0.01857932
O       -3.67202739       1.06904533       6.03122527       30       0.02471703       0.00277482      -0.08538839
O        5.40858453       0.88081665       2.14378045       31       0.06017226       0.01531014       0.06367659
O        0.97241961       1.40455167       6.06827250       32       0.00562288      -0.06183433       0.06367659
O        3.67202739      -1.03970265       6.01428427       33      -0.02471703      -0.07256111      -0.04509726
O        2.20425019      -0.03117012       3.61541141       34       0.06017226      -0.06280061      -0.01857932
O        0.97241961      -2.24441731       7.52296246       35       0.00562288       0.08606271       0.02171181
O       -0.76413754       2.09713965       3.59847041       36      -0.07926640      -0.03398887       0.02171181
O       -0.97241961      -0.83986564       5.74225087       37      -0.00562288       0.02422838       0.08538839
O       -0.46769305       5.57131574       1.83469982       38       0.02471703       0.07256111       0.04509726
O        4.20441848       5.38125961       5.75919187       39      -0.06017226      -0.04749047       0.04509726
40
Lattice="9.61300301521357 7.534451080955854e-10 2.3774788449211404e-14 -3.204334339114881 9.063226159247844 -1.3050197020139712e-09 -3.2043343380493643 -4.531613078870471 7.848984095022301" Properties=species:S:1:pos:R:3:spacegroup_kinds:I:1:forces:R:3 spacegroup="P 1" unit_cell=conventional occupancy="_JSON {\"0\": {\"In\": 1}, \"1\": {\"In\": 1}, \"2\": {\"In\": 1}, \"3\": {\"In\": 1}, \"4\": {\"In\": 1}, \"5\": {\"In\": 1}, \"6\": {\"In\": 1}, \"7\": {\"In\": 1}, \"8\": {\"In\": 1}, \"9\": {\"In\": 1}, \"10\": {\"In\": 1}, \"11\": {\"In\": 1}, \"12\": {\"In\": 1}, \"13\": {\"In\": 1}, \"14\": {\"In\": 1}, \"15\": {\"In\": 1}, \"16\": {\"O\": 1}, \"17\": {\"O\": 1}, \"18\": {\"O\": 1}, \"19\": {\"O\": 1}, \"20\": {\"O\": 1}, \"21\": {\"O\": 1}, \"22\": {\"O\": 1}, \"23\": {\"O\": 1}, \"24\": {\"O\": 1}, \"25\": {\"O\": 1}, \"26\": {\"O\": 1}, \"27\": {\"O\": 1}, \"28\": {\"O\": 1}, \"29\": {\"O\": 1}, \"30\": {\"O\": 1}, \"31\": {\"O\": 1}, \"32\": {\"O\": 1}, \"33\": {\"O\": 1}, \"34\": {\"O\": 1}, \"35\": {\"O\": 1}, \"36\": {\"O\": 1}, \"37\": {\"O\": 1}, \"38\": {\"O\": 1}, \"39\": {\"O\": 1}}" n_minim_iter=2 energy=-45148.26527324292 stress="0.021043251776909515 -1.2429750099010984e-12 -6.543901611353989e-13 -1.2429750099010984e-12 0.021043251774928304 1.3567757231990381e-12 -6.543901611353989e-13 1.3567757231990381e-12 0.021043251775474354" free_energy=-45148.26527324292 pbc="T T T"
In      -4.60016420       3.25280730       6.13944863        0      -0.00824291       0.00582862      -0.01009546
In       7.80449853       1.27880579       1.70953545        1       0.00824291      -0.00582862       0.01009546
In       1.39582985      -0.98700075       5.63402750        2       0.00824291      -0.00582862       0.01009546
In      -1.60216717      -2.26580654       3.92449204        3       0.00000000      -0.00000000      -0.00000000
In      -1.39582986       4.38571057       3.67178148        4      -0.00824291       0.00582862       0.01009546
In       5.01283882      -3.10690478       5.88673807        5      -0.00824291      -0.01165723       0.00000000
In      -1.39582986       1.42470830       5.88673807        6      -0.00824291      -0.01165723      -0.00000000
In      -1.80850448       7.63851786       1.96224602        7       0.00824291       0.01165723      -0.00000000
In       4.60016419       0.14590252       4.17720261        8       0.00824291      -0.00582862      -0.01009546
In      -1.60216717       4.53161308      -0.00000000        9      -0.00000000       0.00000000      -0.00000000
In       4.60016419       6.94332213       0.25271056       10       0.00824291      -0.00582862      -0.01009546
In      -1.39582986      -2.41170905       7.59627353       11      -0.00824291       0.00582862       0.01009546
In       4.60016419       3.10690479       1.96224602       12       0.00824291       0.01165723      -0.00000000
In       1.80850448       5.51861384       2.21495659       13      -0.00824291       0.00582862      -0.01009546
In       4.80650151       0.00000000      -0.00000000       14      -0.00000000      -0.00000000       0.00000000
In       1.60216717       2.26580654       3.92449204       15      -0.00000000       0.00000000       0.00000000
O        0.99152766       4.57171344       4.23621465       16      -0.01989999      -0.02335647       0.01035754
O       -2.21280668       3.64861933       5.69614884       17      -0.01989999       0.02064813       0.01504853
O       -0.46417830       2.41215234      -0.01121161       18      -0.00918678       0.01307275       0.02816948
O       -0.99152766      -0.84289339       2.08337940       19       0.01989999      -0.00270834       0.02540607
O        4.17755352       5.36803345       2.09459100       20       0.02610058       0.01897199      -0.00276341
O        2.23111516       3.13585424       1.77165679       21      -0.02610058       0.01187918       0.01504853
O        2.23111516       6.76379229       0.32293421       22      -0.02610058       0.00709282      -0.01781193
O       -2.42892514       6.43100033       3.91328044       23      -0.01538736       0.00430379       0.02816948
O        3.66851263       2.11946074       7.86019570       24       0.00918678      -0.01307275      -0.02816948
O        5.63325947      -1.89938725       3.93570365       25       0.01538736      -0.00430379      -0.02816948
O        6.87284697       3.46217318       1.82990104       26       0.00918678       0.03093186       0.00276341
O        3.97974354       2.43930665       4.24742626       27      -0.01538736       0.02224359      -0.01781193
O        0.77540920       4.72453226       7.53726148       28      -0.01538736      -0.02654738      -0.01035754
O        2.42892513      -0.19291918       0.31172261       29       0.01538736       0.02654738       0.01035754
O       -3.66851263       1.06943991       6.01908305       30      -0.00918678      -0.03093186      -0.00276341
O        5.41714102       0.88299375       2.15283525       31       0.01989999      -0.02064813      -0.01504853
O        0.97321918       1.39575884       6.07732730       32       0.02610058      -0.01187918      -0.01504853
O        3.66851263      -1.05002083       6.00787145       33       0.00918678      -0.01785911       0.02540607
O        2.21280668      -0.04010035       3.61276944       34       0.01989999       0.02335647      -0.01035754
O        0.97321918      -2.23217921       7.52604988       35       0.02610058      -0.00709282       0.01781193
O       -0.77540921       2.09230643       3.60155783       36       0.01538736      -0.02224359       0.01781193
O       -0.97321918      -0.83642037       5.75439308       37      -0.02610057      -0.01897199       0.00276341
O       -0.46417830       5.58163392       1.84111264       38      -0.00918678       0.01785911      -0.02540607
O        4.19586199       5.37450648       5.76560469       39      -0.01989999       0.00270834      -0.02540607
40
Lattice="9.61300301521357 7.534451080955857e-10 2.3774788449211398e-14 -3.2043343391148813 9.063226159247845 -1.3050197020139712e-09 -3.2043343380493647 -4.531613078870472 7.848984095022302" Properties=species:S:1:pos:R:3:spacegroup_kinds:I:1:forces:R:3 spacegroup="P 1" unit_cell=conventional occupancy="_JSON {\"0\": {\"In\": 1}, \"1\": {\"In\": 1}, \"2\": {\"In\": 1}, \"3\": {\"In\": 1}, \"4\": {\"In\": 1}, \"5\": {\"In\": 1}, \"6\": {\"In\": 1}, \"7\": {\"In\": 1}, \"8\": {\"In\": 1}, \"9\": {\"In\": 1}, \"10\": {\"In\": 1}, \"11\": {\"In\": 1}, \"12\": {\"In\": 1}, \"13\": {\"In\": 1}, \"14\": {\"In\": 1}, \"15\": {\"In\": 1}, \"16\": {\"O\": 1}, \"17\": {\"O\": 1}, \"18\": {\"O\": 1}, \"19\": {\"O\": 1}, \"20\": {\"O\": 1}, \"21\": {\"O\": 1}, \"22\": {\"O\": 1}, \"23\": {\"O\": 1}, \"24\": {\"O\": 1}, \"25\": {\"O\": 1}, \"26\": {\"O\": 1}, \"27\": {\"O\": 1}, \"28\": {\"O\": 1}, \"29\": {\"O\": 1}, \"30\": {\"O\": 1}, \"31\": {\"O\": 1}, \"32\": {\"O\": 1}, \"33\": {\"O\": 1}, \"34\": {\"O\": 1}, \"35\": {\"O\": 1}, \"36\": {\"O\": 1}, \"37\": {\"O\": 1}, \"38\": {\"O\": 1}, \"39\": {\"O\": 1}}" n_minim_iter=3 energy=-45148.268187096866 stress="0.02054746303583207 -4.675666100571536e-13 -7.115049073123435e-13 -4.675666100571536e-13 0.020547463036828806 -5.434717457648277e-13 -7.115049073123435e-13 -5.434717457648277e-13 0.02054746303796591" free_energy=-45148.268187096866 pbc="T T T"
In      -4.60191067       3.25404224       6.13730965        0       0.00234514      -0.00165826       0.00287220
In       7.80624501       1.27757084       1.71167444        1      -0.00234514       0.00165826      -0.00287220
In       1.39757633      -0.98823570       5.63616649        2      -0.00234514       0.00165826      -0.00287220
In      -1.60216717      -2.26580654       3.92449204        3       0.00000000      -0.00000000      -0.00000000
In      -1.39757633       4.38694551       3.67392046        4       0.00234514      -0.00165826      -0.00287220
In       5.01109234      -3.10937467       5.88673807        5       0.00234514       0.00331653      -0.00000000
In      -1.39757633       1.42223841       5.88673807        6       0.00234514       0.00331653      -0.00000000
In      -1.80675801       7.64098775       1.96224602        7      -0.00234514      -0.00331653      -0.00000000
In       4.60191067       0.14466757       4.17506362        8      -0.00234514       0.00165826       0.00287220
In      -1.60216717       4.53161308      -0.00000000        9      -0.00000000      -0.00000000      -0.00000000
In       4.60191067       6.94208719       0.25057158       10      -0.00234514       0.00165826       0.00287220
In      -1.39757633      -2.41047411       7.59841251       11       0.00234514      -0.00165826      -0.00287220
In       4.60191067       3.10937467       1.96224602       12      -0.00234514      -0.00331653       0.00000000
In       1.80675801       5.51984878       2.21281760       13       0.00234514      -0.00165826       0.00287220
In       4.80650151       0.00000000      -0.00000000       14      -0.00000000       0.00000000       0.00000000
In       1.60216717       2.26580654       3.92449204       15      -0.00000000       0.00000000      -0.00000000
O        0.98688959       4.56714050       4.23854554       16      -0.01637279       0.01058576      -0.00918546
O       -2.21744475       3.65292441       5.69894368       17      -0.01637279      -0.01324772      -0.00457480
O       -0.46597686       2.41444959      -0.00493911       18      -0.00796732      -0.01919128       0.00571975
O       -0.98688959      -0.84316126       2.08850512       19       0.01637279      -0.00266196      -0.01376026
O        4.18315840       5.37192275       2.09344423       20      -0.00703247       0.00596426      -0.01948002
O        2.22551027       3.13879203       1.77445163       21       0.00703247       0.01985232      -0.00457480
O        2.22551027       6.76474380       0.31899259       22       0.00703247      -0.01388806      -0.01490521
O       -2.43169052       6.43193029       3.91955294       23       0.01543794       0.01390876       0.00571975
O        3.67031120       2.11716350       7.85392320       24       0.00796732       0.01919128      -0.00571975
O        5.63602486      -1.90031721       3.92943115       25      -0.01543794      -0.01390876      -0.00571975
O        6.87464554       3.46875395       1.83104781       26       0.00796732      -0.00464219       0.01948002
O        3.97697815       2.44427382       4.24348464       27       0.01543794      -0.00200093      -0.01490521
O        0.77264382       4.71863514       7.53493060       28       0.01543794      -0.01190783       0.00918546
O        2.43169052      -0.18702205       0.31405349       29      -0.01543794       0.01190783      -0.00918546
O       -3.67031120       1.06285914       6.01793627       30      -0.00796732       0.00464219      -0.01948002
O        5.42177908       0.87868868       2.15004041       31       0.01637279       0.01324772       0.00457480
O        0.97882407       1.39282105       6.07453246       32      -0.00703247      -0.01985232       0.00457480
O        3.67031120      -1.05430435       6.01299717       33       0.00796732      -0.01454909      -0.01376026
O        2.21744475      -0.03552741       3.61043855       34       0.01637279      -0.01058576       0.00918546
O        0.97882407      -2.23313072       7.52999150       35      -0.00703247       0.01388806       0.01490521
O       -0.77264382       2.08733927       3.60549945       36      -0.01543794       0.00200093       0.01490521
O       -0.97882407      -0.84030966       5.75553986       37       0.00703247      -0.00596426       0.01948002
O       -0.46597686       5.58591744       1.83598692       38      -0.00796732       0.01454909       0.01376026
O        4.19122393       5.37477434       5.76047896       39      -0.01637279       0.00266196       0.01376026
40
Lattice="9.613003015213575 7.534451080955862e-10 2.3774788449211398e-14 -3.204334339114883 9.06322615924785 -1.3050197020139716e-09 -3.2043343380493665 -4.531613078870475 7.8489840950223035" Properties=species:S:1:pos:R:3:spacegroup_kinds:I:1:forces:R:3 spacegroup="P 1" unit_cell=conventional occupancy="_JSON {\"0\": {\"In\": 1}, \"1\": {\"In\": 1}, \"2\": {\"In\": 1}, \"3\": {\"In\": 1}, \"4\": {\"In\": 1}, \"5\": {\"In\": 1}, \"6\": {\"In\": 1}, \"7\": {\"In\": 1}, \"8\": {\"In\": 1}, \"9\": {\"In\": 1}, \"10\": {\"In\": 1}, \"11\": {\"In\": 1}, \"12\": {\"In\": 1}, \"13\": {\"In\": 1}, \"14\": {\"In\": 1}, \"15\": {\"In\": 1}, \"16\": {\"O\": 1}, \"17\": {\"O\": 1}, \"18\": {\"O\": 1}, \"19\": {\"O\": 1}, \"20\": {\"O\": 1}, \"21\": {\"O\": 1}, \"22\": {\"O\": 1}, \"23\": {\"O\": 1}, \"24\": {\"O\": 1}, \"25\": {\"O\": 1}, \"26\": {\"O\": 1}, \"27\": {\"O\": 1}, \"28\": {\"O\": 1}, \"29\": {\"O\": 1}, \"30\": {\"O\": 1}, \"31\": {\"O\": 1}, \"32\": {\"O\": 1}, \"33\": {\"O\": 1}, \"34\": {\"O\": 1}, \"35\": {\"O\": 1}, \"36\": {\"O\": 1}, \"37\": {\"O\": 1}, \"38\": {\"O\": 1}, \"39\": {\"O\": 1}}" n_minim_iter=4 energy=-45148.268819604265 stress="0.02004619604740226 4.409842365060358e-13 -7.591484226623048e-13 4.409842365060358e-13 0.020046196044823276 5.639565517708125e-13 -7.591484226623048e-13 5.639565517708125e-13 0.02004619604789383" free_energy=-45148.268819604265 pbc="T T T"
In      -4.60215660       3.25421614       6.13700844        0       0.00189821      -0.00134223       0.00232482
In       7.80649094       1.27739694       1.71197565        1      -0.00189821       0.00134223      -0.00232482
In       1.39782226      -0.98840960       5.63646769        2      -0.00189821       0.00134223      -0.00232482
In      -1.60216717      -2.26580654       3.92449204        3      -0.00000000      -0.00000000      -0.00000000
In      -1.39782226       4.38711941       3.67422167        4       0.00189821      -0.00134223      -0.00232482
In       5.01084641      -3.10972247       5.88673807        5       0.00189821       0.00268447       0.00000000
In      -1.39782226       1.42189061       5.88673807        6       0.00189821       0.00268447      -0.00000000
In      -1.80651208       7.64133555       1.96224602        7      -0.00189821      -0.00268447       0.00000000
In       4.60215660       0.14449367       4.17476242        8      -0.00189821       0.00134223       0.00232482
In      -1.60216717       4.53161308      -0.00000000        9       0.00000000       0.00000000       0.00000000
In       4.60215660       6.94191329       0.25027037       10      -0.00189821       0.00134223       0.00232482
In      -1.39782226      -2.41030021       7.59871372       11       0.00189821      -0.00134223      -0.00232482
In       4.60215660       3.10972247       1.96224602       12      -0.00189821      -0.00268447      -0.00000000
In       1.80651207       5.52002268       2.21251640       13       0.00189821      -0.00134223       0.00232482
In       4.80650151       0.00000000      -0.00000000       14       0.00000000      -0.00000000      -0.00000000
In       1.60216717       2.26580654       3.92449204       15       0.00000000       0.00000000       0.00000000
O        0.98435443       4.56794919       4.23929144       16      -0.00805001       0.00000750      -0.01248342
O       -2.21997991       3.65316603       5.69787038       17      -0.00805001      -0.01081471       0.00623522
O       -0.46583167       2.41279591      -0.00272966       18      -0.01287247      -0.00740471       0.00032893
O       -0.98435443      -0.84211094       2.08817773       19       0.00805001      -0.01080721      -0.00624820
O        4.18423126       5.37214806       2.09090738       20      -0.00751287       0.01099712      -0.00657713
O        2.22443741       3.14110166       1.77337833       21       0.00751287       0.01119452       0.00623522
O        2.22443741       6.76265948       0.31752905       22       0.00751287      -0.00019740      -0.01281235
O       -2.43008303       6.43234462       3.92176239       23       0.00269040       0.01460452       0.00032893
O        3.67016600       2.11881717       7.85171375       24       0.01287247       0.00740471      -0.00032893
O        5.63441736      -1.90073154       3.92722170       25      -0.00269040      -0.01460452      -0.00032893
O        6.87450034       3.46984055       1.83358466       26       0.01287247      -0.00341749       0.00657713
O        3.97858565       2.44598009       4.24202109       27       0.00269040      -0.00701740      -0.01281235
O        0.77425131       4.71651453       7.53418470       28       0.00269040      -0.00758712       0.01248342
O        2.43008302      -0.18490145       0.31479939       29      -0.00269040       0.00758712      -0.01248342
O       -3.67016601       1.06177254       6.01539943       30      -0.01287247       0.00341749      -0.00657713
O        5.42431424       0.87844705       2.15111371       31       0.00805001       0.01081471      -0.00623522
O        0.97989692       1.39051142       6.07560576       32      -0.00751287      -0.01119452      -0.00623522
O        3.67016600      -1.05704463       6.01266977       33       0.01287247      -0.00398722      -0.00624820
O        2.21997990      -0.03633611       3.60969265       34       0.00805001      -0.00000750       0.01248342
O        0.97989692      -2.23104640       7.53145504       35      -0.00751287       0.00019740       0.01281235
O       -0.77425132       2.08563299       3.60696299       36      -0.00269040       0.00701740       0.01281235
O       -0.97989693      -0.84053497       5.75807671       37       0.00751287      -0.01099712       0.00657713
O       -0.46583167       5.58865771       1.83631432       38      -0.01287247       0.00398722       0.00624820
O        4.18868877       5.37372403       5.76080636       39      -0.00805001       0.01080721       0.00624820
40
Lattice="9.613003015213577 7.534451080955862e-10 2.377478844921139e-14 -3.204334339114883 9.063226159247854 -1.3050197020139718e-09 -3.2043343380493665 -4.5316130788704765 7.848984095022303" Properties=species:S:1:pos:R:3:spacegroup_kinds:I:1:forces:R:3 spacegroup="P 1" unit_cell=conventional occupancy="_JSON {\"0\": {\"In\": 1}, \"1\": {\"In\": 1}, \"2\": {\"In\": 1}, \"3\": {\"In\": 1}, \"4\": {\"In\": 1}, \"5\": {\"In\": 1}, \"6\": {\"In\": 1}, \"7\": {\"In\": 1}, \"8\": {\"In\": 1}, \"9\": {\"In\": 1}, \"10\": {\"In\": 1}, \"11\": {\"In\": 1}, \"12\": {\"In\": 1}, \"13\": {\"In\": 1}, \"14\": {\"In\": 1}, \"15\": {\"In\": 1}, \"16\": {\"O\": 1}, \"17\": {\"O\": 1}, \"18\": {\"O\": 1}, \"19\": {\"O\": 1}, \"20\": {\"O\": 1}, \"21\": {\"O\": 1}, \"22\": {\"O\": 1}, \"23\": {\"O\": 1}, \"24\": {\"O\": 1}, \"25\": {\"O\": 1}, \"26\": {\"O\": 1}, \"27\": {\"O\": 1}, \"28\": {\"O\": 1}, \"29\": {\"O\": 1}, \"30\": {\"O\": 1}, \"31\": {\"O\": 1}, \"32\": {\"O\": 1}, \"33\": {\"O\": 1}, \"34\": {\"O\": 1}, \"35\": {\"O\": 1}, \"36\": {\"O\": 1}, \"37\": {\"O\": 1}, \"38\": {\"O\": 1}, \"39\": {\"O\": 1}}" n_minim_iter=5 energy=-45148.26898017941 stress="0.01970254490818889 2.8630025147080285e-13 1.0065435373362576e-13 2.8630025147080285e-13 0.0197025449090448 -1.8755796800957777e-12 1.0065435373362576e-13 -1.8755796800957777e-12 0.01970254491028364" free_energy=-45148.26898017941 pbc="T T T"
In      -4.60236793       3.25436557       6.13674963        0       0.00066627      -0.00047112       0.00081601
In       7.80670226       1.27724751       1.71223446        1      -0.00066627       0.00047112      -0.00081601
In       1.39803358      -0.98855903       5.63672651        2      -0.00066627       0.00047112      -0.00081601
In      -1.60216717      -2.26580654       3.92449204        3       0.00000000       0.00000000      -0.00000000
In      -1.39803359       4.38726884       3.67448049        4       0.00066627      -0.00047112      -0.00081601
In       5.01063509      -3.11002133       5.88673807        5       0.00066627       0.00094224       0.00000000
In      -1.39803359       1.42159175       5.88673807        6       0.00066627       0.00094224       0.00000000
In      -1.80630075       7.64163441       1.96224602        7      -0.00066627      -0.00094224      -0.00000000
In       4.60236792       0.14434424       4.17450360        8      -0.00066627       0.00047112       0.00081601
In      -1.60216717       4.53161308      -0.00000000        9       0.00000000       0.00000000      -0.00000000
In       4.60236792       6.94176386       0.25001156       10      -0.00066627       0.00047112       0.00081601
In      -1.39803359      -2.41015078       7.59897253       11       0.00066627      -0.00047112      -0.00081601
In       4.60236792       3.11002133       1.96224602       12      -0.00066627      -0.00094224       0.00000000
In       1.80630075       5.52017211       2.21225758       13       0.00066627      -0.00047112       0.00081601
In       4.80650151       0.00000000      -0.00000000       14      -0.00000000       0.00000000       0.00000000
In       1.60216717       2.26580654       3.92449204       15       0.00000000      -0.00000000       0.00000000
O        0.98218804       4.56815112       4.23951689       16      -0.00177363      -0.00556183      -0.01251292
O       -2.22214630       3.65326031       5.69758278       17      -0.00177363      -0.00805559       0.01107315
O       -0.46627453       2.41167147      -0.00090637       18      -0.01342984       0.00018659      -0.00320273
O       -0.98218804      -0.84181473       2.08811557       19       0.00177363      -0.01361743      -0.00143977
O        4.18504228       5.37290452       2.08902194       20      -0.00700367       0.01176833       0.00176296
O        2.22362639       3.14311273       1.77309073       21       0.00700367       0.00435740       0.01107315
O        2.22362639       6.76140487       0.31593121       22       0.00700367       0.00741093      -0.00931019
O       -2.42917051       6.43313697       3.92358567       23      -0.00465254       0.01259958      -0.00320273
O        3.67060886       2.11994161       7.84989046       24       0.01342984      -0.00018659       0.00320273
O        5.63350485      -1.90152389       3.92539841       25       0.00465254      -0.01259958       0.00320273
O        6.87494320       3.47085734       1.83547010       26       0.01342984      -0.00268035      -0.00176296
O        3.97949816       2.44716293       4.24042326       27      -0.00465254      -0.00907344      -0.00931019
O        0.77516382       4.71453935       7.53395925       28      -0.00465254      -0.00352614       0.01251292
O        2.42917051      -0.18292626       0.31502484       29       0.00465254       0.00352614      -0.01251292
O       -3.67060887       1.06075575       6.01351399       30      -0.01342984       0.00268035       0.00176296
O        5.42648064       0.87835277       2.15140131       31       0.00177363       0.00805559      -0.01107315
O        0.98070794       1.38850036       6.07589336       32      -0.00700367      -0.00435740      -0.01107315
O        3.67060887      -1.05918586       6.01260762       33       0.01342984       0.00286694      -0.00143977
O        2.22214630      -0.03653804       3.60946720       34       0.00177363       0.00556183       0.01251292
O        0.98070794      -2.22979179       7.53305288       35      -0.00700367      -0.00741093       0.00931019
O       -0.77516383       2.08445016       3.60856083       36       0.00465254       0.00907344       0.00931019
O       -0.98070795      -0.84129144       5.75996215       37       0.00700367      -0.01176833      -0.00176296
O       -0.46627453       5.59079895       1.83637647       38      -0.01342984      -0.00286694       0.00143977
O        4.18652238       5.37342782       5.76086852       39      -0.00177363       0.01361743       0.00143977
40