40
Lattice="9.483081642677966 7.43261286948718e-10 1.6411751591401015e-14 -3.1610272149267407 8.940735114529922 -1.2873760402385642e-09 -3.1610272138756255 -4.470367556521694 7.7429037385487245" Properties=species:S:1:pos:R:3:spacegroup_kinds:I:1:forces:R:3 spacegroup="P 1" unit_cell=conventional occupancy="_JSON {\"0\": {\"In\": 1}, \"1\": {\"In\": 1}, \"2\": {\"In\": 1}, \"3\": {\"In\": 1}, \"4\": {\"In\": 1}, \"5\": {\"In\": 1}, \"6\": {\"In\": 1}, \"7\": {\"In\": 1}, \"8\": {\"In\": 1}, \"9\": {\"In\": 1}, \"10\": {\"In\": 1}, \"11\": {\"In\": 1}, \"12\": {\"In\": 1}, \"13\": {\"In\": 1}, \"14\": {\"In\": 1}, \"15\": {\"In\": 1}, \"16\": {\"O\": 1}, \"17\": {\"O\": 1}, \"18\": {\"O\": 1}, \"19\": {\"O\": 1}, \"20\": {\"O\": 1}, \"21\": {\"O\": 1}, \"22\": {\"O\": 1}, \"23\": {\"O\": 1}, \"24\": {\"O\": 1}, \"25\": {\"O\": 1}, \"26\": {\"O\": 1}, \"27\": {\"O\": 1}, \"28\": {\"O\": 1}, \"29\": {\"O\": 1}, \"30\": {\"O\": 1}, \"31\": {\"O\": 1}, \"32\": {\"O\": 1}, \"33\": {\"O\": 1}, \"34\": {\"O\": 1}, \"35\": {\"O\": 1}, \"36\": {\"O\": 1}, \"37\": {\"O\": 1}, \"38\": {\"O\": 1}, \"39\": {\"O\": 1}}" n_minim_iter=1 energy=-45148.84081453466 stress="0.024239307117785158 -1.0586368263882617e-12 -2.2954296153975897e-12 -1.0586368263882617e-12 0.02423930711984783 -3.480308525859283e-12 -2.2954296153975897e-12 -3.480308525859283e-12 0.024239307118818835" free_energy=-45148.84081453466 pbc="T T T"
In      -4.53441058       3.20631247       6.06085950        0      -0.01975313       0.01396757      -0.02419254
In       7.69543779       1.26405509       1.68204423        1       0.01975313      -0.01396757       0.02419254
In       1.37338337      -0.97112869       5.55349610        2       0.01975313      -0.01396757       0.02419254
In      -1.58051361      -2.23518378       3.87145187        3      -0.00000000      -0.00000000      -0.00000000
In      -1.37338337       4.32390436       3.61777017        4      -0.01975313       0.01396757       0.02419254
In       4.94867106      -3.05984927       5.80717780        5      -0.01975313      -0.02793514       0.00000000
In      -1.37338337       1.41051828       5.80717780        6      -0.01975313      -0.02793514       0.00000000
In      -1.78764385       7.53021683       1.93572593        7       0.01975313       0.02793514      -0.00000000
In       4.53441058       0.14646320       4.12513356        8       0.01975313      -0.01396757      -0.02419254
In      -1.58051361       4.47036756      -0.00000000        9       0.00000000      -0.00000000       0.00000000
In       4.53441058       6.85201453       0.25368169       10       0.01975313      -0.01396757      -0.02419254
In      -1.37338337      -2.38164697       7.48922204       11      -0.01975313       0.01396757       0.02419254
In       4.53441058       3.05984928       1.93572593       12       0.01975313       0.02793514      -0.00000000
In       1.78764384       5.44149625       2.18940763       13      -0.01975313       0.01396757      -0.02419254
In       4.74154082       0.00000000      -0.00000000       14      -0.00000000      -0.00000000       0.00000000
In       1.58051361       2.23518378       3.87145187       15      -0.00000000      -0.00000000      -0.00000000
O        0.99418676       4.48734473       4.17409645       16      -0.00662802       0.06268246       0.00035072
O       -2.16684045       3.60638498       5.64115285       17      -0.00662802      -0.03103750      -0.05445997
O       -0.46716877       2.40453561      -0.02008671       18       0.02762582      -0.05525862      -0.01250775
O       -0.99418676      -0.84700540       2.07234556       19       0.00662802       0.03164496      -0.05410925
O        4.12241252       5.30577590       2.09243227       20      -0.02705309      -0.03886632      -0.04160150
O        2.19964191       3.07597222       1.76970098       21       0.02705309       0.01659480      -0.05445997
O        2.19964191       6.70017123       0.32273129       22       0.02705309      -0.05546111       0.01285847
O       -2.42274084       6.34449041       3.85136516       23       0.06130694      -0.00762633      -0.01250775
O        3.62819598       2.06583195       7.76299044       24      -0.02762582       0.05525862       0.01250775
O        5.58376805      -1.87412284       3.89153858       25      -0.06130694       0.00762633       0.01250775
O        6.78922319       3.42005598       1.77901959       26      -0.02762582      -0.03846134       0.04160150
O        3.89931359       2.39831865       4.19418316       27       0.06130694      -0.00701887       0.01285847
O        0.73828638       4.66829363       7.44025915       28       0.06130694       0.01464519      -0.00035072
O        2.42274083      -0.19792606       0.30264458       29      -0.06130694      -0.01464519       0.00035072
O       -3.62819598       1.05031158       5.96388414       30       0.02762582       0.03846134      -0.04160150
O        5.32786766       0.86398258       2.10175089       31       0.00662802       0.03103750       0.05445997
O        0.96138530       1.39439534       5.97320275       32      -0.02705309      -0.01659480       0.05445997
O        3.62819598      -1.01552037       5.94379743       33      -0.02762582      -0.01679728      -0.05410925
O        2.16684045      -0.01697717       3.56880728       34       0.00662802      -0.06268246      -0.00035072
O        0.96138530      -2.22980367       7.42017244       35      -0.02705309       0.05546111      -0.01285847
O       -0.73828638       2.07204892       3.54872057       36      -0.06130694       0.00701887      -0.01285847
O       -0.96138530      -0.83540834       5.65047146       37       0.02705309       0.03886632       0.04160150
O       -0.46716877       5.48588793       1.79910630       38       0.02762582       0.01679728       0.05410925
O        4.15521398       5.31737297       5.67055817       39      -0.00662802      -0.03164496       0.05410925
40
Lattice="9.483081642677964 7.432612869487184e-10 1.641175159140101e-14 -3.1610272149267424 8.94073511452992 -1.287376040238564e-09 -3.1610272138756272 -4.470367556521693 7.742903738548727" Properties=species:S:1:pos:R:3:spacegroup_kinds:I:1:forces:R:3 spacegroup="P 1" unit_cell=conventional occupancy="_JSON {\"0\": {\"In\": 1}, \"1\": {\"In\": 1}, \"2\": {\"In\": 1}, \"3\": {\"In\": 1}, \"4\": {\"In\": 1}, \"5\": {\"In\": 1}, \"6\": {\"In\": 1}, \"7\": {\"In\": 1}, \"8\": {\"In\": 1}, \"9\": {\"In\": 1}, \"10\": {\"In\": 1}, \"11\": {\"In\": 1}, \"12\": {\"In\": 1}, \"13\": {\"In\": 1}, \"14\": {\"In\": 1}, \"15\": {\"In\": 1}, \"16\": {\"O\": 1}, \"17\": {\"O\": 1}, \"18\": {\"O\": 1}, \"19\": {\"O\": 1}, \"20\": {\"O\": 1}, \"21\": {\"O\": 1}, \"22\": {\"O\": 1}, \"23\": {\"O\": 1}, \"24\": {\"O\": 1}, \"25\": {\"O\": 1}, \"26\": {\"O\": 1}, \"27\": {\"O\": 1}, \"28\": {\"O\": 1}, \"29\": {\"O\": 1}, \"30\": {\"O\": 1}, \"31\": {\"O\": 1}, \"32\": {\"O\": 1}, \"33\": {\"O\": 1}, \"34\": {\"O\": 1}, \"35\": {\"O\": 1}, \"36\": {\"O\": 1}, \"37\": {\"O\": 1}, \"38\": {\"O\": 1}, \"39\": {\"O\": 1}}" n_minim_iter=2 energy=-45148.84603655528 stress="0.023641184323832262 5.815653966106883e-13 -2.7608746229924183e-13 5.815653966106883e-13 0.023641184322790845 -7.954098227514226e-15 -2.7608746229924183e-13 -7.954098227514226e-15 0.023641184323494293" free_energy=-45148.84603655528 pbc="T T T"
In      -4.53582152       3.20731016       6.05913146        0      -0.00779164       0.00550952      -0.00954277
In       7.69684873       1.26305740       1.68377227        1       0.00779164      -0.00550952       0.00954277
In       1.37479430      -0.97212637       5.55522414        2       0.00779164      -0.00550952       0.00954277
In      -1.58051361      -2.23518378       3.87145187        3      -0.00000000      -0.00000000      -0.00000000
In      -1.37479431       4.32490205       3.61949821        4      -0.00779164       0.00550952       0.00954277
In       4.94726012      -3.06184464       5.80717780        5      -0.00779164      -0.01101904       0.00000000
In      -1.37479431       1.40852292       5.80717780        6      -0.00779164      -0.01101904      -0.00000000
In      -1.78623291       7.53221220       1.93572593        7       0.00779164       0.01101904       0.00000000
In       4.53582152       0.14546552       4.12340553        8       0.00779164      -0.00550952      -0.00954277
In      -1.58051361       4.47036756      -0.00000000        9      -0.00000000      -0.00000000      -0.00000000
In       4.53582152       6.85101685       0.25195366       10       0.00779164      -0.00550952      -0.00954277
In      -1.37479431      -2.38064929       7.49095008       11      -0.00779164       0.00550952       0.00954277
In       4.53582152       3.06184464       1.93572593       12       0.00779164       0.01101904       0.00000000
In       1.78623291       5.44249394       2.18767959       13      -0.00779164       0.00550952      -0.00954277
In       4.74154082       0.00000000      -0.00000000       14       0.00000000      -0.00000000      -0.00000000
In       1.58051361       2.23518378       3.87145187       15       0.00000000       0.00000000      -0.00000000
O        0.99371333       4.49182205       4.17412150       16       0.00026843       0.02076466      -0.00110749
O       -2.16731388       3.60416802       5.63726285       17       0.00026843      -0.01134145      -0.01742898
O       -0.46519550       2.40058856      -0.02098012       18       0.00897377      -0.01749705      -0.00676716
O       -0.99371333      -0.84474505       2.06848062       19      -0.00026843       0.00942321      -0.01853647
O        4.12048015       5.30299973       2.08946074       20      -0.01078230      -0.01333024      -0.01176931
O        2.20157427       3.07715757       1.76581098       21       0.01078230       0.00352741      -0.01742898
O        2.20157427       6.69620973       0.32364975       22       0.01078230      -0.01685764       0.00565967
O       -2.41836177       6.34394567       3.85047175       23       0.01948764      -0.00262820      -0.00676716
O        3.62622271       2.06977900       7.76388386       24      -0.00897377       0.01749705       0.00676716
O        5.57938898      -1.87357811       3.89243199       25      -0.01948764       0.00262820       0.00676716
O        6.78724992       3.41730874       1.78199113       26      -0.00897377      -0.01460906       0.01176931
O        3.90369266       2.39781730       4.19510162       27       0.01948764      -0.00454643       0.00565967
O        0.74266545       4.66933971       7.44023410       28       0.01948764       0.00717463       0.00110749
O        2.41836176      -0.19897215       0.30266963       29      -0.01948764      -0.00717463      -0.00110749
O       -3.62622271       1.05305882       5.96091261       30       0.00897377       0.01460906      -0.01176931
O        5.32834109       0.86619954       2.10564088       31      -0.00026843       0.01134145       0.01742898
O        0.95945294       1.39321000       5.97709275       32      -0.01078230      -0.00352741       0.01742898
O        3.62622271      -1.01672018       5.93993249       33      -0.00897377      -0.00288799      -0.01853647
O        2.16731388      -0.02145449       3.56878223       34      -0.00026843      -0.02076466       0.00110749
O        0.95945294      -2.22584216       7.41925398       35      -0.01078230       0.01685764      -0.00565967
O       -0.74266545       2.07255026       3.54780211       36      -0.01948764       0.00454643      -0.00565967
O       -0.95945294      -0.83263217       5.65344300       37       0.01078230       0.01333024       0.01176931
O       -0.46519550       5.48708774       1.80297125       38       0.00897377       0.00288799       0.01853647
O        4.15474054       5.31511261       5.67442312       39       0.00026843      -0.00942321       0.01853647
40
Lattice="9.483081642677968 7.432612869487188e-10 1.6411751591401018e-14 -3.161027214926744 8.940735114529923 -1.2873760402385648e-09 -3.161027213875629 -4.470367556521695 7.742903738548732" Properties=species:S:1:pos:R:3:spacegroup_kinds:I:1:forces:R:3 spacegroup="P 1" unit_cell=conventional occupancy="_JSON {\"0\": {\"In\": 1}, \"1\": {\"In\": 1}, \"2\": {\"In\": 1}, \"3\": {\"In\": 1}, \"4\": {\"In\": 1}, \"5\": {\"In\": 1}, \"6\": {\"In\": 1}, \"7\": {\"In\": 1}, \"8\": {\"In\": 1}, \"9\": {\"In\": 1}, \"10\": {\"In\": 1}, \"11\": {\"In\": 1}, \"12\": {\"In\": 1}, \"13\": {\"In\": 1}, \"14\": {\"In\": 1}, \"15\": {\"In\": 1}, \"16\": {\"O\": 1}, \"17\": {\"O\": 1}, \"18\": {\"O\": 1}, \"19\": {\"O\": 1}, \"20\": {\"O\": 1}, \"21\": {\"O\": 1}, \"22\": {\"O\": 1}, \"23\": {\"O\": 1}, \"24\": {\"O\": 1}, \"25\": {\"O\": 1}, \"26\": {\"O\": 1}, \"27\": {\"O\": 1}, \"28\": {\"O\": 1}, \"29\": {\"O\": 1}, \"30\": {\"O\": 1}, \"31\": {\"O\": 1}, \"32\": {\"O\": 1}, \"33\": {\"O\": 1}, \"34\": {\"O\": 1}, \"35\": {\"O\": 1}, \"36\": {\"O\": 1}, \"37\": {\"O\": 1}, \"38\": {\"O\": 1}, \"39\": {\"O\": 1}}" n_minim_iter=3 energy=-45148.84670297912 stress="0.023328092892554365 2.0931386169219083e-13 -1.3572997616860214e-13 2.0931386169219083e-13 0.02332809289418991 1.68093912519079e-13 -1.3572997616860214e-13 1.68093912519079e-13 0.02332809289542054" free_energy=-45148.84670297912 pbc="T T T"
In      -4.53656087       3.20783296       6.05822594        0      -0.00129408       0.00091505      -0.00158492
In       7.69758808       1.26253460       1.68467779        1       0.00129408      -0.00091505       0.00158492
In       1.37553366      -0.97264917       5.55612966        2       0.00129408      -0.00091505       0.00158492
In      -1.58051361      -2.23518378       3.87145187        3       0.00000000       0.00000000      -0.00000000
In      -1.37553366       4.32542485       3.62040372        4      -0.00129408       0.00091505       0.00158492
In       4.94652077      -3.06289024       5.80717780        5      -0.00129408      -0.00183011      -0.00000000
In      -1.37553366       1.40747732       5.80717780        6      -0.00129408      -0.00183011      -0.00000000
In      -1.78549356       7.53325780       1.93572593        7       0.00129408       0.00183011       0.00000000
In       4.53656087       0.14494272       4.12250001        8       0.00129408      -0.00091505      -0.00158492
In      -1.58051361       4.47036756      -0.00000000        9      -0.00000000       0.00000000      -0.00000000
In       4.53656087       6.85049405       0.25104814       10       0.00129408      -0.00091505      -0.00158492
In      -1.37553366      -2.38012649       7.49185559       11      -0.00129408       0.00091505       0.00158492
In       4.53656087       3.06289024       1.93572593       12       0.00129408       0.00183011       0.00000000
In       1.78549356       5.44301674       2.18677407       13      -0.00129408       0.00091505      -0.00158492
In       4.74154082       0.00000000      -0.00000000       14       0.00000000       0.00000000       0.00000000
In       1.58051361       2.23518378       3.87145187       15      -0.00000000       0.00000000      -0.00000000
O        0.99352724       4.49408306       4.17410784       16       0.00341487      -0.00039256      -0.00174898
O       -2.16749997       3.60302568       5.63531159       17       0.00341487      -0.00131838       0.00121446
O       -0.46420283       2.39861272      -0.02148771       18      -0.00047480       0.00143203      -0.00354940
O       -0.99352725      -0.84362638       2.06651569       19      -0.00341487      -0.00171094      -0.00053452
O        4.11946518       5.30158801       2.08800340       20      -0.00238127      -0.00033830       0.00301487
O        2.20258925       3.07771379       1.76385972       21       0.00238127      -0.00278011       0.00121446
O        2.20258925       6.69424178       0.32414368       22       0.00238127       0.00244181       0.00180041
O       -2.41616804       6.34366839       3.84996416       23      -0.00150840      -0.00002969      -0.00354940
O        3.62523004       2.07175484       7.76439144       24       0.00047480      -0.00143203       0.00354940
O        5.57719525      -1.87330083       3.89293958       25       0.00150840       0.00002969       0.00354940
O        6.78625726       3.41588124       1.78344846       26       0.00047480      -0.00235785      -0.00301487
O        3.90588639       2.39751635       4.19559555       27      -0.00150840      -0.00305902       0.00180041
O        0.74485917       4.66991794       7.44024776       28      -0.00150840       0.00308871       0.00174898
O        2.41616804      -0.19955037       0.30265597       29       0.00150840      -0.00308871      -0.00174898
O       -3.62523005       1.05448632       5.95945527       30      -0.00047480       0.00235785       0.00301487
O        5.32852718       0.86734188       2.10759214       31      -0.00341487       0.00131838      -0.00121446
O        0.95843796       1.39265377       5.97904401       32      -0.00238127       0.00278011      -0.00121446
O        3.62523004      -1.01726851       5.93796756       33       0.00047480       0.00378988      -0.00053452
O        2.16749997      -0.02371549       3.56879590       34      -0.00341487       0.00039256       0.00174898
O        0.95843796      -2.22387421       7.41876006       35      -0.00238127      -0.00244181      -0.00180041
O       -0.74485918       2.07285121       3.54730819       36       0.00150840       0.00305902      -0.00180041
O       -0.95843796      -0.83122044       5.65490033       37       0.00238127       0.00033830      -0.00301487
O       -0.46420283       5.48763607       1.80493617       38      -0.00047480      -0.00378988       0.00053452
O        4.15455446       5.31399394       5.67638804       39       0.00341487       0.00171094       0.00053452
