40
Lattice="9.07024129152754 7.108984414707394e-10 -8.854737979364462e-16 -3.023413764512756 8.551505498746172 -1.231314398067139e-09 -3.023413763507393 -4.275752748662183 7.405821003337382" Properties=species:S:1:pos:R:3:spacegroup_kinds:I:1:forces:R:3 spacegroup="P 1" unit_cell=conventional occupancy="_JSON {\"0\": {\"In\": 1}, \"1\": {\"In\": 1}, \"2\": {\"In\": 1}, \"3\": {\"In\": 1}, \"4\": {\"In\": 1}, \"5\": {\"In\": 1}, \"6\": {\"In\": 1}, \"7\": {\"In\": 1}, \"8\": {\"In\": 1}, \"9\": {\"In\": 1}, \"10\": {\"In\": 1}, \"11\": {\"In\": 1}, \"12\": {\"In\": 1}, \"13\": {\"In\": 1}, \"14\": {\"In\": 1}, \"15\": {\"In\": 1}, \"16\": {\"O\": 1}, \"17\": {\"O\": 1}, \"18\": {\"O\": 1}, \"19\": {\"O\": 1}, \"20\": {\"O\": 1}, \"21\": {\"O\": 1}, \"22\": {\"O\": 1}, \"23\": {\"O\": 1}, \"24\": {\"O\": 1}, \"25\": {\"O\": 1}, \"26\": {\"O\": 1}, \"27\": {\"O\": 1}, \"28\": {\"O\": 1}, \"29\": {\"O\": 1}, \"30\": {\"O\": 1}, \"31\": {\"O\": 1}, \"32\": {\"O\": 1}, \"33\": {\"O\": 1}, \"34\": {\"O\": 1}, \"35\": {\"O\": 1}, \"36\": {\"O\": 1}, \"37\": {\"O\": 1}, \"38\": {\"O\": 1}, \"39\": {\"O\": 1}}" n_minim_iter=6 energy=-45151.29905133902 stress="0.006999387260831458 1.359546713945558e-12 -1.7390990257149118e-12 1.359546713945558e-12 0.006999387259864459 -1.3116610976628635e-12 -1.7390990257149118e-12 -1.3116610976628635e-12 0.006999387256083993" free_energy=-45151.29905133902 pbc="T T T"
In      -4.32786649       3.06026374       5.80819921        0      -0.00036450       0.00025774      -0.00044642
In       7.35128025       1.21548901       1.59762178        1       0.00036450      -0.00025774       0.00044642
In       1.30445272      -0.92238737       5.30053229        2       0.00036450      -0.00025774       0.00044642
In      -1.51170688      -2.13787637       3.70291050        3      -0.00000000       0.00000000      -0.00000000
In      -1.30445273       4.12920193       3.44907703        4      -0.00036450       0.00025774       0.00044642
In       4.74237480      -2.91371292       5.55436575        5      -0.00036450      -0.00051548       0.00000000
In      -1.30445273       1.36203983       5.55436575        6      -0.00036450      -0.00051548      -0.00000000
In      -1.71896104       7.18946567       1.85145525        7       0.00036450       0.00051548      -0.00000000
In       4.32786649       0.14655082       3.95674396        8       0.00036450      -0.00025774      -0.00044642
In      -1.51170688       4.27575275      -0.00000000        9      -0.00000000      -0.00000000       0.00000000
In       4.32786649       6.56017995       0.25383346       10       0.00036450      -0.00025774      -0.00044642
In      -1.30445273      -2.28442719       7.15198754       11      -0.00036450       0.00025774       0.00044642
In       4.32786649       2.91371293       1.85145525       12       0.00036450       0.00051548      -0.00000000
In       1.71896104       5.19814012       2.10528871       13      -0.00036450       0.00025774      -0.00044642
In       4.53512064       0.00000000      -0.00000000       14      -0.00000000       0.00000000      -0.00000000
In       1.51170688       2.13787638       3.70291050       15       0.00000000      -0.00000000       0.00000000
O        0.90786493       4.27619424       4.01936156       16       0.00000769       0.00194345      -0.00013229
O       -2.11554884       3.48064848       5.39575788       17       0.00000769      -0.00108629      -0.00161693
O       -0.44659362       2.30051892       0.03398122       18       0.00081070      -0.00165411      -0.00063345
O       -0.90786493      -0.79466279       2.00929844       19      -0.00000769       0.00085716      -0.00174922
O        3.98676979       5.09003461       1.97531721       20      -0.00102673      -0.00122288      -0.00111577
O        2.06005773       2.97221879       1.69284738       21       0.00102673       0.00035485      -0.00161693
O        2.06005773       6.39356857       0.28246983       22       0.00102673      -0.00157773       0.00050116
O       -2.31781458       6.06784199       3.73689172       23       0.00182974      -0.00021296      -0.00063345
O        3.47000738       1.97523383       7.37183978       24      -0.00081070       0.00165411       0.00063345
O        5.34122834      -1.79208923       3.66892928       25      -0.00182974       0.00021296       0.00063345
O        6.49342115       3.31756444       1.72759328       26      -0.00081070      -0.00137564       0.00111577
O        3.72901295       2.34019855       3.98538033       27       0.00182974      -0.00044210       0.00050116
O        0.70559918       4.41921772       7.08936994       28       0.00182974       0.00065507       0.00013229
O        2.31781458      -0.14346497       0.31645106       29      -0.00182974      -0.00065507      -0.00013229
O       -3.47000739       0.95818831       5.67822772       30       0.00081070       0.00137564      -0.00111577
O        5.13896260       0.79510428       2.01006312       31      -0.00000769       0.00108629       0.00161693
O        0.96335603       1.30353397       5.71297362       32      -0.00102673      -0.00035485       0.00161693
O        3.47000738      -1.01704551       5.71220894       33      -0.00081070      -0.00027847      -0.00174922
O        2.11554883      -0.00044149       3.38645944       34      -0.00000769      -0.00194345       0.00013229
O        0.96335603      -2.11781582       7.12335117       35      -0.00102673       0.00157773      -0.00050116
O       -0.70559918       1.93555421       3.42044066       36      -0.00182974       0.00044210      -0.00050116
O       -0.96335603      -0.81428185       5.43050378       37       0.00102673       0.00122288       0.00111577
O       -0.44659362       5.29279827       1.69361206       38       0.00081070       0.00027847       0.00174922
O        3.93127869       5.07041554       5.39652256       39       0.00000769      -0.00085716       0.00174922
