40
Lattice="8.10792075467533 6.354714696111037e-10 1.688133954822784e-14 -2.7026402521575705 7.644220995726945 -1.1006804416334723e-09 -2.702640251258895 -3.822110497227996 6.620089575175687" Properties=species:S:1:pos:R:3:spacegroup_kinds:I:1:forces:R:3 spacegroup="P 1" unit_cell=conventional occupancy="_JSON {\"0\": {\"In\": 1}, \"1\": {\"In\": 1}, \"2\": {\"In\": 1}, \"3\": {\"In\": 1}, \"4\": {\"In\": 1}, \"5\": {\"In\": 1}, \"6\": {\"In\": 1}, \"7\": {\"In\": 1}, \"8\": {\"In\": 1}, \"9\": {\"In\": 1}, \"10\": {\"In\": 1}, \"11\": {\"In\": 1}, \"12\": {\"In\": 1}, \"13\": {\"In\": 1}, \"14\": {\"In\": 1}, \"15\": {\"In\": 1}, \"16\": {\"O\": 1}, \"17\": {\"O\": 1}, \"18\": {\"O\": 1}, \"19\": {\"O\": 1}, \"20\": {\"O\": 1}, \"21\": {\"O\": 1}, \"22\": {\"O\": 1}, \"23\": {\"O\": 1}, \"24\": {\"O\": 1}, \"25\": {\"O\": 1}, \"26\": {\"O\": 1}, \"27\": {\"O\": 1}, \"28\": {\"O\": 1}, \"29\": {\"O\": 1}, \"30\": {\"O\": 1}, \"31\": {\"O\": 1}, \"32\": {\"O\": 1}, \"33\": {\"O\": 1}, \"34\": {\"O\": 1}, \"35\": {\"O\": 1}, \"36\": {\"O\": 1}, \"37\": {\"O\": 1}, \"38\": {\"O\": 1}, \"39\": {\"O\": 1}}" n_minim_iter=1 energy=-45164.07429306286 stress="0.2618973284267707 -4.811249318228833e-13 7.032611039276633e-13 -4.811249318228833e-13 0.2618973284268925 -9.83233726383389e-13 7.032611039276633e-13 -9.83233726383389e-13 0.26189732842697805" free_energy=-45164.07429306286 pbc="T T T"
In      -3.92672239       2.77661203       5.12090126        0      -0.84439963       0.59708071      -1.03417412
In       6.62936264       1.04549847       1.49918831        1       0.84439963      -0.59708071       1.03417412
In       1.22408213      -0.86555678       4.80923310        2       0.84439963      -0.59708071       1.03417412
In      -1.35132013      -1.91105525       3.31004479        3      -0.00000000      -0.00000000      -0.00000000
In      -1.22408214       3.73213965       3.15421071        4      -0.84439963       0.59708071       1.03417412
In       4.18119837      -2.68664118       4.96506718        5      -0.84439963      -1.19416142       0.00000000
In      -1.22408214       1.13546932       4.96506718        6      -0.84439963      -1.19416142       0.00000000
In      -1.47855812       6.50875168       1.65502239        7       0.84439963       1.19416142      -0.00000000
In       3.92672238       0.08997085       3.46587886        8       0.84439963      -0.59708071      -1.03417412
In      -1.35132013       3.82211050      -0.00000000        9      -0.00000000       0.00000000       0.00000000
In       3.92672238       5.82313660       0.15583408       10       0.84439963      -0.59708071      -1.03417412
In      -1.22408213      -2.00102609       6.46425549       11      -0.84439963       0.59708071       1.03417412
In       3.92672238       2.68664118       1.65502239       12       0.84439963       1.19416142      -0.00000000
In       1.47855812       4.68766728       1.81085647       13      -0.84439963       0.59708071      -1.03417412
In       4.05396038       0.00000000      -0.00000000       14       0.00000000       0.00000000       0.00000000
In       1.35132012       1.91105525       3.31004478       15       0.00000000      -0.00000000       0.00000000
O        0.59772268       3.73794564       3.73332668       16      -0.22073437       0.22241268      -0.41434655
O       -2.10491757       3.27523818       4.82631514       17      -0.22073437      -0.47004098       0.01455824
O       -0.39570666       2.06664356       0.29957285       18      -0.30704432      -0.40901063      -0.09114943
O       -0.59772269      -0.63103718       1.93955224       19       0.22073437      -0.24762829      -0.39978831
O        3.78956335       4.62610614       1.63997939       20      -0.36958076       0.19500315      -0.30863888
O        1.61571715       2.80384450       1.51627035       21       0.36958076       0.36479068       0.01455824
O        1.61571715       5.64437214       0.12370904       22       0.36958076      -0.16978754      -0.32319712
O       -2.08035245       5.41736038       3.60961763       23       0.28327081       0.42582103      -0.09114943
O        3.09834691       1.75546694       6.32051672       24       0.30704432       0.40901063       0.09114943
O        4.78299270      -1.59524988       3.01047194       25      -0.28327081      -0.42582103       0.09114943
O        5.80098716       3.20381473       1.67006539       26       0.30704432      -0.28344303       0.30863888
O        3.32492805       2.32839563       3.43375383       27       0.28327081      -0.29184824      -0.32319712
O        0.62228780       3.72057548       6.19680768       28       0.28327081      -0.13397280       0.41434654
O        2.08035245       0.10153502       0.42328189       29      -0.28327081       0.13397280      -0.41434654
O       -3.09834692       0.61829577       4.95002418       30      -0.30704432       0.28344303      -0.30863888
O        4.80755782       0.54687232       1.79377443       31       0.22073437       0.47004098      -0.01455824
O        1.08692310       1.01826600       5.10381922       32      -0.36958076      -0.36479068      -0.01455824
O        3.09834691      -1.13717117       5.24959703       33       0.30704432      -0.12556759      -0.39978831
O        2.10491756       0.08416486       2.88676289       34       0.22073437      -0.22241268       0.41434655
O        1.08692310      -1.82226164       6.49638053       35      -0.36958076       0.16978754       0.32319712
O       -0.62228780       1.49371487       3.18633574       36      -0.28327081       0.29184824       0.32319712
O       -1.08692310      -0.80399564       4.98011018       37       0.36958076      -0.19500315       0.30863888
O       -0.39570666       4.95928167       1.37049254       38      -0.30704432       0.12556759       0.39978831
O        3.30036294       4.45314768       4.68053733       39      -0.22073437       0.24762829       0.39978831
40
Lattice="8.10792075467533 6.354714696111037e-10 1.688133954822784e-14 -2.7026402521575705 7.644220995726945 -1.1006804416334723e-09 -2.702640251258895 -3.822110497227996 6.620089575175687" Properties=species:S:1:pos:R:3:spacegroup_kinds:I:1:forces:R:3 spacegroup="P 1" unit_cell=conventional occupancy="_JSON {\"0\": {\"In\": 1}, \"1\": {\"In\": 1}, \"2\": {\"In\": 1}, \"3\": {\"In\": 1}, \"4\": {\"In\": 1}, \"5\": {\"In\": 1}, \"6\": {\"In\": 1}, \"7\": {\"In\": 1}, \"8\": {\"In\": 1}, \"9\": {\"In\": 1}, \"10\": {\"In\": 1}, \"11\": {\"In\": 1}, \"12\": {\"In\": 1}, \"13\": {\"In\": 1}, \"14\": {\"In\": 1}, \"15\": {\"In\": 1}, \"16\": {\"O\": 1}, \"17\": {\"O\": 1}, \"18\": {\"O\": 1}, \"19\": {\"O\": 1}, \"20\": {\"O\": 1}, \"21\": {\"O\": 1}, \"22\": {\"O\": 1}, \"23\": {\"O\": 1}, \"24\": {\"O\": 1}, \"25\": {\"O\": 1}, \"26\": {\"O\": 1}, \"27\": {\"O\": 1}, \"28\": {\"O\": 1}, \"29\": {\"O\": 1}, \"30\": {\"O\": 1}, \"31\": {\"O\": 1}, \"32\": {\"O\": 1}, \"33\": {\"O\": 1}, \"34\": {\"O\": 1}, \"35\": {\"O\": 1}, \"36\": {\"O\": 1}, \"37\": {\"O\": 1}, \"38\": {\"O\": 1}, \"39\": {\"O\": 1}}" n_minim_iter=2 energy=-45164.39688049942 stress="0.2982631643018703 -7.521850272527959e-13 7.785908711836677e-13 -7.521850272527959e-13 0.29826316430327815 1.3853191713096128e-12 7.785908711836677e-13 1.3853191713096128e-12 0.2982631643048203" free_energy=-45164.39688049942 pbc="T T T"
In      -3.93878524       2.78514175       5.10612734        0      -0.25701747       0.18173880      -0.31478083
In       6.64142549       1.03696875       1.51396223        1       0.25701747      -0.18173880       0.31478083
In       1.23614498      -0.87408650       4.82400702        2       0.25701747      -0.18173880       0.31478083
In      -1.35132013      -1.91105525       3.31004479        3      -0.00000000      -0.00000000       0.00000000
In      -1.23614499       3.74066938       3.16898462        4      -0.25701747       0.18173880       0.31478083
In       4.16913552      -2.70370063       4.96506718        5      -0.25701747      -0.36347759       0.00000000
In      -1.23614499       1.11840987       4.96506718        6      -0.25701747      -0.36347759       0.00000000
In      -1.46649527       6.52581113       1.65502239        7       0.25701747       0.36347759      -0.00000000
In       3.93878524       0.08144112       3.45110495        8       0.25701747      -0.18173880      -0.31478083
In      -1.35132013       3.82211050      -0.00000000        9      -0.00000000       0.00000000      -0.00000000
In       3.93878524       5.81460687       0.14106016       10       0.25701747      -0.18173880      -0.31478083
In      -1.23614499      -1.99249637       6.47902941       11      -0.25701747       0.18173880       0.31478083
In       3.93878524       2.70370063       1.65502239       12       0.25701747       0.36347759       0.00000000
In       1.46649526       4.69619700       1.79608255       13      -0.25701747       0.18173880      -0.31478083
In       4.05396038       0.00000000      -0.00000000       14       0.00000000      -0.00000000       0.00000000
In       1.35132012       1.91105525       3.31004478       15       0.00000000       0.00000000       0.00000000
O        0.59456934       3.74112297       3.72740744       16      -0.52762755      -0.22320620      -0.35699333
O       -2.10807091       3.26852331       4.82652311       17      -0.52762755      -0.19756219       0.37179891
O       -0.40009301       2.06080055       0.29827071       18      -0.57258010      -0.16577594       0.31674351
O       -0.59456934      -0.63457472       1.93384098       19       0.52762755      -0.42076839       0.01480558
O        3.78428363       4.62889190       1.63557027       20      -0.01038757       0.60364034      -0.30193793
O        1.62099687       2.80905580       1.51647832       21       0.01038757       0.56330609       0.37179891
O        1.62099687       5.64194660       0.11909194       22       0.01038757       0.04033425      -0.67373684
O       -2.07630573       5.42344354       3.60831550       23      -0.03456497       0.59509234       0.31674351
O        3.10273326       1.76130995       6.32181886       24       0.57258010       0.16577594      -0.31674351
O        4.77894598      -1.60133304       3.01177407       25       0.03456497      -0.59509234      -0.31674351
O        5.80537351       3.19976554       1.67447452       26       0.57258010       0.19141996       0.30193793
O        3.32897478       2.32422637       3.42913673       27      -0.03456497      -0.02323824      -0.67373684
O        0.62633452       3.71866159       6.20272691       28      -0.03456497      -0.57185410       0.35699333
O        2.07630572       0.10344891       0.41736266       29       0.03456497       0.57185410      -0.35699333
O       -3.10273326       0.62234496       4.94561505       30      -0.57258010      -0.19141996      -0.30193793
O        4.81071116       0.55358719       1.79356646       31       0.52762755       0.19756219      -0.37179891
O        1.08164338       1.01305470       5.10361125       32      -0.01038757      -0.56330609      -0.37179891
O        3.10273326      -1.13896499       5.24388577       33       0.57258010      -0.35719590       0.01480558
O        2.10807091       0.08098754       2.89268213       34       0.52762755       0.22320620       0.35699333
O        1.08164338      -1.81983610       6.50099763       35      -0.01038757      -0.04033425       0.67373684
O       -0.62633453       1.49788413       3.19095284       36       0.03456497       0.02323824       0.67373684
O       -1.08164338      -0.80678140       4.98451930       37       0.01038757      -0.60364034       0.30193793
O       -0.40009301       4.96107549       1.37620380       38      -0.57258010       0.35719590      -0.01480558
O        3.29720959       4.45668523       4.68624859       39      -0.52762755       0.42076839      -0.01480558
40
Lattice="8.107920754675327 6.354714696111035e-10 1.6881339548227827e-14 -2.7026402521575696 7.6442209957269425 -1.1006804416334719e-09 -2.7026402512588943 -3.8221104972279947 6.620089575175685" Properties=species:S:1:pos:R:3:spacegroup_kinds:I:1:forces:R:3 spacegroup="P 1" unit_cell=conventional occupancy="_JSON {\"0\": {\"In\": 1}, \"1\": {\"In\": 1}, \"2\": {\"In\": 1}, \"3\": {\"In\": 1}, \"4\": {\"In\": 1}, \"5\": {\"In\": 1}, \"6\": {\"In\": 1}, \"7\": {\"In\": 1}, \"8\": {\"In\": 1}, \"9\": {\"In\": 1}, \"10\": {\"In\": 1}, \"11\": {\"In\": 1}, \"12\": {\"In\": 1}, \"13\": {\"In\": 1}, \"14\": {\"In\": 1}, \"15\": {\"In\": 1}, \"16\": {\"O\": 1}, \"17\": {\"O\": 1}, \"18\": {\"O\": 1}, \"19\": {\"O\": 1}, \"20\": {\"O\": 1}, \"21\": {\"O\": 1}, \"22\": {\"O\": 1}, \"23\": {\"O\": 1}, \"24\": {\"O\": 1}, \"25\": {\"O\": 1}, \"26\": {\"O\": 1}, \"27\": {\"O\": 1}, \"28\": {\"O\": 1}, \"29\": {\"O\": 1}, \"30\": {\"O\": 1}, \"31\": {\"O\": 1}, \"32\": {\"O\": 1}, \"33\": {\"O\": 1}, \"34\": {\"O\": 1}, \"35\": {\"O\": 1}, \"36\": {\"O\": 1}, \"37\": {\"O\": 1}, \"38\": {\"O\": 1}, \"39\": {\"O\": 1}}" n_minim_iter=3 energy=-45164.72163641105 stress="0.34603695426599723 8.113273205640497e-13 -5.927563757375532e-13 8.113273205640497e-13 0.34603695426857894 -1.0823787572756185e-12 -5.927563757375532e-13 -1.0823787572756185e-12 0.3460369542706749" free_energy=-45164.72163641105 pbc="T T T"
In      -3.95346099       2.79551907       5.08815329        0       0.00084351      -0.00059645       0.00103309
In       6.65610124       1.02659143       1.53193628        1      -0.00084351       0.00059645      -0.00103309
In       1.25082073      -0.88446382       4.84198107        2      -0.00084351       0.00059645      -0.00103309
In      -1.35132013      -1.91105525       3.31004479        3      -0.00000000      -0.00000000      -0.00000000
In      -1.25082074       3.75104670       3.18695867        4       0.00084351      -0.00059645      -0.00103309
In       4.15445977      -2.72445527       4.96506718        5       0.00084351       0.00119291       0.00000000
In      -1.25082074       1.09765523       4.96506718        6       0.00084351       0.00119291       0.00000000
In      -1.45181952       6.54656577       1.65502239        7      -0.00084351      -0.00119291       0.00000000
In       3.95346099       0.07106380       3.43313090        8      -0.00084351       0.00059645       0.00103309
In      -1.35132013       3.82211050      -0.00000000        9      -0.00000000       0.00000000       0.00000000
In       3.95346098       5.80422955       0.12308611       10      -0.00084351       0.00059645       0.00103309
In      -1.25082074      -1.98211905       6.49700346       11       0.00084351      -0.00059645      -0.00103309
In       3.95346098       2.72445527       1.65502239       12      -0.00084351      -0.00119291      -0.00000000
In       1.45181951       4.70657432       1.77810850       13       0.00084351      -0.00059645       0.00103309
In       4.05396038       0.00000000      -0.00000000       14      -0.00000000      -0.00000000      -0.00000000
In       1.35132012       1.91105525       3.31004478       15      -0.00000000       0.00000000      -0.00000000
O        0.57970803       3.73802304       3.71467793       16      -0.47264277      -0.45295171       0.00687610
O       -2.12293222       3.25904919       4.83557249       17      -0.47264277       0.23243073       0.38882964
O       -0.41690171       2.05270344       0.30493503       18      -0.36545676       0.15663878       0.52010515
O       -0.57970804      -0.64714878       1.93016084       19       0.47264277      -0.22052098       0.39570574
O        3.78030511       4.64531360       1.62522581       20       0.37668539       0.52080383      -0.12439942
O        1.62497539       2.82622521       1.52552770       21      -0.37668539       0.36813497       0.38882964
O        1.62497539       5.64119889       0.09969810       22      -0.37668539       0.15266886      -0.51322906
O       -2.07427460       5.44198997       3.61497982       23      -0.26949938       0.29234302       0.52010515
O        3.11954196       1.76940706       6.31515454       24       0.36545676      -0.15663878      -0.52010515
O        4.77691485      -1.61987947       3.00510975       25       0.26949938      -0.29234302      -0.52010515
O        5.82218221       3.20148846       1.68481897       26       0.36545676       0.52874367       0.12439942
O        3.33100590       2.32072463       3.40974289       27      -0.26949938       0.30425277      -0.51322906
O        0.62836565       3.70361691       6.21545643       28      -0.26949938      -0.59659578      -0.00687610
O        2.07427460       0.11849360       0.40463314       29       0.26949938       0.59659578       0.00687610
O       -3.11954196       0.62062204       4.93527060       30      -0.36545676      -0.52874367      -0.12439942
O        4.82557247       0.56306132       1.78451708       31       0.47264277      -0.23243073      -0.38882964
O        1.07766486       0.99588529       5.09456187       32       0.37668539      -0.36813497      -0.38882964
O        3.11954196      -1.14878501       5.24020563       33       0.36545676      -0.37210489       0.39570574
O        2.12293222       0.08408747       2.90541164       34       0.47264277       0.45295171      -0.00687610
O        1.07766486      -1.81908839       6.52039147       35       0.37668539      -0.15266886       0.51322906
O       -0.62836565       1.50138587       3.21034668       36       0.26949938      -0.30425277       0.51322906
O       -1.07766486      -0.82320310       4.99486376       37      -0.37668539      -0.52080383       0.12439942
O       -0.41690171       4.97089551       1.37988394       38      -0.36545676       0.37210489      -0.39570574
O        3.28234828       4.46925928       4.68992873       39      -0.47264277       0.22052098      -0.39570574
40
Lattice="8.10792075467532 6.354714696111031e-10 1.6881339548227808e-14 -2.7026402521575683 7.644220995726938 -1.1006804416334715e-09 -2.702640251258893 -3.8221104972279925 6.6200895751756805" Properties=species:S:1:pos:R:3:spacegroup_kinds:I:1:forces:R:3 spacegroup="P 1" unit_cell=conventional occupancy="_JSON {\"0\": {\"In\": 1}, \"1\": {\"In\": 1}, \"2\": {\"In\": 1}, \"3\": {\"In\": 1}, \"4\": {\"In\": 1}, \"5\": {\"In\": 1}, \"6\": {\"In\": 1}, \"7\": {\"In\": 1}, \"8\": {\"In\": 1}, \"9\": {\"In\": 1}, \"10\": {\"In\": 1}, \"11\": {\"In\": 1}, \"12\": {\"In\": 1}, \"13\": {\"In\": 1}, \"14\": {\"In\": 1}, \"15\": {\"In\": 1}, \"16\": {\"O\": 1}, \"17\": {\"O\": 1}, \"18\": {\"O\": 1}, \"19\": {\"O\": 1}, \"20\": {\"O\": 1}, \"21\": {\"O\": 1}, \"22\": {\"O\": 1}, \"23\": {\"O\": 1}, \"24\": {\"O\": 1}, \"25\": {\"O\": 1}, \"26\": {\"O\": 1}, \"27\": {\"O\": 1}, \"28\": {\"O\": 1}, \"29\": {\"O\": 1}, \"30\": {\"O\": 1}, \"31\": {\"O\": 1}, \"32\": {\"O\": 1}, \"33\": {\"O\": 1}, \"34\": {\"O\": 1}, \"35\": {\"O\": 1}, \"36\": {\"O\": 1}, \"37\": {\"O\": 1}, \"38\": {\"O\": 1}, \"39\": {\"O\": 1}}" n_minim_iter=4 energy=-45164.956130779145 stress="0.39449383922371867 -2.914159846196126e-12 3.6977273157482085e-12 -2.914159846196126e-12 0.39449383922660475 -1.8229767958739966e-12 3.6977273157482085e-12 -1.8229767958739966e-12 0.39449383922523235" free_energy=-45164.956130779145 pbc="T T T"
In      -3.96902152       2.80652203       5.06909561        0       0.04646424      -0.03285518       0.05690684
In       6.67166177       1.01558847       1.55099396        1      -0.04646424       0.03285518      -0.05690684
In       1.26638127      -0.89546678       4.86103875        2      -0.04646424       0.03285518      -0.05690684
In      -1.35132013      -1.91105525       3.31004479        3      -0.00000000       0.00000000      -0.00000000
In      -1.26638127       3.76204966       3.20601635        4       0.04646424      -0.03285518      -0.05690684
In       4.13889923      -2.74646119       4.96506718        5       0.04646424       0.06571036       0.00000000
In      -1.26638127       1.07564931       4.96506718        6       0.04646424       0.06571036      -0.00000000
In      -1.43625899       6.56857169       1.65502239        7      -0.04646424      -0.06571036       0.00000000
In       3.96902152       0.06006084       3.41407322        8      -0.04646424       0.03285518       0.05690684
In      -1.35132013       3.82211050      -0.00000000        9      -0.00000000       0.00000000       0.00000000
In       3.96902152       5.79322659       0.10402843       10      -0.04646424       0.03285518       0.05690684
In      -1.26638127      -1.97111609       6.51606114       11       0.04646424      -0.03285518      -0.05690684
In       3.96902152       2.74646119       1.65502239       12      -0.04646424      -0.06571036      -0.00000000
In       1.43625898       4.71757728       1.75905082       13       0.04646424      -0.03285518       0.05690684
In       4.05396038       0.00000000      -0.00000000       14       0.00000000       0.00000000      -0.00000000
In       1.35132012       1.91105525       3.31004478       15      -0.00000000      -0.00000000      -0.00000000
O        0.55887751       3.72757335       3.70489740       16      -0.18489900      -0.45224708       0.24302816
O       -2.14376274       3.25580385       4.84951244       17      -0.18489900       0.43659210       0.27014339
O       -0.43675701       2.04876852       0.32006939       18      -0.07639266       0.35986653       0.40303596
O       -0.55887751      -0.66084380       1.93432027       19       0.18489900      -0.01565498       0.51317154
O        3.78418888       4.66774645       1.61425088       20       0.47325598       0.24834791       0.11013558
O        1.62109162       2.84694620       1.53946765       21      -0.47325598       0.02879374       0.27014339
O        1.62109162       5.64291075       0.07478323       22      -0.47325598       0.21955416      -0.16000781
O       -2.07718315       5.46202137       3.63011417       23      -0.36474964      -0.04793182       0.40303596
O        3.13939726       1.77334199       6.30002018       24       0.07639266      -0.35986653      -0.40303596
O        4.77982340      -1.63991086       2.98997540       25       0.36474964       0.04793182      -0.40303596
O        5.84203751       3.21262773       1.69579390       26       0.07639266       0.52897265      -0.11013558
O        3.32809735       2.32381566       3.38482801       27      -0.36474964       0.37300529      -0.16000781
O        0.62545710       3.68049447       6.22523695       28      -0.36474964      -0.32507347      -0.24302816
O        2.07718315       0.14161603       0.39485262       29       0.36474964       0.32507347       0.24302816
O       -3.13939726       0.60948277       4.92429567       30      -0.07639266      -0.52897265       0.11013558
O        4.84640299       0.56630665       1.77057713       31       0.18489900      -0.43659210      -0.27014339
O        1.08154863       0.97516430       5.08062192       32       0.47325598      -0.02879374      -0.27014339
O        3.13939726      -1.16385921       5.24436506       33       0.07639266      -0.16910612       0.51317154
O        2.14376274       0.09453715       2.91519217       34       0.18489900       0.45224708      -0.24302816
O        1.08154863      -1.82080025       6.54530634       35       0.47325598      -0.21955416       0.16000781
O       -0.62545711       1.49829484       3.23526155       36       0.36474964      -0.37300529       0.16000781
O       -1.08154863      -0.84563595       5.00583869       37      -0.47325598      -0.24834791      -0.11013558
O       -0.43675701       4.98596971       1.37572451       38      -0.07639266       0.16910612      -0.51317154
O        3.26151776       4.48295430       4.68576930       39      -0.18489900       0.01565498      -0.51317154
40
Lattice="8.1079207546753 6.354714696111017e-10 1.6881339548227745e-14 -2.7026402521575617 7.644220995726921 -1.1006804416334692e-09 -2.7026402512588863 -3.822110497227984 6.620089575175667" Properties=species:S:1:pos:R:3:spacegroup_kinds:I:1:forces:R:3 spacegroup="P 1" unit_cell=conventional occupancy="_JSON {\"0\": {\"In\": 1}, \"1\": {\"In\": 1}, \"2\": {\"In\": 1}, \"3\": {\"In\": 1}, \"4\": {\"In\": 1}, \"5\": {\"In\": 1}, \"6\": {\"In\": 1}, \"7\": {\"In\": 1}, \"8\": {\"In\": 1}, \"9\": {\"In\": 1}, \"10\": {\"In\": 1}, \"11\": {\"In\": 1}, \"12\": {\"In\": 1}, \"13\": {\"In\": 1}, \"14\": {\"In\": 1}, \"15\": {\"In\": 1}, \"16\": {\"O\": 1}, \"17\": {\"O\": 1}, \"18\": {\"O\": 1}, \"19\": {\"O\": 1}, \"20\": {\"O\": 1}, \"21\": {\"O\": 1}, \"22\": {\"O\": 1}, \"23\": {\"O\": 1}, \"24\": {\"O\": 1}, \"25\": {\"O\": 1}, \"26\": {\"O\": 1}, \"27\": {\"O\": 1}, \"28\": {\"O\": 1}, \"29\": {\"O\": 1}, \"30\": {\"O\": 1}, \"31\": {\"O\": 1}, \"32\": {\"O\": 1}, \"33\": {\"O\": 1}, \"34\": {\"O\": 1}, \"35\": {\"O\": 1}, \"36\": {\"O\": 1}, \"37\": {\"O\": 1}, \"38\": {\"O\": 1}, \"39\": {\"O\": 1}}" n_minim_iter=5 energy=-45165.131141243415 stress="0.4883478870138167 2.8586433911915853e-13 -4.032831621412091e-12 2.8586433911915853e-13 0.4883478870130625 -5.388807478592527e-14 -4.032831621412091e-12 -5.388807478592527e-14 0.48834788701260645" free_energy=-45165.131141243415 pbc="T T T"
In      -3.99675797       2.82613466       5.03512554        0      -0.16917659       0.11962591      -0.20719816
In       6.69939822       0.99597584       1.58496403        1       0.16917659      -0.11962591       0.20719816
In       1.29411771      -0.91507941       4.89500882        2       0.16917659      -0.11962591       0.20719816
In      -1.35132013      -1.91105525       3.31004479        3       0.00000000      -0.00000000       0.00000000
In      -1.29411772       3.78166229       3.23998643        4      -0.16917659       0.11962591       0.20719816
In       4.11116279      -2.78568645       4.96506718        5      -0.16917659      -0.23925183      -0.00000000
In      -1.29411772       1.03642405       4.96506718        6      -0.16917659      -0.23925183       0.00000000
In      -1.40852254       6.60779695       1.65502239        7       0.16917659       0.23925183      -0.00000000
In       3.99675797       0.04044821       3.38010314        8       0.16917659      -0.11962591      -0.20719816
In      -1.35132013       3.82211050      -0.00000000        9       0.00000000       0.00000000      -0.00000000
In       3.99675797       5.77361396       0.07005836       10       0.16917659      -0.11962591      -0.20719816
In      -1.29411772      -1.95150346       6.55003121       11      -0.16917659       0.11962591       0.20719816
In       3.99675797       2.78568645       1.65502239       12       0.16917659       0.23925183      -0.00000000
In       1.40852253       4.73718991       1.72508075       13      -0.16917659       0.11962591      -0.20719816
In       4.05396038       0.00000000      -0.00000000       14      -0.00000000       0.00000000      -0.00000000
In       1.35132012       1.91105525       3.31004478       15       0.00000000       0.00000000      -0.00000000
O        0.52152750       3.69391941       3.70019598       16       0.32068947      -0.09156981      -0.08962420
O       -2.18111275       3.26855927       4.88100832       17       0.32068947      -0.03183193       0.12411388
O       -0.46891033       2.05784932       0.35792989       18      -0.00944779       0.20161036      -0.28022003
O       -0.52152750      -0.68174232       1.96111473       19      -0.32068947      -0.12340174       0.03448968
O        3.80866481       4.71050374       1.60318484       20      -0.13690792      -0.03838337       0.31470971
O        1.59661569       2.87790832       1.57096353       21       0.13690792      -0.29173829       0.12411388
O        1.59661569       5.65470592       0.03222130       22       0.13690792       0.25335492       0.19059583
O       -2.09646239       5.48930887       3.66797467       23      -0.19322933      -0.05829600      -0.28022003
O        3.17155058       1.76426118       6.26215968       24       0.00944779      -0.20161036       0.28022003
O        4.79910263      -1.66719837       2.95211490       25       0.19322933       0.05829600       0.28022003
O        5.87419083       3.24995629       1.70685994       26       0.00944779      -0.14187248      -0.31470971
O        3.30881812       2.34296007       3.34226609       27      -0.19322933      -0.21352967       0.19059583
O        0.60617787       3.63406256       6.22993838       28      -0.19322933       0.27182566       0.08962420
O        2.09646238       0.18804794       0.39015119       29       0.19322933      -0.27182566      -0.08962420
O       -3.17155058       0.57215422       4.91322963       30      -0.00944779       0.14187248       0.31470971
O        4.88375300       0.55355124       1.73908125       31      -0.32068947       0.03183193      -0.12411388
O        1.10602456       0.94420218       5.04912604       32      -0.13690792       0.29173829      -0.12411388
O        3.17155058      -1.19210696       5.27115952       33       0.00944779       0.34348285       0.03448968
O        2.18111275       0.12819109       2.91989359       34      -0.32068947       0.09156981       0.08962420
O        1.10602456      -1.83259542       6.58786827       35      -0.13690792      -0.25335492      -0.19059583
O       -0.60617787       1.47915044       3.27782348       36       0.19322933       0.21352967      -0.19059583
O       -1.10602456      -0.88839324       5.01690473       37       0.13690792       0.03838337      -0.31470971
O       -0.46891033       5.01421747       1.34893005       38      -0.00944779      -0.34348285      -0.03448968
O        3.22416775       4.50385282       4.65897484       39       0.32068947       0.12340174      -0.03448968
40