40
Lattice="8.77263935842017 6.875731188815215e-10 4.484614007345579e-15 -2.9242131201216406 8.270923705428013 -1.1909181282678197e-09 -2.924213119149267 -4.13546185202643 7.162830042457524" Properties=species:S:1:pos:R:3:spacegroup_kinds:I:1:forces:R:3 spacegroup="P 1" unit_cell=conventional occupancy="_JSON {\"0\": {\"In\": 1}, \"1\": {\"In\": 1}, \"2\": {\"In\": 1}, \"3\": {\"In\": 1}, \"4\": {\"In\": 1}, \"5\": {\"In\": 1}, \"6\": {\"In\": 1}, \"7\": {\"In\": 1}, \"8\": {\"In\": 1}, \"9\": {\"In\": 1}, \"10\": {\"In\": 1}, \"11\": {\"In\": 1}, \"12\": {\"In\": 1}, \"13\": {\"In\": 1}, \"14\": {\"In\": 1}, \"15\": {\"In\": 1}, \"16\": {\"O\": 1}, \"17\": {\"O\": 1}, \"18\": {\"O\": 1}, \"19\": {\"O\": 1}, \"20\": {\"O\": 1}, \"21\": {\"O\": 1}, \"22\": {\"O\": 1}, \"23\": {\"O\": 1}, \"24\": {\"O\": 1}, \"25\": {\"O\": 1}, \"26\": {\"O\": 1}, \"27\": {\"O\": 1}, \"28\": {\"O\": 1}, \"29\": {\"O\": 1}, \"30\": {\"O\": 1}, \"31\": {\"O\": 1}, \"32\": {\"O\": 1}, \"33\": {\"O\": 1}, \"34\": {\"O\": 1}, \"35\": {\"O\": 1}, \"36\": {\"O\": 1}, \"37\": {\"O\": 1}, \"38\": {\"O\": 1}, \"39\": {\"O\": 1}}" n_minim_iter=7 energy=-45151.319807285756 stress="-0.0027135026640018453 -3.1548458653577633e-12 1.729749665942485e-13 -3.1548458653577633e-12 -0.0027135026668803027 1.3254606812687615e-12 1.729749665942485e-13 1.3254606812687615e-12 -0.002713502665671476" free_energy=-45151.319807285756 pbc="T T T"
In      -4.18605174       2.95998557       5.61739967        0      -0.00099102       0.00070076      -0.00121375
In       7.11026485       1.17547629       1.54543037        1       0.00099102      -0.00070076       0.00121375
In       1.26183861      -0.89225464       5.12684539        2       0.00099102      -0.00070076       0.00121375
In      -1.46210656      -2.06773092       3.58141502        3      -0.00000000      -0.00000000      -0.00000000
In      -1.26183862       3.99385103       3.33613788        4      -0.00099102       0.00070076       0.00121375
In       4.58658762      -2.81837475       5.37212253        5      -0.00099102      -0.00140152      -0.00000000
In      -1.26183862       1.31708711       5.37212253        6      -0.00099102      -0.00140152       0.00000000
In      -1.66237451       6.95383660       1.79070751        7       0.00099102       0.00140152      -0.00000000
In       4.18605173       0.14161082       3.82669216        8       0.00099102      -0.00070076      -0.00121375
In      -1.46210656       4.13546185      -0.00000000        9      -0.00000000       0.00000000       0.00000000
In       4.18605173       6.34480360       0.24527713       10       0.00099102      -0.00070076      -0.00121375
In      -1.26183862      -2.20934175       6.91755290       11      -0.00099102       0.00070076       0.00121375
In       4.18605173       2.81837475       1.79070751       12       0.00099102       0.00140152      -0.00000000
In       1.66237450       5.02771650       2.03598464       13      -0.00099102       0.00070076      -0.00121375
In       4.38631968       0.00000000      -0.00000000       14       0.00000000       0.00000000       0.00000000
In       1.46210656       2.06773093       3.58141502       15      -0.00000000       0.00000000      -0.00000000
O        0.86087175       4.13639107       3.90837425       16       0.00087534      -0.00152699       0.00010138
O       -2.06334137       3.38428679       5.20783819       17       0.00087534       0.00085129       0.00127172
O       -0.42038133       2.22253860       0.05721503       18      -0.00034527       0.00171440      -0.00022322
O       -0.86087176      -0.75024585       1.95338240       19      -0.00087534      -0.00067570       0.00137310
O        3.87851663       4.91874083       1.89616737       20       0.00051082       0.00054682       0.00159632
O        1.96990960       2.88497223       1.62642317       21      -0.00051082      -0.00110904       0.00127172
O        1.96990960       6.16923045       0.26974419       22      -0.00051082       0.00165587       0.00032460
O       -2.23555660       5.85868589       3.63863005       23      -0.00173144      -0.00024594      -0.00022322
O        3.34459444       1.91292326       7.10561500       24       0.00034527      -0.00171440       0.00022322
O        5.15976971      -1.72322404       3.52419998       25       0.00173144       0.00024594       0.00022322
O        6.26880756       3.22854990       1.68524765       26       0.00034527       0.00066388      -0.00159632
O        3.61286964       2.28953405       3.85115922       27      -0.00173144      -0.00007035       0.00032460
O        0.68865652       4.25816562       6.83587081       28      -0.00173144       0.00031628      -0.00010138
O        2.23555659      -0.12270377       0.32695923       29       0.00173144      -0.00031628       0.00010138
O       -3.34459444       0.90691196       5.47758239       30      -0.00034527      -0.00066388       0.00159632
O        4.98755448       0.75117507       1.95499185       31      -0.00087534      -0.00085129      -0.00127172
O        0.95430351       1.25048963       5.53640687       32       0.00051082       0.00110904      -0.00127172
O        3.34459444      -1.00601130       5.53479742       33       0.00034527       0.00105051       0.00137310
O        2.06334136      -0.00092921       3.25445579       34      -0.00087534       0.00152699      -0.00010138
O        0.95430351      -2.03376859       6.89308584       35       0.00051082      -0.00165587      -0.00032460
O       -0.68865653       1.84592781       3.31167082       36       0.00173144       0.00007035      -0.00032460
O       -0.95430352      -0.78327897       5.26666267       37      -0.00051082      -0.00054682      -0.00159632
O       -0.42038133       5.14147316       1.62803261       38      -0.00034527      -0.00105051      -0.00137310
O        3.78508487       4.88570771       5.20944763       39       0.00087534       0.00067570      -0.00137310
