40
Lattice="8.197025919706931 6.424557071437449e-10 1.2441722908902678e-14 -2.732341973841359 7.728230150968074 -1.1127799706295347e-09 -2.732341972932799 -3.864115074841575 6.692843637773042" Properties=species:S:1:pos:R:3:spacegroup_kinds:I:1:forces:R:3 spacegroup="P 1" unit_cell=conventional occupancy="_JSON {\"0\": {\"In\": 1}, \"1\": {\"In\": 1}, \"2\": {\"In\": 1}, \"3\": {\"In\": 1}, \"4\": {\"In\": 1}, \"5\": {\"In\": 1}, \"6\": {\"In\": 1}, \"7\": {\"In\": 1}, \"8\": {\"In\": 1}, \"9\": {\"In\": 1}, \"10\": {\"In\": 1}, \"11\": {\"In\": 1}, \"12\": {\"In\": 1}, \"13\": {\"In\": 1}, \"14\": {\"In\": 1}, \"15\": {\"In\": 1}, \"16\": {\"O\": 1}, \"17\": {\"O\": 1}, \"18\": {\"O\": 1}, \"19\": {\"O\": 1}, \"20\": {\"O\": 1}, \"21\": {\"O\": 1}, \"22\": {\"O\": 1}, \"23\": {\"O\": 1}, \"24\": {\"O\": 1}, \"25\": {\"O\": 1}, \"26\": {\"O\": 1}, \"27\": {\"O\": 1}, \"28\": {\"O\": 1}, \"29\": {\"O\": 1}, \"30\": {\"O\": 1}, \"31\": {\"O\": 1}, \"32\": {\"O\": 1}, \"33\": {\"O\": 1}, \"34\": {\"O\": 1}, \"35\": {\"O\": 1}, \"36\": {\"O\": 1}, \"37\": {\"O\": 1}, \"38\": {\"O\": 1}, \"39\": {\"O\": 1}}" n_minim_iter=5 energy=-45156.01825841871 stress="0.2542613858362422 -1.3765769098624904e-12 -3.157077957020873e-12 -1.3765769098624904e-12 0.25426138584029045 1.2551886124140795e-12 -3.157077957020873e-12 1.2551886124140795e-12 0.2542613858376584" free_energy=-45156.01825841871 pbc="T T T"
In      -3.93961435       2.78572802       5.21424299        0       0.00104219      -0.00073694       0.00127642
In       6.67195632       1.07838706       1.47860064        1      -0.00104219       0.00073694      -0.00127642
In       1.20727237      -0.85367048       4.82502246        2      -0.00104219       0.00073694      -0.00127642
In      -1.36617099      -1.93205754       3.34642182        3       0.00000000       0.00000000       0.00000000
In      -1.20727237       3.75175679       3.15181155        4       0.00104219      -0.00073694      -0.00127642
In       4.25741157      -2.67336973       5.01963273        5       0.00104219       0.00147388      -0.00000000
In      -1.20727237       1.19074535       5.01963273        6       0.00104219       0.00147388      -0.00000000
In      -1.52506960       6.53748481       1.67321091        7      -0.00104219      -0.00147388      -0.00000000
In       3.93961434       0.11235829       3.54103208        8      -0.00104219       0.00073694       0.00127642
In      -1.36617099       3.86411508      -0.00000000        9      -0.00000000      -0.00000000      -0.00000000
In       3.93961434       5.90853090       0.19461026       10      -0.00104219       0.00073694       0.00127642
In      -1.20727237      -2.04441582       6.49823337       11       0.00104219      -0.00073694      -0.00127642
In       3.93961434       2.67336973       1.67321091       12      -0.00104219      -0.00147388      -0.00000000
In       1.52506960       4.71778556       1.86782117       13       0.00104219      -0.00073694       0.00127642
In       4.09851296       0.00000000      -0.00000000       14       0.00000000       0.00000000       0.00000000
In       1.36617099       1.93205754       3.34642182       15       0.00000000       0.00000000      -0.00000000
O        0.64135181       3.79076564       3.78600529       16      -0.00006002       0.00033352       0.00226781
O       -2.09099016       3.31545148       4.86336346       17      -0.00006002       0.00179723      -0.00142274
O       -0.37265557       2.10040544       0.27504130       18       0.00198888       0.00034844       0.00108664
O       -0.64135182      -0.62201303       1.95652512       19       0.00006002       0.00213074       0.00084507
O        3.82283435       4.64492328       1.68148382       20       0.00171445      -0.00150337      -0.00024157
O        1.64184959       2.79831147       1.51694164       21      -0.00171445      -0.00054248      -0.00142274
O        1.64184959       5.71072688       0.16454217       22      -0.00171445      -0.00096089       0.00118117
O       -2.10449977       5.44738051       3.62146311       23       0.00033445      -0.00199128       0.00108664
O        3.10499754       1.76370964       6.41780234       24      -0.00198888      -0.00034844      -0.00108664
O        4.83684174      -1.58326543       3.07138052       25      -0.00033445       0.00199128      -0.00108664
O        5.83733952       3.22045301       1.66493800       26      -0.00198888       0.00111528       0.00024157
O        3.36018418       2.34464634       3.51096399       27       0.00033445       0.00193670       0.00118118
O        0.62784221       3.80031838       6.25326016       28       0.00033445       0.00005458      -0.00226781
O        2.10449976       0.06379670       0.43958347       29      -0.00033445      -0.00005458       0.00226781
O       -3.10499755       0.64366207       5.02790564       30       0.00198888      -0.00111528      -0.00024157
O        4.82333213       0.54866360       1.82948017       31       0.00006002      -0.00179723       0.00142274
O        1.09049238       1.06580361       5.17590199       32       0.00171445       0.00054248       0.00142274
O        3.10499754      -1.12004757       5.30294694       33      -0.00198888      -0.00076684       0.00084507
O        2.09099016       0.07334944       2.90683834       34       0.00006002      -0.00033352      -0.00226781
O        1.09049238      -1.84661180       6.52830146       35       0.00171445       0.00096089      -0.00118117
O       -0.62784221       1.51946873       3.18187964       36      -0.00033445      -0.00193670      -0.00118117
O       -1.09049238      -0.78080820       5.01135982       37      -0.00171445       0.00150337       0.00024157
O       -0.37265557       4.98416265       1.38989670       38       0.00198888       0.00076684      -0.00084507
O        3.37369379       4.48612811       4.73631852       39      -0.00006002      -0.00213074      -0.00084507
