40
Lattice="8.615951468209282 6.752933774296652e-10 1.9220044709560174e-15 -2.8719838233731005 8.123196945834867 -1.1696502142519678e-09 -2.8719838224180916 -4.061598472242134 7.034894915816926" Properties=species:S:1:pos:R:3:spacegroup_kinds:I:1:forces:R:3 spacegroup="P 1" unit_cell=conventional occupancy="_JSON {\"0\": {\"In\": 1}, \"1\": {\"In\": 1}, \"2\": {\"In\": 1}, \"3\": {\"In\": 1}, \"4\": {\"In\": 1}, \"5\": {\"In\": 1}, \"6\": {\"In\": 1}, \"7\": {\"In\": 1}, \"8\": {\"In\": 1}, \"9\": {\"In\": 1}, \"10\": {\"In\": 1}, \"11\": {\"In\": 1}, \"12\": {\"In\": 1}, \"13\": {\"In\": 1}, \"14\": {\"In\": 1}, \"15\": {\"In\": 1}, \"16\": {\"O\": 1}, \"17\": {\"O\": 1}, \"18\": {\"O\": 1}, \"19\": {\"O\": 1}, \"20\": {\"O\": 1}, \"21\": {\"O\": 1}, \"22\": {\"O\": 1}, \"23\": {\"O\": 1}, \"24\": {\"O\": 1}, \"25\": {\"O\": 1}, \"26\": {\"O\": 1}, \"27\": {\"O\": 1}, \"28\": {\"O\": 1}, \"29\": {\"O\": 1}, \"30\": {\"O\": 1}, \"31\": {\"O\": 1}, \"32\": {\"O\": 1}, \"33\": {\"O\": 1}, \"34\": {\"O\": 1}, \"35\": {\"O\": 1}, \"36\": {\"O\": 1}, \"37\": {\"O\": 1}, \"38\": {\"O\": 1}, \"39\": {\"O\": 1}}" n_minim_iter=4 energy=-45151.203444610495 stress="-0.01207081723757134 7.005505740567627e-13 1.5913738510120814e-12 7.005505740567627e-13 -0.012070817238287918 1.3534945237303599e-13 1.5913738510120814e-12 1.3534945237303599e-13 -0.012070817234319874" free_energy=-45151.203444610495 pbc="T T T"
In      -4.11083019       2.90679590       5.51762418        0       0.00365099      -0.00258164       0.00447153
In       6.98281401       1.15480257       1.51727073        1      -0.00365099       0.00258164      -0.00447153
In       1.23884636      -0.87599666       5.03471819        2      -0.00365099       0.00258164      -0.00447153
In      -1.43599191      -2.03079923       3.51744746        3      -0.00000000       0.00000000      -0.00000000
In      -1.23884637       3.92219552       3.27599446        4       0.00365099      -0.00258164      -0.00447153
In       4.50512128      -2.76739295       5.27617118        5       0.00365099       0.00516328      -0.00000000
In      -1.23884637       1.29420553       5.27617118        6       0.00365099       0.00516328       0.00000000
In      -1.63313746       6.82899142       1.75872373        7      -0.00365099      -0.00516328       0.00000000
In       4.11083019       0.13940295       3.75890045        8      -0.00365099       0.00258164       0.00447153
In      -1.43599191       4.06159847      -0.00000000        9      -0.00000000      -0.00000000      -0.00000000
In       4.11083019       6.23180066       0.24145299       10      -0.00365099       0.00258164       0.00447153
In      -1.23884637      -2.17020219       6.79344192       11       0.00365099      -0.00258164      -0.00447153
In       4.11083019       2.76739295       1.75872373       12      -0.00365099      -0.00516328       0.00000000
In       1.63313746       4.93759514       2.00017672       13       0.00365099      -0.00258164       0.00447153
In       4.30797573       0.00000000      -0.00000000       14       0.00000000      -0.00000000       0.00000000
In       1.43599191       2.03079924       3.51744746       15      -0.00000000      -0.00000000      -0.00000000
O        0.83678934       4.05900816       3.85828638       16      -0.00259406       0.00570790      -0.00418761
O       -2.03519448       3.34266918       5.10799500       17      -0.00259406      -0.00648053      -0.00284938
O       -0.40132543       2.18734929       0.07417283       18      -0.00159313      -0.00718829      -0.00162349
O       -0.83678934      -0.72151960       1.93138647       19       0.00259406      -0.00077263      -0.00703699
O        3.82989689       4.82594178       1.85721364       20      -0.00524521      -0.00016469      -0.00541350
O        1.91407076       2.83537594       1.59054754       21       0.00524521       0.00460588      -0.00284938
O        1.91407075       6.05216432       0.26666610       22       0.00524521      -0.00477058      -0.00256412
O       -2.19602783       5.74165452       3.59162029       23       0.00624615       0.00389811      -0.00162349
O        3.27330925       1.87424918       6.96072208       24       0.00159313       0.00718829       0.00162349
O        5.06801165      -1.68005604       3.44327462       25      -0.00624615      -0.00389811       0.00162349
O        6.14529307       3.18870944       1.66023382       26       0.00159313      -0.00500013       0.00541350
O        3.54793981       2.27040639       3.78411355       27       0.00624615      -0.00335504      -0.00256412
O        0.67595599       4.17273452       6.69405598       28       0.00624615      -0.00054307       0.00418761
O        2.19602783      -0.11113604       0.34083893       29      -0.00624615       0.00054307      -0.00418761
O       -3.27330925       0.87288904       5.37466109       30      -0.00159313       0.00500013      -0.00541350
O        4.90717830       0.71892929       1.92689991       31       0.00259406       0.00648053       0.00284938
O        0.95791306       1.22622254       5.44434737       32      -0.00524521      -0.00460588       0.00284938
O        3.27330925      -1.00136014       5.44883393       33       0.00159313      -0.00218816      -0.00703699
O        2.03519448       0.00259031       3.17660853       34       0.00259406      -0.00570790       0.00418761
O        0.95791306      -1.99056584       6.76822882       35      -0.00524521       0.00477058       0.00256412
O       -0.67595599       1.79119209       3.25078136       36      -0.00624615       0.00335504       0.00256412
O       -0.95791307      -0.76434331       5.17768127       37       0.00524521       0.00016469       0.00541350
O       -0.40132543       5.06295862       1.58606098       38      -0.00159313       0.00218816       0.00703699
O        3.70877316       4.78311808       5.10350844       39      -0.00259406       0.00077263       0.00703699
