40
Lattice="8.848927008076101 6.935523156845594e-10 4.52361260836593e-15 -2.949642336679255 8.342848391282677 -1.2012744578997898e-09 -2.949642335698426 -4.171424194947783 7.225118647573783" Properties=species:S:1:pos:R:3:spacegroup_kinds:I:1:forces:R:3 spacegroup="P 1" unit_cell=conventional occupancy="_JSON {\"0\": {\"In\": 1}, \"1\": {\"In\": 1}, \"2\": {\"In\": 1}, \"3\": {\"In\": 1}, \"4\": {\"In\": 1}, \"5\": {\"In\": 1}, \"6\": {\"In\": 1}, \"7\": {\"In\": 1}, \"8\": {\"In\": 1}, \"9\": {\"In\": 1}, \"10\": {\"In\": 1}, \"11\": {\"In\": 1}, \"12\": {\"In\": 1}, \"13\": {\"In\": 1}, \"14\": {\"In\": 1}, \"15\": {\"In\": 1}, \"16\": {\"O\": 1}, \"17\": {\"O\": 1}, \"18\": {\"O\": 1}, \"19\": {\"O\": 1}, \"20\": {\"O\": 1}, \"21\": {\"O\": 1}, \"22\": {\"O\": 1}, \"23\": {\"O\": 1}, \"24\": {\"O\": 1}, \"25\": {\"O\": 1}, \"26\": {\"O\": 1}, \"27\": {\"O\": 1}, \"28\": {\"O\": 1}, \"29\": {\"O\": 1}, \"30\": {\"O\": 1}, \"31\": {\"O\": 1}, \"32\": {\"O\": 1}, \"33\": {\"O\": 1}, \"34\": {\"O\": 1}, \"35\": {\"O\": 1}, \"36\": {\"O\": 1}, \"37\": {\"O\": 1}, \"38\": {\"O\": 1}, \"39\": {\"O\": 1}}" n_minim_iter=7 energy=-45151.319807285756 stress="-0.0027135026640018453 -3.1548458653577633e-12 1.729749665942485e-13 -3.1548458653577633e-12 -0.0027135026668803027 1.3254606812687615e-12 1.729749665942485e-13 1.3254606812687615e-12 -0.002713502665671476" free_energy=-45151.319807285756 pbc="T T T"
In      -4.22245401       2.98572587       5.66624907        0      -0.00099102       0.00070076      -0.00121375
In       7.17209635       1.18569833       1.55886957        1       0.00099102      -0.00070076       0.00121375
In       1.27281168      -0.90001377       5.17142889        2       0.00099102      -0.00070076       0.00121375
In      -1.47482117      -2.08571210       3.61255932        3      -0.00000000      -0.00000000      -0.00000000
In      -1.27281168       4.02858192       3.36514923        4      -0.00099102       0.00070076       0.00121375
In       4.62647299      -2.84288358       5.41883898        5      -0.00099102      -0.00140152      -0.00000000
In      -1.27281168       1.32854061       5.41883898        6      -0.00099102      -0.00140152       0.00000000
In      -1.67683066       7.01430778       1.80627966        7       0.00099102       0.00140152      -0.00000000
In       4.22245401       0.14284228       3.85996941        8       0.00099102      -0.00070076      -0.00121375
In      -1.47482117       4.17142420      -0.00000000        9      -0.00000000       0.00000000       0.00000000
In       4.22245401       6.39997858       0.24741009       10       0.00099102      -0.00070076      -0.00121375
In      -1.27281168      -2.22855438       6.97770856       11      -0.00099102       0.00070076       0.00121375
In       4.22245401       2.84288359       1.80627966       12       0.00099102       0.00140152      -0.00000000
In       1.67683066       5.07143797       2.05368975       13      -0.00099102       0.00070076      -0.00121375
In       4.42446350       0.00000000      -0.00000000       14       0.00000000       0.00000000       0.00000000
In       1.47482117       2.08571210       3.61255932       15      -0.00000000       0.00000000      -0.00000000
O        0.86835797       4.17236149       3.94236182       16       0.00087534      -0.00152699       0.00010138
O       -2.08128437       3.41371684       5.25312601       17       0.00087534       0.00085129       0.00127172
O       -0.42403700       2.24186599       0.05771258       18      -0.00034527       0.00171440      -0.00022322
O       -0.86835797      -0.75677006       1.97036919       19      -0.00087534      -0.00067570       0.00137310
O        3.91224456       4.96151463       1.91265661       20       0.00051082       0.00054682       0.00159632
O        1.98704011       2.91006020       1.64056669       21      -0.00051082      -0.00110904       0.00127172
O        1.98704011       6.22287863       0.27208991       22      -0.00051082       0.00165587       0.00032460
O       -2.25499719       5.90963355       3.67027190       23      -0.00173144      -0.00024594      -0.00022322
O        3.37367933       1.92955821       7.16740606       24       0.00034527      -0.00171440       0.00022322
O        5.20463953      -1.73820935       3.55484674       25       0.00173144       0.00024594       0.00022322
O        6.32332167       3.25662566       1.69990271       26       0.00034527       0.00066388      -0.00159632
O        3.64428748       2.30944404       3.88464924       27      -0.00173144      -0.00007035       0.00032460
O        0.69464514       4.29519501       6.89531614       28      -0.00173144       0.00031628      -0.00010138
O        2.25499719      -0.12377081       0.32980250       29       0.00173144      -0.00031628       0.00010138
O       -3.37367933       0.91479854       5.52521593       30      -0.00034527      -0.00066388       0.00159632
O        5.03092670       0.75770735       1.97199263       31      -0.00087534      -0.00085129      -0.00127172
O        0.96260222       1.26136400       5.58455195       32       0.00051082       0.00110904      -0.00127172
O        3.37367933      -1.01475966       5.58292851       33       0.00034527       0.00105051       0.00137310
O        2.08128436      -0.00093729       3.28275682       34      -0.00087534       0.00152699      -0.00010138
O        0.96260222      -2.05145443       6.95302873       35       0.00051082      -0.00165587      -0.00032460
O       -0.69464515       1.86198016       3.34046940       36       0.00173144       0.00007035      -0.00032460
O       -0.96260223      -0.79009043       5.31246204       37      -0.00051082      -0.00054682      -0.00159632
O       -0.42403700       5.18618386       1.64219013       38      -0.00034527      -0.00105051      -0.00137310
O        3.81800031       4.92819426       5.25474945       39       0.00087534       0.00067570      -0.00137310
