40
Lattice="8.19702591970693 6.424552804743393e-10 1.5182389259036337e-14 -2.7323419738413555 7.728230150968071 -1.1127777692577745e-09 -2.7323419729327987 -3.864115074841573 6.692843637773038" Properties=species:S:1:pos:R:3:spacegroup_kinds:I:1:forces:R:3 spacegroup="P 1" unit_cell=conventional occupancy="_JSON {\"0\": {\"In\": 1}, \"1\": {\"In\": 1}, \"2\": {\"In\": 1}, \"3\": {\"In\": 1}, \"4\": {\"In\": 1}, \"5\": {\"In\": 1}, \"6\": {\"In\": 1}, \"7\": {\"In\": 1}, \"8\": {\"In\": 1}, \"9\": {\"In\": 1}, \"10\": {\"In\": 1}, \"11\": {\"In\": 1}, \"12\": {\"In\": 1}, \"13\": {\"In\": 1}, \"14\": {\"In\": 1}, \"15\": {\"In\": 1}, \"16\": {\"O\": 1}, \"17\": {\"O\": 1}, \"18\": {\"O\": 1}, \"19\": {\"O\": 1}, \"20\": {\"O\": 1}, \"21\": {\"O\": 1}, \"22\": {\"O\": 1}, \"23\": {\"O\": 1}, \"24\": {\"O\": 1}, \"25\": {\"O\": 1}, \"26\": {\"O\": 1}, \"27\": {\"O\": 1}, \"28\": {\"O\": 1}, \"29\": {\"O\": 1}, \"30\": {\"O\": 1}, \"31\": {\"O\": 1}, \"32\": {\"O\": 1}, \"33\": {\"O\": 1}, \"34\": {\"O\": 1}, \"35\": {\"O\": 1}, \"36\": {\"O\": 1}, \"37\": {\"O\": 1}, \"38\": {\"O\": 1}, \"39\": {\"O\": 1}}" n_minim_iter=1 energy=-45159.517461057454 stress="0.24866199585099782 1.4056608748651873e-12 -5.457495904135813e-13 1.4056608748651873e-12 0.24866199585058965 -1.426378953355244e-13 -5.457495904135813e-13 -1.426378953355244e-13 0.24866199585355664" free_energy=-45159.517461057454 pbc="T T T"
In      -3.93961435       2.78572802       5.21424299        0      -0.64065819       0.45301375      -0.78464283
In       6.67195632       1.07838706       1.47860064        1       0.64065819      -0.45301375       0.78464283
In       1.20727237      -0.85367048       4.82502246        2       0.64065819      -0.45301375       0.78464283
In      -1.36617099      -1.93205754       3.34642182        3      -0.00000000       0.00000000       0.00000000
In      -1.20727237       3.75175679       3.15181155        4      -0.64065819       0.45301375       0.78464283
In       4.25741157      -2.67336973       5.01963273        5      -0.64065819      -0.90602750       0.00000000
In      -1.20727237       1.19074535       5.01963273        6      -0.64065819      -0.90602750       0.00000000
In      -1.52506960       6.53748481       1.67321091        7       0.64065819       0.90602750      -0.00000000
In       3.93961434       0.11235829       3.54103208        8       0.64065819      -0.45301375      -0.78464283
In      -1.36617099       3.86411508      -0.00000000        9      -0.00000000       0.00000000      -0.00000000
In       3.93961434       5.90853090       0.19461026       10       0.64065819      -0.45301375      -0.78464283
In      -1.20727237      -2.04441582       6.49823337       11      -0.64065819       0.45301375       0.78464283
In       3.93961434       2.67336973       1.67321091       12       0.64065819       0.90602750      -0.00000000
In       1.52506960       4.71778556       1.86782117       13      -0.64065819       0.45301375      -0.78464283
In       4.09851296       0.00000000      -0.00000000       14      -0.00000000      -0.00000000       0.00000000
In       1.36617099       1.93205754       3.34642182       15      -0.00000000      -0.00000000       0.00000000
O        0.64135181       3.79076564       3.78600529       16      -0.21865655       0.07624887      -0.15332260
O       -2.09099016       3.31545148       4.86336346       17      -0.21865655      -0.17090570       0.01062784
O       -0.37265557       2.10040544       0.27504130       18      -0.16212883      -0.21087683       0.07985987
O       -0.64135182      -0.62201303       1.95652512       19       0.21865655      -0.09465683      -0.14269476
O        3.82283435       4.64492328       1.68148382       20      -0.08824592       0.14076395      -0.22255463
O        1.64184959       2.79831147       1.51694164       21       0.08824592       0.26311994       0.01062784
O        1.64184959       5.71072688       0.16454217       22       0.08824592      -0.12235599      -0.23318247
O       -2.10449977       5.44738051       3.62146311       23       0.14477364       0.22314881       0.07985987
O        3.10499754       1.76370964       6.41780234       24       0.16212883       0.21087683      -0.07985987
O        4.83684174      -1.58326543       3.07138052       25      -0.14477364      -0.22314881      -0.07985987
O        5.83733952       3.22045301       1.66493800       26       0.16212883      -0.03627774       0.22255463
O        3.36018418       2.34464634       3.51096399       27       0.14477364      -0.04241373      -0.23318247
O        0.62784221       3.80031838       6.25326016       28       0.14477364      -0.18073508       0.15332260
O        2.10449976       0.06379670       0.43958347       29      -0.14477364       0.18073508      -0.15332260
O       -3.10499755       0.64366207       5.02790564       30      -0.16212883       0.03627774      -0.22255463
O        4.82333213       0.54866360       1.82948017       31       0.21865655       0.17090570      -0.01062784
O        1.09049238       1.06580361       5.17590199       32      -0.08824592      -0.26311994      -0.01062784
O        3.10499754      -1.12004757       5.30294694       33       0.16212883      -0.17459909      -0.14269476
O        2.09099016       0.07334944       2.90683834       34       0.21865655      -0.07624887       0.15332260
O        1.09049238      -1.84661180       6.52830146       35      -0.08824592       0.12235599       0.23318247
O       -0.62784221       1.51946873       3.18187964       36      -0.14477364       0.04241373       0.23318247
O       -1.09049238      -0.78080820       5.01135982       37       0.08824592      -0.14076395       0.22255463
O       -0.37265557       4.98416265       1.38989670       38      -0.16212883       0.17459909       0.14269476
O        3.37369379       4.48612811       4.73631852       39      -0.21865655       0.09465683       0.14269476
40
Lattice="8.19702591970693 6.424552804743393e-10 1.5182389259036337e-14 -2.7323419738413555 7.728230150968071 -1.1127777692577745e-09 -2.7323419729327987 -3.864115074841573 6.692843637773038" Properties=species:S:1:pos:R:3:spacegroup_kinds:I:1:forces:R:3 spacegroup="P 1" unit_cell=conventional occupancy="_JSON {\"0\": {\"In\": 1}, \"1\": {\"In\": 1}, \"2\": {\"In\": 1}, \"3\": {\"In\": 1}, \"4\": {\"In\": 1}, \"5\": {\"In\": 1}, \"6\": {\"In\": 1}, \"7\": {\"In\": 1}, \"8\": {\"In\": 1}, \"9\": {\"In\": 1}, \"10\": {\"In\": 1}, \"11\": {\"In\": 1}, \"12\": {\"In\": 1}, \"13\": {\"In\": 1}, \"14\": {\"In\": 1}, \"15\": {\"In\": 1}, \"16\": {\"O\": 1}, \"17\": {\"O\": 1}, \"18\": {\"O\": 1}, \"19\": {\"O\": 1}, \"20\": {\"O\": 1}, \"21\": {\"O\": 1}, \"22\": {\"O\": 1}, \"23\": {\"O\": 1}, \"24\": {\"O\": 1}, \"25\": {\"O\": 1}, \"26\": {\"O\": 1}, \"27\": {\"O\": 1}, \"28\": {\"O\": 1}, \"29\": {\"O\": 1}, \"30\": {\"O\": 1}, \"31\": {\"O\": 1}, \"32\": {\"O\": 1}, \"33\": {\"O\": 1}, \"34\": {\"O\": 1}, \"35\": {\"O\": 1}, \"36\": {\"O\": 1}, \"37\": {\"O\": 1}, \"38\": {\"O\": 1}, \"39\": {\"O\": 1}}" n_minim_iter=2 energy=-45159.688936075334 stress="0.2674821914238604 3.2003387621389952e-12 -3.4137773913236288e-12 3.2003387621389952e-12 0.26748219142231 1.9560827690514945e-12 -3.4137773913236288e-12 1.9560827690514945e-12 0.26748219142636886" free_energy=-45159.688936075334 pbc="T T T"
In      -3.94876661       2.79219964       5.20303381        0      -0.20728026       0.14656927      -0.25386543
In       6.68110858       1.07191543       1.48980983        1       0.20728026      -0.14656927       0.25386543
In       1.21642463      -0.86014210       4.83623164        2       0.20728026      -0.14656927       0.25386543
In      -1.36617099      -1.93205754       3.34642182        3       0.00000000       0.00000000       0.00000000
In      -1.21642463       3.75822841       3.16302073        4      -0.20728026       0.14656927       0.25386543
In       4.24825931      -2.68631298       5.01963273        5      -0.20728026      -0.29313855      -0.00000000
In      -1.21642463       1.17780210       5.01963273        6      -0.20728026      -0.29313855       0.00000000
In      -1.51591734       6.55042806       1.67321091        7       0.20728026       0.29313855      -0.00000000
In       3.94876660       0.10588667       3.52982290        8       0.20728026      -0.14656927      -0.25386543
In      -1.36617099       3.86411508      -0.00000000        9       0.00000000      -0.00000000       0.00000000
In       3.94876660       5.90205928       0.18340108       10       0.20728026      -0.14656927      -0.25386543
In      -1.21642463      -2.03794420       6.50944255       11      -0.20728026       0.14656927       0.25386543
In       3.94876660       2.68631298       1.67321091       12       0.20728026       0.29313855      -0.00000000
In       1.51591734       4.72425718       1.85661199       13      -0.20728026       0.14656927      -0.25386543
In       4.09851296       0.00000000      -0.00000000       14      -0.00000000       0.00000000      -0.00000000
In       1.36617099       1.93205754       3.34642182       15       0.00000000      -0.00000000      -0.00000000
O        0.63822815       3.79185491       3.78381497       16      -0.39096697      -0.14150958      -0.20756978
O       -2.09411382       3.31300997       4.86351529       17      -0.39096697      -0.10900591       0.22633579
O       -0.37497170       2.09739292       0.27618215       18      -0.36651060      -0.12629918       0.25628860
O       -0.63822815      -0.62336527       1.95448662       19       0.39096697      -0.25051550       0.01876600
O        3.82157369       4.64693419       1.67830447       20       0.02755056       0.39848379      -0.23752260
O        1.64311025       2.80207033       1.51709347       21      -0.02755056       0.40494250       0.22633579
O        1.64311025       5.70897894       0.16121099       22      -0.02755056      -0.00645871      -0.46385839
O       -2.10243157       5.45056835       3.62260397       23      -0.00309419       0.38764924       0.25628860
O        3.10731367       1.76672216       6.41666148       24       0.36651060       0.12629918      -0.25628860
O        4.83477354      -1.58645327       3.07023966       25       0.00309419      -0.38764924      -0.25628860
O        5.83965564       3.21993476       1.66811735       26       0.36651060       0.15880285       0.23752260
O        3.36225238       2.34404043       3.50763281       27      -0.00309419       0.02812782      -0.46385839
O        0.62991040       3.79773645       6.25545048       28      -0.00309419      -0.41577706       0.20756978
O        2.10243157       0.06637863       0.43739315       29       0.00309419       0.41577706      -0.20756978
O       -3.10731367       0.64418032       5.02472628       30      -0.36651060      -0.15880285      -0.23752260
O        4.82645579       0.55110511       1.82932834       31       0.39096697       0.10900591      -0.22633579
O        1.08923172       1.06204475       5.17575016       32       0.02755056      -0.40494250      -0.22633579
O        3.10731367      -1.12254184       5.30090844       33       0.36651060      -0.28510203       0.01876600
O        2.09411382       0.07226017       2.90902867       34       0.39096697       0.14150958       0.20756978
O        1.08923172      -1.84486386       6.53163264       35       0.02755056       0.00645871       0.46385839
O       -0.62991041       1.52007465       3.18521082       36       0.00309419      -0.02812782       0.46385839
O       -1.08923172      -0.78281911       5.01453917       37      -0.02755056      -0.39848379       0.23752260
O       -0.37497170       4.98665692       1.39193519       38      -0.36651060       0.28510203      -0.01876600
O        3.37057012       4.48748035       4.73835701       39      -0.39096697       0.25051550      -0.01876600
40
Lattice="8.197025919706933 6.424552804743395e-10 1.518238925903634e-14 -2.7323419738413564 7.728230150968074 -1.112777769257775e-09 -2.7323419729327996 -3.8641150748415747 6.692843637773041" Properties=species:S:1:pos:R:3:spacegroup_kinds:I:1:forces:R:3 spacegroup="P 1" unit_cell=conventional occupancy="_JSON {\"0\": {\"In\": 1}, \"1\": {\"In\": 1}, \"2\": {\"In\": 1}, \"3\": {\"In\": 1}, \"4\": {\"In\": 1}, \"5\": {\"In\": 1}, \"6\": {\"In\": 1}, \"7\": {\"In\": 1}, \"8\": {\"In\": 1}, \"9\": {\"In\": 1}, \"10\": {\"In\": 1}, \"11\": {\"In\": 1}, \"12\": {\"In\": 1}, \"13\": {\"In\": 1}, \"14\": {\"In\": 1}, \"15\": {\"In\": 1}, \"16\": {\"O\": 1}, \"17\": {\"O\": 1}, \"18\": {\"O\": 1}, \"19\": {\"O\": 1}, \"20\": {\"O\": 1}, \"21\": {\"O\": 1}, \"22\": {\"O\": 1}, \"23\": {\"O\": 1}, \"24\": {\"O\": 1}, \"25\": {\"O\": 1}, \"26\": {\"O\": 1}, \"27\": {\"O\": 1}, \"28\": {\"O\": 1}, \"29\": {\"O\": 1}, \"30\": {\"O\": 1}, \"31\": {\"O\": 1}, \"32\": {\"O\": 1}, \"33\": {\"O\": 1}, \"34\": {\"O\": 1}, \"35\": {\"O\": 1}, \"36\": {\"O\": 1}, \"37\": {\"O\": 1}, \"38\": {\"O\": 1}, \"39\": {\"O\": 1}}" n_minim_iter=3 energy=-45159.861562054524 stress="0.2967447355356275 7.402607151819058e-13 1.5250307340724297e-13 7.402607151819058e-13 0.2967447355367221 -2.4567021942283956e-12 1.5250307340724297e-13 -2.4567021942283956e-12 0.29674473554115377" free_energy=-45159.861562054524 pbc="T T T"
In      -3.96022412       2.80030133       5.18900127        0       0.07931506      -0.05608422       0.09714072
In       6.69256609       1.06381375       1.50384236        1      -0.07931506       0.05608422      -0.09714072
In       1.22788215      -0.86824379       4.85026418        2      -0.07931506       0.05608422      -0.09714072
In      -1.36617099      -1.93205754       3.34642182        3       0.00000000      -0.00000000       0.00000000
In      -1.22788215       3.76633010       3.17705327        4       0.07931506      -0.05608422      -0.09714072
In       4.23680180      -2.70251636       5.01963273        5       0.07931506       0.11216844      -0.00000000
In      -1.22788215       1.16159872       5.01963273        6       0.07931506       0.11216844      -0.00000000
In      -1.50445983       6.56663143       1.67321091        7      -0.07931506      -0.11216844      -0.00000000
In       3.96022412       0.09778498       3.51579036        8      -0.07931506       0.05608422       0.09714072
In      -1.36617099       3.86411508      -0.00000000        9      -0.00000000      -0.00000000      -0.00000000
In       3.96022412       5.89395759       0.16936854       10      -0.07931506       0.05608422       0.09714072
In      -1.22788215      -2.02984251       6.52347509       11       0.07931506      -0.05608422      -0.09714072
In       3.96022412       2.70251636       1.67321091       12      -0.07931506      -0.11216844       0.00000000
In       1.50445982       4.73235887       1.84257945       13       0.07931506      -0.05608422       0.09714072
In       4.09851296       0.00000000      -0.00000000       14       0.00000000      -0.00000000      -0.00000000
In       1.36617099       1.93205754       3.34642182       15      -0.00000000       0.00000000       0.00000000
O        0.62613007       3.78896958       3.77703405       16      -0.36013186      -0.21975822      -0.09638269
O       -2.10621190       3.30858019       4.86940452       17      -0.36013186       0.02640925       0.23850755
O       -0.38590115       2.09213679       0.28350266       18      -0.30233511      -0.01445922       0.30929382
O       -0.62613007      -0.63068039       1.95359494       19       0.36013186      -0.19334897       0.14212485
O        3.82142995       4.65847580       1.67009228       20       0.14494283       0.37191984      -0.16716896
O        1.64325399       2.81495310       1.52298270       21      -0.14494283       0.33073249       0.23850755
O        1.64325399       5.70763778       0.14710957       22      -0.14494283       0.04118735      -0.40567651
O       -2.10111920       5.46262478       3.62992448       23      -0.08714609       0.28986402       0.30929382
O        3.11824312       1.77197829       6.40934097       24       0.30233511       0.01445922      -0.30929382
O        4.83346117      -1.59850970       3.06291916       25       0.08714608      -0.28986402      -0.30929382
O        5.85058509       3.22364644       1.67632954       26       0.30233511       0.26062669       0.16716896
O        3.36356475       2.34435197       3.49353139       27      -0.08714609       0.12292429      -0.40567651
O        0.63122277       3.78536849       6.26223140       28      -0.08714608      -0.41278831       0.09638269
O        2.10111920       0.07874659       0.43061223       29       0.08714608       0.41278831      -0.09638269
O       -3.11824312       0.64046864       5.01651409       30      -0.30233511      -0.26062669      -0.16716896
O        4.83855387       0.55553489       1.82343911       31       0.36013186      -0.02640925      -0.23850755
O        1.08908798       1.04916198       5.16986093       32       0.14494283      -0.33073249      -0.23850755
O        3.11824312      -1.13150965       5.30001675       33       0.30233511      -0.27508591       0.14212485
O        2.10621190       0.07514550       2.91580958       34       0.36013186       0.21975822       0.09638269
O        1.08908798      -1.84352270       6.54573406       35       0.14494283      -0.04118735       0.40567651
O       -0.63122278       1.51976311       3.19931224       36       0.08714608      -0.12292429       0.40567651
O       -1.08908798      -0.79436072       5.02275136       37      -0.14494283      -0.37191984       0.16716896
O       -0.38590115       4.99562473       1.39282688       38      -0.30233511       0.27508591      -0.14212485
O        3.35847204       4.49479547       4.73924870       39      -0.36013186       0.19334897      -0.14212485
40
Lattice="8.197025919706933 6.424552804743396e-10 1.518238925903634e-14 -2.7323419738413564 7.728230150968076 -1.1127777692577755e-09 -2.7323419729327996 -3.8641150748415756 6.692843637773043" Properties=species:S:1:pos:R:3:spacegroup_kinds:I:1:forces:R:3 spacegroup="P 1" unit_cell=conventional occupancy="_JSON {\"0\": {\"In\": 1}, \"1\": {\"In\": 1}, \"2\": {\"In\": 1}, \"3\": {\"In\": 1}, \"4\": {\"In\": 1}, \"5\": {\"In\": 1}, \"6\": {\"In\": 1}, \"7\": {\"In\": 1}, \"8\": {\"In\": 1}, \"9\": {\"In\": 1}, \"10\": {\"In\": 1}, \"11\": {\"In\": 1}, \"12\": {\"In\": 1}, \"13\": {\"In\": 1}, \"14\": {\"In\": 1}, \"15\": {\"In\": 1}, \"16\": {\"O\": 1}, \"17\": {\"O\": 1}, \"18\": {\"O\": 1}, \"19\": {\"O\": 1}, \"20\": {\"O\": 1}, \"21\": {\"O\": 1}, \"22\": {\"O\": 1}, \"23\": {\"O\": 1}, \"24\": {\"O\": 1}, \"25\": {\"O\": 1}, \"26\": {\"O\": 1}, \"27\": {\"O\": 1}, \"28\": {\"O\": 1}, \"29\": {\"O\": 1}, \"30\": {\"O\": 1}, \"31\": {\"O\": 1}, \"32\": {\"O\": 1}, \"33\": {\"O\": 1}, \"34\": {\"O\": 1}, \"35\": {\"O\": 1}, \"36\": {\"O\": 1}, \"37\": {\"O\": 1}, \"38\": {\"O\": 1}, \"39\": {\"O\": 1}}" n_minim_iter=4 energy=-45159.95023052919 stress="0.3221737681343247 -1.1150369290490278e-12 1.5076041905497632e-12 -1.1150369290490278e-12 0.32217376812935267 -2.2718739954763131e-13 1.5076041905497632e-12 -2.2718739954763131e-13 0.32217376812945764" free_energy=-45159.95023052919 pbc="T T T"
In      -3.96854742       2.80618680       5.17880735        0       0.09612006      -0.06796714       0.11772255
In       6.70088939       1.05792828       1.51403628        1      -0.09612006       0.06796714      -0.11772255
In       1.23620545      -0.87412925       4.86045810        2      -0.09612006       0.06796714      -0.11772255
In      -1.36617099      -1.93205754       3.34642182        3       0.00000000      -0.00000000       0.00000000
In      -1.23620545       3.77221556       3.18724719        4       0.09612006      -0.06796714      -0.11772255
In       4.22847850      -2.71428728       5.01963273        5       0.09612006       0.13593429       0.00000000
In      -1.23620545       1.14982780       5.01963273        6       0.09612006       0.13593429      -0.00000000
In      -1.49613653       6.57840236       1.67321091        7      -0.09612006      -0.13593429      -0.00000000
In       3.96854742       0.09189951       3.50559644        8      -0.09612006       0.06796714       0.11772255
In      -1.36617099       3.86411508      -0.00000000        9      -0.00000000      -0.00000000       0.00000000
In       3.96854742       5.88807213       0.15917462       10      -0.09612006       0.06796714       0.11772255
In      -1.23620545      -2.02395705       6.53366901       11       0.09612006      -0.06796714      -0.11772255
In       3.96854742       2.71428728       1.67321091       12      -0.09612006      -0.13593429      -0.00000000
In       1.49613652       4.73824433       1.83238553       13       0.09612006      -0.06796714       0.11772255
In       4.09851296       0.00000000      -0.00000000       14       0.00000000      -0.00000000       0.00000000
In       1.36617099       1.93205754       3.34642182       15      -0.00000000       0.00000000       0.00000000
O        0.61123599       3.78347264       3.77097084       16      -0.14664770      -0.12706990       0.07190045
O       -2.12110599       3.30607776       4.87719661       17      -0.14664770       0.12580257       0.07409554
O       -0.39840771       2.08794613       0.29421885       18      -0.05007742       0.05751706       0.19236949
O       -0.61123599      -0.63867975       1.95532381       19       0.14664770      -0.00126733       0.14599599
O        3.82403533       4.67266216       1.66110496       20       0.16749037       0.11233191      -0.04637351
O        1.64064861       2.82982952       1.53077479       21      -0.16749037       0.09632659       0.07409554
O        1.64064861       5.70694772       0.13033017       22      -0.16749037       0.01600532      -0.12046904
O       -2.10133706       5.47581296       3.64064067       23      -0.07092008       0.02804109       0.19236949
O        3.13074968       1.77616895       6.39862478       24       0.05007742      -0.05751706      -0.19236949
O        4.83367903      -1.61169788       3.05220297       25       0.07092008      -0.02804109      -0.19236949
O        5.86309166       3.23083160       1.68531685       26       0.05007742       0.19535540       0.04637351
O        3.36334688       2.34703836       3.47675199       27      -0.07092008       0.15257632      -0.12046904
O        0.63100491       3.76949391       6.26829461       28      -0.07092008      -0.18061742      -0.07190045
O        2.10133706       0.09462117       0.42454902       29       0.07092008       0.18061742       0.07190045
O       -3.13074969       0.63328348       5.00752678       30      -0.05007742      -0.19535540      -0.04637351
O        4.85344796       0.55803732       1.81564702       31       0.14664770      -0.12580257      -0.07409554
O        1.09169336       1.03428556       5.16206884       32       0.16749037      -0.09632659      -0.07409554
O        3.13074968      -1.14288547       5.30174563       33       0.05007742      -0.13783834       0.14599599
O        2.12110598       0.08064243       2.92187279       34       0.14664770       0.12706990      -0.07190045
O        1.09169336      -1.84283264       6.56251346       35       0.16749037      -0.01600532       0.12046904
O       -0.63100491       1.51707672       3.21609164       36       0.07092008      -0.15257632       0.12046904
O       -1.09169336      -0.80854708       5.03173867       37      -0.16749037      -0.11233191       0.04637351
O       -0.39840771       5.00700055       1.39109800       38      -0.05007742       0.13783834      -0.14599599
O        3.34357796       4.50279483       4.73751982       39      -0.14664770       0.00126733      -0.14599599
40
Lattice="8.197025919706931 6.424552804743397e-10 1.5182389259036347e-14 -2.732341973841357 7.728230150968076 -1.1127777692577755e-09 -2.7323419729328 -3.8641150748415756 6.692843637773043" Properties=species:S:1:pos:R:3:spacegroup_kinds:I:1:forces:R:3 spacegroup="P 1" unit_cell=conventional occupancy="_JSON {\"0\": {\"In\": 1}, \"1\": {\"In\": 1}, \"2\": {\"In\": 1}, \"3\": {\"In\": 1}, \"4\": {\"In\": 1}, \"5\": {\"In\": 1}, \"6\": {\"In\": 1}, \"7\": {\"In\": 1}, \"8\": {\"In\": 1}, \"9\": {\"In\": 1}, \"10\": {\"In\": 1}, \"11\": {\"In\": 1}, \"12\": {\"In\": 1}, \"13\": {\"In\": 1}, \"14\": {\"In\": 1}, \"15\": {\"In\": 1}, \"16\": {\"O\": 1}, \"17\": {\"O\": 1}, \"18\": {\"O\": 1}, \"19\": {\"O\": 1}, \"20\": {\"O\": 1}, \"21\": {\"O\": 1}, \"22\": {\"O\": 1}, \"23\": {\"O\": 1}, \"24\": {\"O\": 1}, \"25\": {\"O\": 1}, \"26\": {\"O\": 1}, \"27\": {\"O\": 1}, \"28\": {\"O\": 1}, \"29\": {\"O\": 1}, \"30\": {\"O\": 1}, \"31\": {\"O\": 1}, \"32\": {\"O\": 1}, \"33\": {\"O\": 1}, \"34\": {\"O\": 1}, \"35\": {\"O\": 1}, \"36\": {\"O\": 1}, \"37\": {\"O\": 1}, \"38\": {\"O\": 1}, \"39\": {\"O\": 1}}" n_minim_iter=5 energy=-45159.964466377416 stress="0.32673197197052484 -1.920410857038535e-12 -1.3069237289610925e-12 -1.920410857038535e-12 0.32673197197179205 -3.527695400250746e-13 -1.3069237289610925e-12 -3.527695400250746e-13 0.32673197197430576" free_energy=-45159.964466377416 pbc="T T T"
In      -3.96964401       2.80696220       5.17746432        0       0.02475071      -0.01750139       0.03031330
In       6.70198598       1.05715288       1.51537932        1      -0.02475071       0.01750139      -0.03031330
In       1.23730203      -0.87490466       4.86180114        2      -0.02475071       0.01750139      -0.03031330
In      -1.36617099      -1.93205754       3.34642182        3       0.00000000      -0.00000000       0.00000000
In      -1.23730203       3.77299097       3.18859023        4       0.02475071      -0.01750139      -0.03031330
In       4.22738191      -2.71583808       5.01963273        5       0.02475071       0.03500279      -0.00000000
In      -1.23730203       1.14827699       5.01963273        6       0.02475071       0.03500279      -0.00000000
In      -1.49503994       6.57995316       1.67321091        7      -0.02475071      -0.03500279       0.00000000
In       3.96964401       0.09112411       3.50425341        8      -0.02475071       0.01750139       0.03031330
In      -1.36617099       3.86411508      -0.00000000        9      -0.00000000      -0.00000000      -0.00000000
In       3.96964400       5.88729673       0.15783159       10      -0.02475071       0.01750139       0.03031330
In      -1.23730203      -2.02318165       6.53501205       11       0.02475071      -0.01750139      -0.03031330
In       3.96964400       2.71583809       1.67321091       12      -0.02475071      -0.03500279      -0.00000000
In       1.49503994       4.73901974       1.83104250       13       0.02475071      -0.01750139       0.03031330
In       4.09851296       0.00000000      -0.00000000       14       0.00000000      -0.00000000       0.00000000
In       1.36617099       1.93205754       3.34642182       15      -0.00000000       0.00000000       0.00000000
O        0.60647750       3.78090369       3.77117846       16      -0.04139339      -0.05063304       0.08433923
O       -2.12586447       3.30754205       4.87931758       17      -0.04139339       0.09835643       0.00167988
O       -0.40103537       2.08790369       0.29894954       18       0.03119625       0.04702781       0.09058367
O       -0.60647750      -0.63978441       1.95765241       19       0.04139339       0.04772339       0.08601911
O        3.82700204       4.67649810       1.65870286       20       0.10652913       0.00457511      -0.00456456
O        1.63768190       2.83382777       1.53289576       21      -0.10652913       0.00624058       0.00167988
O        1.63768190       5.70678541       0.12580710       22      -0.10652913      -0.00166547      -0.00624445
O       -2.10217294       5.47830449       3.64537136       23      -0.03393949      -0.04508804       0.09058367
O        3.13337734       1.77621138       6.39389409       24      -0.03119625      -0.04702781      -0.09058367
O        4.83451491      -1.61418941       3.04747227       25       0.03393949       0.04508804      -0.09058367
O        5.86571931       3.23490729       1.68771895       26      -0.03119625       0.10196167       0.00456456
O        3.36251101       2.34988951       3.47222892       27      -0.03393949       0.10099178      -0.00624445
O        0.63016904       3.76415124       6.26808699       28      -0.03393949      -0.05590374      -0.08433923
O        2.10217293       0.09996384       0.42475665       29       0.03393949       0.05590374       0.08433923
O       -3.13337734       0.62920779       5.00512468       30       0.03119625      -0.10196167      -0.00456456
O        4.85820644       0.55657303       1.81352605       31       0.04139339      -0.09835643      -0.00167988
O        1.09466007       1.03028731       5.15994787       32       0.10652913      -0.00624058      -0.00167988
O        3.13337734      -1.14700359       5.30407423       33      -0.03119625      -0.05493386       0.08601911
O        2.12586447       0.08321139       2.92166517       34       0.04139339       0.05063304      -0.08433923
O        1.09466007      -1.84267033       6.56703653       35       0.10652913       0.00166547       0.00624445
O       -0.63016904       1.51422557       3.22061471       36       0.03393949      -0.10099178       0.00624445
O       -1.09466007      -0.81238302       5.03414077       37      -0.10652913      -0.00457511       0.00456456
O       -0.40103537       5.01111867       1.38876940       38       0.03119625       0.05493386      -0.08601911
O        3.33881947       4.50389949       4.73519122       39      -0.04139339      -0.04772339      -0.08601911
40