40
Lattice="9.416764216744017 7.380635447989265e-10 1.1612475619299409e-14 -3.1389214062771904 8.878210445746678 -1.278369736626705e-09 -3.1389214052334244 -4.439105222135272 7.688755787013224" Properties=species:S:1:pos:R:3:spacegroup_kinds:I:1:forces:R:3 spacegroup="P 1" unit_cell=conventional occupancy="_JSON {\"0\": {\"In\": 1}, \"1\": {\"In\": 1}, \"2\": {\"In\": 1}, \"3\": {\"In\": 1}, \"4\": {\"In\": 1}, \"5\": {\"In\": 1}, \"6\": {\"In\": 1}, \"7\": {\"In\": 1}, \"8\": {\"In\": 1}, \"9\": {\"In\": 1}, \"10\": {\"In\": 1}, \"11\": {\"In\": 1}, \"12\": {\"In\": 1}, \"13\": {\"In\": 1}, \"14\": {\"In\": 1}, \"15\": {\"In\": 1}, \"16\": {\"O\": 1}, \"17\": {\"O\": 1}, \"18\": {\"O\": 1}, \"19\": {\"O\": 1}, \"20\": {\"O\": 1}, \"21\": {\"O\": 1}, \"22\": {\"O\": 1}, \"23\": {\"O\": 1}, \"24\": {\"O\": 1}, \"25\": {\"O\": 1}, \"26\": {\"O\": 1}, \"27\": {\"O\": 1}, \"28\": {\"O\": 1}, \"29\": {\"O\": 1}, \"30\": {\"O\": 1}, \"31\": {\"O\": 1}, \"32\": {\"O\": 1}, \"33\": {\"O\": 1}, \"34\": {\"O\": 1}, \"35\": {\"O\": 1}, \"36\": {\"O\": 1}, \"37\": {\"O\": 1}, \"38\": {\"O\": 1}, \"39\": {\"O\": 1}}" n_minim_iter=1 energy=-45149.18162602365 stress="0.027513098390448555 -1.2432148506421118e-13 2.267062194669934e-12 -1.2432148506421118e-13 0.027513098391482298 -1.4919896337813007e-12 2.267062194669934e-12 -1.4919896337813007e-12 0.027513098390952666" free_energy=-45149.18162602365 pbc="T T T"
In      -4.49918754       3.18140602       6.02277681        0      -0.02718547       0.01922303      -0.03329526
In       7.63810894       1.25769921       1.66597897        1       0.02718547      -0.01922303       0.03329526
In       1.36026613      -0.96185341       5.51035686        2       0.02718547      -0.01922303       0.03329526
In      -1.56946070      -2.21955261       3.84437789        3       0.00000000       0.00000000      -0.00000000
In      -1.36026614       4.29118233       3.58816792        4      -0.02718547       0.01922303       0.03329526
In       4.91757668      -3.03348312       5.76656684        5      -0.02718547      -0.03844606       0.00000000
In      -1.36026614       1.40562210       5.76656684        6      -0.02718547      -0.03844606      -0.00000000
In      -1.77865527       7.47258835       1.92218894        7       0.02718547       0.03844606      -0.00000000
In       4.49918754       0.14792290       4.10058787        8       0.02718547      -0.01922303      -0.03329526
In      -1.56946070       4.43910522      -0.00000000        9       0.00000000       0.00000000      -0.00000000
In       4.49918754       6.80658073       0.25620997       10       0.02718547      -0.01922303      -0.03329526
In      -1.36026614      -2.36747551       7.43254581       11      -0.02718547       0.01922303       0.03329526
In       4.49918754       3.03348312       1.92218894       12       0.02718547       0.03844606       0.00000000
In       1.77865527       5.40095863       2.17839892       13      -0.02718547       0.01922303      -0.03329526
In       4.70838211       0.00000000      -0.00000000       14       0.00000000       0.00000000      -0.00000000
In       1.56946070       2.21955261       3.84437789       15      -0.00000000       0.00000000       0.00000000
O        0.98250204       4.44984833       4.14695802       16       0.01683771       0.05549261      -0.01425560
O       -2.15641936       3.58599945       5.60597297       17       0.01683771      -0.04009202      -0.04093021
O       -0.46668647       2.39117786      -0.01329111       18       0.02013238      -0.04242171      -0.03689507
O       -0.98250204      -0.84236267       2.06417521       19      -0.01683771       0.01540059      -0.05518581
O        4.09971916       5.27379427       2.07746632       20      -0.04341169      -0.03670197      -0.01829074
O        2.17812365       3.05731114       1.76159508       21       0.04341169      -0.00251074      -0.04093021
O        2.17812365       6.65558836       0.31587124       22       0.04341169      -0.03419123       0.02263947
O       -2.40998626       6.30159477       3.83108678       23       0.04670636      -0.00484042      -0.03689507
O        3.60560787       2.04792737       7.70204689       24      -0.02013238       0.04242171       0.03689507
O        5.54890766      -1.86248954       3.85766900       25      -0.04670636       0.00484042       0.03689507
O        6.74452927       3.40363110       1.76691157       26      -0.02013238      -0.05316292       0.01829074
O        3.86785655       2.38657371       4.16024913       27       0.04670636      -0.02953186       0.02263947
O        0.72893514       4.62914720       7.38617565       28       0.04670636       0.03437228       0.01425560
O        2.40998626      -0.19004197       0.30258013       29      -0.04670636      -0.03437228      -0.01425560
O       -3.60560787       1.03547412       5.92184422       30       0.02013238       0.05316292      -0.01829074
O        5.29534077       0.85310578       2.08278281       31      -0.01683771       0.04009202       0.04093021
O        0.96079775       1.38179409       5.92716070       32      -0.04341169       0.00251074       0.04093021
O        3.60560787      -1.01245324       5.90855311       33      -0.02013238       0.01074121      -0.05518581
O        2.15641936      -0.01074310       3.54179776       34      -0.01683771      -0.05549261       0.01425560
O        0.96079775      -2.21648313       7.37288454       35      -0.04341169       0.03419123      -0.02263947
O       -0.72893515       2.05253152       3.52850665       36      -0.04670636       0.02953186      -0.02263947
O       -0.96079775      -0.83468905       5.61128946       37       0.04341169       0.03670197       0.01829074
O       -0.46668647       5.45155847       1.78020267       38       0.02013238      -0.01074121       0.05518581
O        4.12142345       5.28146790       5.62458057       39       0.01683771      -0.01540059       0.05518581
40
Lattice="9.416764216744017 7.38063544798927e-10 1.161247561929942e-14 -3.1389214062771926 8.878210445746678 -1.278369736626705e-09 -3.1389214052334267 -4.439105222135272 7.688755787013228" Properties=species:S:1:pos:R:3:spacegroup_kinds:I:1:forces:R:3 spacegroup="P 1" unit_cell=conventional occupancy="_JSON {\"0\": {\"In\": 1}, \"1\": {\"In\": 1}, \"2\": {\"In\": 1}, \"3\": {\"In\": 1}, \"4\": {\"In\": 1}, \"5\": {\"In\": 1}, \"6\": {\"In\": 1}, \"7\": {\"In\": 1}, \"8\": {\"In\": 1}, \"9\": {\"In\": 1}, \"10\": {\"In\": 1}, \"11\": {\"In\": 1}, \"12\": {\"In\": 1}, \"13\": {\"In\": 1}, \"14\": {\"In\": 1}, \"15\": {\"In\": 1}, \"16\": {\"O\": 1}, \"17\": {\"O\": 1}, \"18\": {\"O\": 1}, \"19\": {\"O\": 1}, \"20\": {\"O\": 1}, \"21\": {\"O\": 1}, \"22\": {\"O\": 1}, \"23\": {\"O\": 1}, \"24\": {\"O\": 1}, \"25\": {\"O\": 1}, \"26\": {\"O\": 1}, \"27\": {\"O\": 1}, \"28\": {\"O\": 1}, \"29\": {\"O\": 1}, \"30\": {\"O\": 1}, \"31\": {\"O\": 1}, \"32\": {\"O\": 1}, \"33\": {\"O\": 1}, \"34\": {\"O\": 1}, \"35\": {\"O\": 1}, \"36\": {\"O\": 1}, \"37\": {\"O\": 1}, \"38\": {\"O\": 1}, \"39\": {\"O\": 1}}" n_minim_iter=2 energy=-45149.187140282454 stress="0.026936760383460465 -3.588880324804321e-13 -1.605110488795524e-13 -3.588880324804321e-13 0.026936760385169747 1.2629349854193968e-12 -1.605110488795524e-13 1.2629349854193968e-12 0.026936760381361533" free_energy=-45149.187140282454 pbc="T T T"
In      -4.50112936       3.18277909       6.02039858        0      -0.01088430       0.00769637      -0.01333050
In       7.64005076       1.25632613       1.66835720        1       0.01088430      -0.00769637       0.01333050
In       1.36220795      -0.96322648       5.51273510        2       0.01088430      -0.00769637       0.01333050
In      -1.56946070      -2.21955261       3.84437789        3       0.00000000       0.00000000       0.00000000
In      -1.36220796       4.29255540       3.59054615        4      -0.01088430       0.00769637       0.01333050
In       4.91563486      -3.03622927       5.76656684        5      -0.01088430      -0.01539273      -0.00000000
In      -1.36220796       1.40287596       5.76656684        6      -0.01088430      -0.01539273      -0.00000000
In      -1.77671345       7.47533449       1.92218894        7       0.01088430       0.01539273      -0.00000000
In       4.50112936       0.14654983       4.09820963        8       0.01088430      -0.00769637      -0.01333050
In      -1.56946070       4.43910522      -0.00000000        9      -0.00000000       0.00000000       0.00000000
In       4.50112936       6.80520766       0.25383174       10       0.01088430      -0.00769637      -0.01333050
In      -1.36220796      -2.36610243       7.43492404       11      -0.01088430       0.00769637       0.01333050
In       4.50112936       3.03622927       1.92218894       12       0.01088430       0.01539273      -0.00000000
In       1.77671345       5.40233171       2.17602068       13      -0.01088430       0.00769637      -0.01333050
In       4.70838211       0.00000000      -0.00000000       14      -0.00000000       0.00000000      -0.00000000
In       1.56946070       2.21955261       3.84437789       15       0.00000000       0.00000000       0.00000000
O        0.98370473       4.45381208       4.14593977       16       0.01623742       0.01699267      -0.00641563
O       -2.15521667       3.58313574       5.60304939       17       0.01623742      -0.01405243      -0.01150827
O       -0.46524844       2.38814774      -0.01592647       18       0.00818456      -0.00835820      -0.02137097
O       -0.98370474      -0.84126263       2.06023337       19      -0.01623742       0.00294024      -0.01792390
O        4.09661832       5.27117270       2.07615984       20      -0.01866123      -0.01527877       0.00344707
O        2.18122449       3.05713180       1.75867149       21       0.01866123      -0.01062464      -0.01150827
O        2.18122449       6.65314613       0.31748834       22       0.01866123      -0.00465414       0.01495534
O       -2.40665009       6.30124902       3.82845142       23       0.01060837      -0.00493041      -0.02137097
O        3.60416984       2.05095749       7.70468225       24      -0.00818456       0.00835820       0.02137097
O        5.54557149      -1.86214380       3.86030436       25      -0.01060837       0.00493041       0.02137097
O        6.74309125       3.39983375       1.76821805       26      -0.00818456      -0.02268690      -0.00344707
O        3.87119272       2.38446429       4.16186624       27       0.01060837      -0.01604260       0.01495534
O        0.73227131       4.63160236       7.38719391       28       0.01060837       0.02097301       0.00641563
O        2.40665009      -0.19249713       0.30156187       29      -0.01060837      -0.02097301      -0.00641563
O       -3.60416984       1.03927147       5.92053773       30       0.00818456       0.02268690       0.00344707
O        5.29413807       0.85596949       2.08570639       31      -0.01623742       0.01405243       0.01150827
O        0.95769692       1.38197343       5.93008429       32      -0.01866123       0.01062464       0.01150827
O        3.60416984      -1.01168601       5.90461126       33      -0.00818456       0.01432870      -0.01792390
O        2.15521667      -0.01470686       3.54281602       34      -0.01623742      -0.01699267       0.00641563
O        0.95769692      -2.21404090       7.37126744       35      -0.01866123       0.00465414      -0.01495534
O       -0.73227132       2.05464094       3.52688954       36      -0.01060837       0.01604260      -0.01495534
O       -0.95769692      -0.83206748       5.61259594       37       0.01866123       0.01527877      -0.00344707
O       -0.46524844       5.45079124       1.78414452       38       0.00818456      -0.01432870       0.01792390
O        4.12262614       5.28036786       5.62852241       39       0.01623742      -0.00294024       0.01792390
40
Lattice="9.416764216744019 7.38063544798927e-10 1.1612475619299423e-14 -3.1389214062771926 8.87821044574668 -1.2783697366267056e-09 -3.1389214052334267 -4.4391052221352725 7.68875578701323" Properties=species:S:1:pos:R:3:spacegroup_kinds:I:1:forces:R:3 spacegroup="P 1" unit_cell=conventional occupancy="_JSON {\"0\": {\"In\": 1}, \"1\": {\"In\": 1}, \"2\": {\"In\": 1}, \"3\": {\"In\": 1}, \"4\": {\"In\": 1}, \"5\": {\"In\": 1}, \"6\": {\"In\": 1}, \"7\": {\"In\": 1}, \"8\": {\"In\": 1}, \"9\": {\"In\": 1}, \"10\": {\"In\": 1}, \"11\": {\"In\": 1}, \"12\": {\"In\": 1}, \"13\": {\"In\": 1}, \"14\": {\"In\": 1}, \"15\": {\"In\": 1}, \"16\": {\"O\": 1}, \"17\": {\"O\": 1}, \"18\": {\"O\": 1}, \"19\": {\"O\": 1}, \"20\": {\"O\": 1}, \"21\": {\"O\": 1}, \"22\": {\"O\": 1}, \"23\": {\"O\": 1}, \"24\": {\"O\": 1}, \"25\": {\"O\": 1}, \"26\": {\"O\": 1}, \"27\": {\"O\": 1}, \"28\": {\"O\": 1}, \"29\": {\"O\": 1}, \"30\": {\"O\": 1}, \"31\": {\"O\": 1}, \"32\": {\"O\": 1}, \"33\": {\"O\": 1}, \"34\": {\"O\": 1}, \"35\": {\"O\": 1}, \"36\": {\"O\": 1}, \"37\": {\"O\": 1}, \"38\": {\"O\": 1}, \"39\": {\"O\": 1}}" n_minim_iter=3 energy=-45149.18812621239 stress="0.026574768283443018 -1.857510707242546e-12 -6.78987503931845e-13 -1.857510707242546e-12 0.02657476828618561 1.5559673949456599e-12 -6.78987503931845e-13 1.5559673949456599e-12 0.02657476828486372" free_energy=-45149.18812621239 pbc="T T T"
In      -4.50233336       3.18363045       6.01892398        0      -0.00044343       0.00031355      -0.00054309
In       7.64125477       1.25547477       1.66983180        1       0.00044343      -0.00031355       0.00054309
In       1.36341195      -0.96407784       5.51420969        2       0.00044343      -0.00031355       0.00054309
In      -1.56946070      -2.21955261       3.84437789        3      -0.00000000      -0.00000000      -0.00000000
In      -1.36341196       4.29340676       3.59202074        4      -0.00044343       0.00031355       0.00054309
In       4.91443085      -3.03793198       5.76656684        5      -0.00044343      -0.00062710       0.00000000
In      -1.36341196       1.40117324       5.76656684        6      -0.00044343      -0.00062710      -0.00000000
In      -1.77550945       7.47703721       1.92218894        7       0.00044343       0.00062710       0.00000000
In       4.50233336       0.14569847       4.09673504        8       0.00044343      -0.00031355      -0.00054309
In      -1.56946070       4.43910522      -0.00000000        9      -0.00000000       0.00000000       0.00000000
In       4.50233336       6.80435630       0.25235714       10       0.00044343      -0.00031355      -0.00054309
In      -1.36341196      -2.36525107       7.43639864       11      -0.00044343       0.00031355       0.00054309
In       4.50233336       3.03793199       1.92218894       12       0.00044343       0.00062710       0.00000000
In       1.77550945       5.40318306       2.17454609       13      -0.00044343       0.00031355      -0.00054309
In       4.70838211       0.00000000      -0.00000000       14      -0.00000000      -0.00000000      -0.00000000
In       1.56946070       2.21955261       3.84437789       15       0.00000000      -0.00000000      -0.00000000
O        0.98466740       4.45615039       4.14529223       16       0.01449518      -0.00549306      -0.00145801
O       -2.15425400       3.58140580       5.60134812       17       0.01449518       0.00148385       0.00548613
O       -0.46435397       2.38646603      -0.01771127       18       0.00105181       0.01098975      -0.01097856
O       -0.98466741      -0.84065426       2.05788457       19      -0.01449518      -0.00400921       0.00402812
O        4.09466643       5.26953388       2.07559583       20      -0.00343274      -0.00232927       0.01500668
O        2.18317638       3.05680083       1.75697023       21       0.00343274      -0.01416080       0.00548613
O        2.18317638       6.65183827       0.31862560       22       0.00343274       0.01183153       0.00952054
O       -2.40476640       6.30096628       3.82666662       23      -0.01001063      -0.00465490      -0.01097856
O        3.60327537       2.05263920       7.70646705       24      -0.00105181      -0.01098975       0.01097856
O        5.54368781      -1.86186106       3.86208916       25       0.01001063       0.00465490       0.01097856
O        6.74219678       3.39744722       1.76878205       26      -0.00105181      -0.00401284      -0.01500668
O        3.87307641       2.38305998       4.16300350       27      -0.01001063      -0.00718026       0.00952054
O        0.73415500       4.63328941       7.38784144       28      -0.01001063       0.01183516       0.00145801
O        2.40476640      -0.19418418       0.30091434       29       0.01001063      -0.01183516      -0.00145801
O       -3.60327538       1.04165801       5.91997373       30       0.00105181       0.00401284       0.01500668
O        5.29317540       0.85769943       2.08740766       31      -0.01449518      -0.00148385      -0.00548613
O        0.95574503       1.38230440       5.93178555       32      -0.00343274       0.01416080      -0.00548613
O        3.60327537      -1.01098119       5.90226246       33      -0.00105181       0.01500258       0.00402812
O        2.15425400      -0.01704516       3.54346355       34      -0.01449518       0.00549306       0.00145801
O        0.95574503      -2.21273305       7.37013018       35      -0.00343274      -0.01183153      -0.00952054
O       -0.73415501       2.05604524       3.52575228       36       0.01001063       0.00718026      -0.00952054
O       -0.95574503      -0.83042865       5.61315995       37       0.00343274       0.00232927      -0.01500668
O       -0.46435397       5.45008642       1.78649332       38       0.00105181      -0.01500258      -0.00402812
O        4.12358881       5.27975949       5.63087121       39       0.01449518       0.00400921      -0.00402812
40
Lattice="9.416764216744024 7.380635447989271e-10 1.1612475619299442e-14 -3.138921406277194 8.878210445746683 -1.2783697366267065e-09 -3.138921405233428 -4.439105222135274 7.688755787013235" Properties=species:S:1:pos:R:3:spacegroup_kinds:I:1:forces:R:3 spacegroup="P 1" unit_cell=conventional occupancy="_JSON {\"0\": {\"In\": 1}, \"1\": {\"In\": 1}, \"2\": {\"In\": 1}, \"3\": {\"In\": 1}, \"4\": {\"In\": 1}, \"5\": {\"In\": 1}, \"6\": {\"In\": 1}, \"7\": {\"In\": 1}, \"8\": {\"In\": 1}, \"9\": {\"In\": 1}, \"10\": {\"In\": 1}, \"11\": {\"In\": 1}, \"12\": {\"In\": 1}, \"13\": {\"In\": 1}, \"14\": {\"In\": 1}, \"15\": {\"In\": 1}, \"16\": {\"O\": 1}, \"17\": {\"O\": 1}, \"18\": {\"O\": 1}, \"19\": {\"O\": 1}, \"20\": {\"O\": 1}, \"21\": {\"O\": 1}, \"22\": {\"O\": 1}, \"23\": {\"O\": 1}, \"24\": {\"O\": 1}, \"25\": {\"O\": 1}, \"26\": {\"O\": 1}, \"27\": {\"O\": 1}, \"28\": {\"O\": 1}, \"29\": {\"O\": 1}, \"30\": {\"O\": 1}, \"31\": {\"O\": 1}, \"32\": {\"O\": 1}, \"33\": {\"O\": 1}, \"34\": {\"O\": 1}, \"35\": {\"O\": 1}, \"36\": {\"O\": 1}, \"37\": {\"O\": 1}, \"38\": {\"O\": 1}, \"39\": {\"O\": 1}}" n_minim_iter=4 energy=-45149.18844242568 stress="0.026507475558856262 1.8065068657860063e-13 -6.910163290211427e-13 1.8065068657860063e-13 0.02650747556387986 -1.6602239349559479e-12 -6.910163290211427e-13 -1.6602239349559479e-12 0.02650747556050261" free_energy=-45149.18844242568 pbc="T T T"
In      -4.50268742       3.18388081       6.01849036        0       0.00301809      -0.00213412       0.00369640
In       7.64160882       1.25522442       1.67026543        1      -0.00301809       0.00213412      -0.00369640
In       1.36376601      -0.96432819       5.51464332        2      -0.00301809       0.00213412      -0.00369640
In      -1.56946070      -2.21955261       3.84437789        3      -0.00000000      -0.00000000       0.00000000
In      -1.36376601       4.29365711       3.59245437        4       0.00301809      -0.00213412      -0.00369640
In       4.91407680      -3.03843269       5.76656684        5       0.00301809       0.00426823       0.00000000
In      -1.36376601       1.40067253       5.76656684        6       0.00301809       0.00426823       0.00000000
In      -1.77515540       7.47753792       1.92218894        7      -0.00301809      -0.00426823      -0.00000000
In       4.50268742       0.14544811       4.09630141        8      -0.00301809       0.00213412       0.00369640
In      -1.56946070       4.43910522      -0.00000000        9       0.00000000      -0.00000000      -0.00000000
In       4.50268741       6.80410595       0.25192351       10      -0.00301809       0.00213412       0.00369640
In      -1.36376601      -2.36500072       7.43683227       11       0.00301809      -0.00213412      -0.00369640
In       4.50268742       3.03843270       1.92218894       12      -0.00301809      -0.00426823      -0.00000000
In       1.77515539       5.40343342       2.17411246       13       0.00301809      -0.00213412       0.00369640
In       4.70838211       0.00000000      -0.00000000       14      -0.00000000      -0.00000000      -0.00000000
In       1.56946070       2.21955261       3.84437789       15      -0.00000000      -0.00000000      -0.00000000
O        0.98598440       4.45637481       4.14501248       16       0.00837588      -0.00578529       0.00098281
O       -2.15293701       3.58105132       5.60129364       17       0.00837588       0.00374379       0.00451880
O       -0.46403759       2.38681909      -0.01899125       18       0.00086721       0.00905322      -0.00467740
O       -0.98598440      -0.84078432       2.05755034       19      -0.00837588      -0.00204150       0.00550161
O        4.09389323       5.26892494       2.07654158       20       0.00073771      -0.00065900       0.01017902
O        2.18394958       3.05567732       1.75691575       21      -0.00073771      -0.00914479       0.00451880
O        2.18394958       6.65235285       0.31962583       22      -0.00073771       0.00848579       0.00566022
O       -2.40499381       6.30055031       3.82538664       23      -0.00824638      -0.00383535      -0.00467740
O        3.60295899       2.05228614       7.70774703       24      -0.00086721      -0.00905322       0.00467740
O        5.54391522      -1.86144508       3.86336914       25       0.00824638       0.00383535       0.00467740
O        6.74188040       3.39651526       1.76783630       26      -0.00086721       0.00047586      -0.01017902
O        3.87284900       2.38215948       4.16400373       27      -0.00824638      -0.00213307       0.00566022
O        0.73392759       4.63460589       7.38812119       28      -0.00824638       0.00596843      -0.00098281
O        2.40499381      -0.19550066       0.30063459       29       0.00824638      -0.00596843       0.00098281
O       -3.60295900       1.04258997       5.92091948       30       0.00086721      -0.00047586       0.01017902
O        5.29185841       0.85805391       2.08746214       31      -0.00837588      -0.00374379      -0.00451880
O        0.95497182       1.38342791       5.93184004       32       0.00073771       0.00914479      -0.00451880
O        3.60295899      -1.00969617       5.90192823       33      -0.00086721       0.00857736       0.00550161
O        2.15293701      -0.01726959       3.54374330       34      -0.00837588       0.00578529      -0.00098281
O        0.95497182      -2.21324762       7.36912995       35       0.00073771      -0.00848579      -0.00566022
O       -0.73392760       2.05694575       3.52475205       36       0.00824638       0.00213307      -0.00566022
O       -0.95497183      -0.82981971       5.61221420       37      -0.00073771       0.00065900      -0.01017902
O       -0.46403759       5.44880139       1.78682755       38       0.00086721      -0.00857736      -0.00550161
O        4.12490580       5.27988954       5.63120544       39       0.00837588       0.00204150      -0.00550161
40
Lattice="9.41676421674402 7.380635447989267e-10 1.1612475619299434e-14 -3.138921406277193 8.878210445746678 -1.278369736626706e-09 -3.138921405233427 -4.439105222135272 7.688755787013232" Properties=species:S:1:pos:R:3:spacegroup_kinds:I:1:forces:R:3 spacegroup="P 1" unit_cell=conventional occupancy="_JSON {\"0\": {\"In\": 1}, \"1\": {\"In\": 1}, \"2\": {\"In\": 1}, \"3\": {\"In\": 1}, \"4\": {\"In\": 1}, \"5\": {\"In\": 1}, \"6\": {\"In\": 1}, \"7\": {\"In\": 1}, \"8\": {\"In\": 1}, \"9\": {\"In\": 1}, \"10\": {\"In\": 1}, \"11\": {\"In\": 1}, \"12\": {\"In\": 1}, \"13\": {\"In\": 1}, \"14\": {\"In\": 1}, \"15\": {\"In\": 1}, \"16\": {\"O\": 1}, \"17\": {\"O\": 1}, \"18\": {\"O\": 1}, \"19\": {\"O\": 1}, \"20\": {\"O\": 1}, \"21\": {\"O\": 1}, \"22\": {\"O\": 1}, \"23\": {\"O\": 1}, \"24\": {\"O\": 1}, \"25\": {\"O\": 1}, \"26\": {\"O\": 1}, \"27\": {\"O\": 1}, \"28\": {\"O\": 1}, \"29\": {\"O\": 1}, \"30\": {\"O\": 1}, \"31\": {\"O\": 1}, \"32\": {\"O\": 1}, \"33\": {\"O\": 1}, \"34\": {\"O\": 1}, \"35\": {\"O\": 1}, \"36\": {\"O\": 1}, \"37\": {\"O\": 1}, \"38\": {\"O\": 1}, \"39\": {\"O\": 1}}" n_minim_iter=5 energy=-45149.18861687566 stress="0.02653909173665083 2.167972738040017e-12 1.2992766696098884e-12 2.167972738040017e-12 0.026539091733813042 -8.334066403477565e-13 1.2992766696098884e-12 -8.334066403477565e-13 0.026539091736176555" free_energy=-45149.18861687566 pbc="T T T"
In      -4.50270038       3.18388997       6.01847448        0       0.00358563      -0.00253542       0.00439148
In       7.64162178       1.25521525       1.67028130        1      -0.00358563       0.00253542      -0.00439148
In       1.36377897      -0.96433736       5.51465920        2      -0.00358563       0.00253542      -0.00439148
In      -1.56946070      -2.21955261       3.84437789        3       0.00000000       0.00000000       0.00000000
In      -1.36377898       4.29366628       3.59247025        4       0.00358563      -0.00253542      -0.00439148
In       4.91406384      -3.03845102       5.76656684        5       0.00358563       0.00507085      -0.00000000
In      -1.36377898       1.40065420       5.76656684        6       0.00358563       0.00507085       0.00000000
In      -1.77514243       7.47755625       1.92218894        7      -0.00358563      -0.00507085       0.00000000
In       4.50270038       0.14543895       4.09628553        8      -0.00358563       0.00253542       0.00439148
In      -1.56946070       4.43910522      -0.00000000        9       0.00000000      -0.00000000       0.00000000
In       4.50270038       6.80409678       0.25190764       10      -0.00358563       0.00253542       0.00439148
In      -1.36377898      -2.36499155       7.43684814       11       0.00358563      -0.00253542      -0.00439148
In       4.50270038       3.03845103       1.92218894       12      -0.00358563      -0.00507085      -0.00000000
In       1.77514243       5.40344259       2.17409659       13       0.00358563      -0.00253542       0.00439148
In       4.70838211       0.00000000      -0.00000000       14      -0.00000000       0.00000000       0.00000000
In       1.56946070       2.21955261       3.84437789       15       0.00000000       0.00000000       0.00000000
O        0.98723418       4.45596367       4.14490601       16       0.00184821       0.00039032       0.00210695
O       -2.15168723       3.58116468       5.60170293       17       0.00184821       0.00162951      -0.00139151
O       -0.46390175       2.38772012      -0.01994624       18       0.00252039       0.00115421      -0.00056825
O       -0.98723418      -0.84108210       2.05785316       19      -0.00184821       0.00201984       0.00071545
O        4.09358351       5.26867136       2.07779940       20       0.00092025      -0.00234792       0.00128370
O        2.18425929       3.05446122       1.75732504       21      -0.00092025      -0.00228568      -0.00139151
O        2.18425929       6.65331536       0.32047435       22      -0.00092025      -0.00006224       0.00267521
O       -2.40579804       6.30012189       3.82443165       23      -0.00024807      -0.00276098      -0.00056825
O        3.60282315       2.05138510       7.70870202       24      -0.00252039      -0.00115421       0.00056825
O        5.54471944      -1.86101666       3.86432413       25       0.00024807       0.00276098       0.00056825
O        6.74174455       3.39613873       1.76657849       26      -0.00252039       0.00008498      -0.00128370
O        3.87204477       2.38154664       4.16485225       27      -0.00024807       0.00088837       0.00267521
O        0.73312337       4.63564715       7.38822766       28      -0.00024807       0.00187261      -0.00210695
O        2.40579803      -0.19654192       0.30052812       29       0.00024807      -0.00187261       0.00210695
O       -3.60282315       1.04296650       5.92217729       30       0.00252039      -0.00008498       0.00128370
O        5.29060863       0.85794055       2.08705285       31      -0.00184821      -0.00162951       0.00139151
O        0.95466211       1.38464400       5.93143074       32       0.00092025       0.00228568       0.00139151
O        3.60282315      -1.00841860       5.90223105       33      -0.00252039       0.00106923       0.00071545
O        2.15168722      -0.01685844       3.54384977       34      -0.00184821      -0.00039032      -0.00210695
O        0.95466211      -2.21421013       7.36828143       35       0.00092025       0.00006224      -0.00267521
O       -0.73312337       2.05755859       3.52390353       36       0.00024807      -0.00088837      -0.00267521
O       -0.95466211      -0.82956613       5.61095638       37      -0.00092025       0.00234792      -0.00128370
O       -0.46390175       5.44752383       1.78652473       38       0.00252039      -0.00106923      -0.00071545
O        4.12615558       5.28018732       5.63090262       39       0.00184821      -0.00201984      -0.00071545
