40
Lattice="8.535423845971811 6.689798325220169e-10 5.807889928733405e-15 -2.845141282621325 8.04727477549438 -1.1587215978738726e-09 -2.845141281675248 -4.0236373870782005 6.969144387584324" Properties=species:S:1:pos:R:3:spacegroup_kinds:I:1:forces:R:3 spacegroup="P 1" unit_cell=conventional occupancy="_JSON {\"0\": {\"In\": 1}, \"1\": {\"In\": 1}, \"2\": {\"In\": 1}, \"3\": {\"In\": 1}, \"4\": {\"In\": 1}, \"5\": {\"In\": 1}, \"6\": {\"In\": 1}, \"7\": {\"In\": 1}, \"8\": {\"In\": 1}, \"9\": {\"In\": 1}, \"10\": {\"In\": 1}, \"11\": {\"In\": 1}, \"12\": {\"In\": 1}, \"13\": {\"In\": 1}, \"14\": {\"In\": 1}, \"15\": {\"In\": 1}, \"16\": {\"O\": 1}, \"17\": {\"O\": 1}, \"18\": {\"O\": 1}, \"19\": {\"O\": 1}, \"20\": {\"O\": 1}, \"21\": {\"O\": 1}, \"22\": {\"O\": 1}, \"23\": {\"O\": 1}, \"24\": {\"O\": 1}, \"25\": {\"O\": 1}, \"26\": {\"O\": 1}, \"27\": {\"O\": 1}, \"28\": {\"O\": 1}, \"29\": {\"O\": 1}, \"30\": {\"O\": 1}, \"31\": {\"O\": 1}, \"32\": {\"O\": 1}, \"33\": {\"O\": 1}, \"34\": {\"O\": 1}, \"35\": {\"O\": 1}, \"36\": {\"O\": 1}, \"37\": {\"O\": 1}, \"38\": {\"O\": 1}, \"39\": {\"O\": 1}}" n_minim_iter=1 energy=-45150.5928260336 stress="-0.03436028063372831 -3.3146515457770837e-12 -2.464040547804567e-12 -3.3146515457770837e-12 -0.03436028063094838 2.2771912235099994e-14 -2.464040547804567e-12 2.2771912235099994e-14 -0.034360280629255203" free_energy=-45150.5928260336 pbc="T T T"
In      -4.07353624       2.88042510       5.46467396        0      -0.09086877       0.06425392      -0.11129106
In       6.91867752       1.14321229       1.50447042        1       0.09086877      -0.06425392       0.11129106
In       1.22839495      -0.86860640       4.98904261        2       0.09086877      -0.06425392       0.11129106
In      -1.42257064      -2.01181869       3.48457219        3       0.00000000      -0.00000000      -0.00000000
In      -1.22839496       3.88633445       3.24675652        4      -0.09086877       0.06425392       0.11129106
In       4.46188761      -2.74312215       5.22685829        5      -0.09086877      -0.12850785       0.00000000
In      -1.22839496       1.28051524       5.22685829        6      -0.09086877      -0.12850785       0.00000000
In      -1.61674633       6.76675954       1.74228609        7       0.09086877       0.12850785      -0.00000000
In       4.07353624       0.13730295       3.72238787        8       0.09086877      -0.06425392      -0.11129106
In      -1.42257064       4.02363739      -0.00000000        9       0.00000000       0.00000000       0.00000000
In       4.07353624       6.17275903       0.23781567       10       0.09086877      -0.06425392      -0.11129106
In      -1.22839496      -2.14912164       6.73132871       11      -0.09086877       0.06425392       0.11129106
In       4.07353624       2.74312216       1.74228609       12       0.09086877       0.12850785      -0.00000000
In       1.61674632       4.89224379       1.98010177       13      -0.09086877       0.06425392      -0.11129106
In       4.26771192       0.00000000      -0.00000000       14      -0.00000000      -0.00000000       0.00000000
In       1.42257064       2.01181870       3.48457219       15      -0.00000000       0.00000000       0.00000000
O        0.81904126       4.01490304       3.83380582       16      -0.05680071      -0.19853986       0.33886627
O       -2.02610002       3.32454041       5.05980564       17      -0.05680071       0.39273673       0.00250743
O       -0.39433602       2.17070902       0.08915584       18       0.16415699       0.23649604       0.27312424
O       -0.81904127      -0.70783132       1.92446707       19       0.05680071       0.19419686       0.34137370
O        3.80977343       4.78294287       1.83531123       20       0.38920931      -0.03650851       0.06824946
O        1.88050913       2.81386397       1.57523345       21      -0.38920931      -0.07736002       0.00250743
O        1.88050913       5.99271628       0.26007778       22      -0.38920931       0.04085151       0.06574203
O       -2.17800943       5.68366997       3.57372803       23      -0.16825161      -0.23360071       0.27312424
O        3.23947730       1.85292837       6.87998854       24      -0.16415699      -0.23649604      -0.27312424
O        5.02315071      -1.66003258       3.39541635       25       0.16825161       0.23360071      -0.27312424
O        6.08461858       3.17438443       1.64926096       26      -0.16415699       0.35478055      -0.06824946
O        3.51227313       2.26492298       3.74464998       27      -0.16825161       0.35333288       0.06574203
O        0.66713185       4.12231922       6.61991076       28      -0.16825161      -0.11973217      -0.33886627
O        2.17800943      -0.09868183       0.34923363       29       0.16825161       0.11973217       0.33886627
O       -3.23947730       0.84925296       5.31988343       30       0.16415699      -0.35478055       0.06824946
O        4.87124130       0.69909698       1.90933874       31       0.05680071      -0.39273673      -0.00250743
O        0.96463214       1.20977342       5.39391094       32       0.38920931       0.07736002      -0.00250743
O        3.23947730      -1.00367541       5.40903927       33      -0.16415699      -0.11828451       0.34137370
O        2.02610002       0.00873435       3.13533856       34       0.05680071       0.19853986      -0.33886627
O        0.96463214      -1.96907889       6.70906660       35       0.38920931      -0.04085151      -0.06574203
O       -0.66713185       1.75871442       3.22449441       36       0.16825161      -0.35333288      -0.06574203
O       -0.96463215      -0.75930547       5.13383315       37      -0.38920931       0.03650851      -0.06824946
O       -0.39433602       5.02731280       1.56010511       38       0.16415699       0.11828451      -0.34137370
O        3.66418255       4.73146872       5.04467731       39      -0.05680071      -0.19419686      -0.34137370
40
Lattice="8.535423845971813 6.689798325220169e-10 5.807889928733404e-15 -2.8451412826213254 8.04727477549438 -1.1587215978738724e-09 -2.8451412816752484 -4.0236373870782005 6.969144387584323" Properties=species:S:1:pos:R:3:spacegroup_kinds:I:1:forces:R:3 spacegroup="P 1" unit_cell=conventional occupancy="_JSON {\"0\": {\"In\": 1}, \"1\": {\"In\": 1}, \"2\": {\"In\": 1}, \"3\": {\"In\": 1}, \"4\": {\"In\": 1}, \"5\": {\"In\": 1}, \"6\": {\"In\": 1}, \"7\": {\"In\": 1}, \"8\": {\"In\": 1}, \"9\": {\"In\": 1}, \"10\": {\"In\": 1}, \"11\": {\"In\": 1}, \"12\": {\"In\": 1}, \"13\": {\"In\": 1}, \"14\": {\"In\": 1}, \"15\": {\"In\": 1}, \"16\": {\"O\": 1}, \"17\": {\"O\": 1}, \"18\": {\"O\": 1}, \"19\": {\"O\": 1}, \"20\": {\"O\": 1}, \"21\": {\"O\": 1}, \"22\": {\"O\": 1}, \"23\": {\"O\": 1}, \"24\": {\"O\": 1}, \"25\": {\"O\": 1}, \"26\": {\"O\": 1}, \"27\": {\"O\": 1}, \"28\": {\"O\": 1}, \"29\": {\"O\": 1}, \"30\": {\"O\": 1}, \"31\": {\"O\": 1}, \"32\": {\"O\": 1}, \"33\": {\"O\": 1}, \"34\": {\"O\": 1}, \"35\": {\"O\": 1}, \"36\": {\"O\": 1}, \"37\": {\"O\": 1}, \"38\": {\"O\": 1}, \"39\": {\"O\": 1}}" n_minim_iter=2 energy=-45150.67970889379 stress="-0.018879052934454923 2.282316005792579e-12 1.476283336876126e-12 2.282316005792579e-12 -0.018879052929926653 -2.5825878917393316e-13 1.476283336876126e-12 -2.5825878917393316e-13 -0.018879052933299913" free_energy=-45150.67970889379 pbc="T T T"
In      -4.07747933       2.88321328       5.45984468        0       0.13566492      -0.09592959       0.16615492
In       6.92262061       1.14042411       1.50929970        1      -0.13566492       0.09592959      -0.16615492
In       1.23233804      -0.87139459       4.99387189        2      -0.13566492       0.09592959      -0.16615492
In      -1.42257064      -2.01181869       3.48457219        3       0.00000000       0.00000000      -0.00000000
In      -1.23233805       3.88912263       3.25158579        4       0.13566492      -0.09592959      -0.16615492
In       4.45794452      -2.74869852       5.22685829        5       0.13566492       0.19185918      -0.00000000
In      -1.23233805       1.27493887       5.22685829        6       0.13566492       0.19185918       0.00000000
In      -1.61280324       6.77233591       1.74228609        7      -0.13566492      -0.19185918      -0.00000000
In       4.07747932       0.13451476       3.71755859        8      -0.13566492       0.09592959       0.16615492
In      -1.42257064       4.02363739      -0.00000000        9       0.00000000       0.00000000      -0.00000000
In       4.07747932       6.16997084       0.23298639       10      -0.13566492       0.09592959       0.16615492
In      -1.23233805      -2.14633345       6.73615799       11       0.13566492      -0.09592959      -0.16615492
In       4.07747932       2.74869852       1.74228609       12      -0.13566492      -0.19185918       0.00000000
In       1.61280324       4.89503198       1.97527249       13       0.13566492      -0.09592959       0.16615492
In       4.26771192       0.00000000      -0.00000000       14      -0.00000000       0.00000000       0.00000000
In       1.42257064       2.01181870       3.48457219       15       0.00000000      -0.00000000      -0.00000000
O        0.81657650       4.00628776       3.84851032       16      -0.15389775      -0.10569848      -0.03296353
O       -2.02856478       3.34158252       5.05991444       17      -0.15389775       0.02430198       0.10801933
O       -0.38721272       2.18097135       0.10100758       18      -0.12804060       0.00601822       0.13968774
O       -0.81657650      -0.69940450       1.93928038       19       0.15389775      -0.08139650       0.07505580
O        3.82666247       4.78135864       1.83827280       20       0.07421138       0.16204525      -0.06463194
O        1.86362009       2.81050707       1.57534225       21      -0.07421138       0.13699553       0.10801933
O        1.86362009       5.99448896       0.26293054       22      -0.07421138       0.02504972      -0.17265127
O       -2.18531041       5.67353329       3.58557977       23      -0.04835423       0.11871176       0.13968774
O        3.23235400       1.84266605       6.86813680       24       0.12804060      -0.00601822      -0.13968774
O        5.03045169      -1.64989590       3.38356461       25       0.04835423      -0.11871176      -0.13968774
O        6.07749528       3.18977950       1.64629939       26       0.12804060       0.12398224       0.06463194
O        3.50497215       2.28025523       3.74750274       27      -0.04835423       0.06161725      -0.17265127
O        0.65983087       4.11712366       6.60520626       28      -0.04835423      -0.18032901       0.03296353
O        2.18531041      -0.09348626       0.36393812       29       0.04835423       0.18032901      -0.03296353
O       -3.23235400       0.83385789       5.32284499       30      -0.12804060      -0.12398224      -0.06463194
O        4.87370606       0.68205487       1.90922994       31       0.15389775      -0.02430198      -0.10801933
O        0.98152119       1.21313032       5.39380213       32       0.07421138      -0.13699553      -0.10801933
O        3.23235400      -1.00880815       5.42385257       33       0.12804060      -0.11796402       0.07505580
O        2.02856478       0.01734963       3.12063406       34       0.15389775       0.10569848       0.03296353
O        0.98152119      -1.97085157       6.70621384       35       0.07421138      -0.02504972       0.17265127
O       -0.65983087       1.74338217       3.22164165       36       0.04835423      -0.06161725       0.17265127
O       -0.98152119      -0.75772125       5.13087159       37      -0.07421138      -0.16204525       0.06463194
O       -0.38721272       5.03244554       1.54529181       38      -0.12804060       0.11796402      -0.07505580
O        3.66171778       4.72304189       5.02986400       39      -0.15389775       0.08139650      -0.07505580
40
Lattice="8.535423845971815 6.689798325220171e-10 5.807889928733405e-15 -2.845141282621326 8.047274775494383 -1.1587215978738726e-09 -2.845141281675249 -4.023637387078202 6.969144387584325" Properties=species:S:1:pos:R:3:spacegroup_kinds:I:1:forces:R:3 spacegroup="P 1" unit_cell=conventional occupancy="_JSON {\"0\": {\"In\": 1}, \"1\": {\"In\": 1}, \"2\": {\"In\": 1}, \"3\": {\"In\": 1}, \"4\": {\"In\": 1}, \"5\": {\"In\": 1}, \"6\": {\"In\": 1}, \"7\": {\"In\": 1}, \"8\": {\"In\": 1}, \"9\": {\"In\": 1}, \"10\": {\"In\": 1}, \"11\": {\"In\": 1}, \"12\": {\"In\": 1}, \"13\": {\"In\": 1}, \"14\": {\"In\": 1}, \"15\": {\"In\": 1}, \"16\": {\"O\": 1}, \"17\": {\"O\": 1}, \"18\": {\"O\": 1}, \"19\": {\"O\": 1}, \"20\": {\"O\": 1}, \"21\": {\"O\": 1}, \"22\": {\"O\": 1}, \"23\": {\"O\": 1}, \"24\": {\"O\": 1}, \"25\": {\"O\": 1}, \"26\": {\"O\": 1}, \"27\": {\"O\": 1}, \"28\": {\"O\": 1}, \"29\": {\"O\": 1}, \"30\": {\"O\": 1}, \"31\": {\"O\": 1}, \"32\": {\"O\": 1}, \"33\": {\"O\": 1}, \"34\": {\"O\": 1}, \"35\": {\"O\": 1}, \"36\": {\"O\": 1}, \"37\": {\"O\": 1}, \"38\": {\"O\": 1}, \"39\": {\"O\": 1}}" n_minim_iter=3 energy=-45150.71371279841 stress="-0.011605755627656518 -6.340867576946648e-13 -2.372905527170723e-13 -6.340867576946648e-13 -0.011605755629318997 -1.9038181321004873e-12 -2.372905527170723e-13 -1.9038181321004873e-12 -0.011605755631889954" free_energy=-45150.71371279841 pbc="T T T"
In      -4.07279679       2.87990223       5.46557959        0      -0.04082048       0.02886444      -0.04999467
In       6.91793807       1.14373516       1.50356479        1       0.04082048      -0.02886444       0.04999467
In       1.22765551      -0.86808353       4.98813698        2       0.04082048      -0.02886444       0.04999467
In      -1.42257064      -2.01181869       3.48457219        3      -0.00000000      -0.00000000       0.00000000
In      -1.22765551       3.88581158       3.24585088        4      -0.04082048       0.02886444       0.04999467
In       4.46262705      -2.74207642       5.22685829        5      -0.04082048      -0.05772888       0.00000000
In      -1.22765551       1.28156097       5.22685829        6      -0.04082048      -0.05772888       0.00000000
In      -1.61748577       6.76571381       1.74228609        7       0.04082048       0.05772888      -0.00000000
In       4.07279679       0.13782581       3.72329350        8       0.04082048      -0.02886444      -0.04999467
In      -1.42257064       4.02363739      -0.00000000        9      -0.00000000       0.00000000      -0.00000000
In       4.07279679       6.17328189       0.23872130       10       0.04082048      -0.02886444      -0.04999467
In      -1.22765551      -2.14964450       6.73042308       11      -0.04082048       0.02886444       0.04999467
In       4.07279679       2.74207642       1.74228609       12       0.04082048       0.05772888       0.00000000
In       1.61748577       4.89172093       1.98100740       13      -0.04082048       0.02886444      -0.04999467
In       4.26771192       0.00000000      -0.00000000       14       0.00000000      -0.00000000       0.00000000
In       1.42257064       2.01181870       3.48457219       15       0.00000000      -0.00000000      -0.00000000
O        0.80850054       3.99798311       3.85284932       16      -0.11198324       0.10017302       0.01963388
O       -2.03664074       3.34949254       5.06493698       17      -0.11198324      -0.03308307      -0.09656932
O       -0.39027677       2.18533741       0.11216842       18       0.02592527      -0.13059911       0.07233342
O       -0.80850054      -0.69979913       1.94864192       19       0.11198324       0.06708995      -0.07693544
O        3.83681209       4.78819699       1.83647349       20       0.00613673      -0.02532824      -0.14926885
O        1.85347047       2.81548449       1.58036478       21      -0.00613673       0.11660650      -0.09656932
O        1.85347047       5.99634989       0.25610871       22      -0.00613673      -0.14193474      -0.05269953
O       -2.19044812       5.67496675       3.59674061       23       0.13177178       0.01909046       0.07233342
O        3.23541805       1.83829999       6.85697596       24      -0.02592527       0.13059911      -0.07233342
O        5.03558940      -1.65132936       3.37240377       25      -0.13177178      -0.01909046      -0.07233342
O        6.08055933       3.20162810       1.64809869       26      -0.02592527      -0.00265698       0.14926885
O        3.49983444       2.28920407       3.74068090       27       0.13177178       0.05309735      -0.05269953
O        0.65469316       4.10674135       6.60086725       28       0.13177178      -0.07218781      -0.01963388
O        2.19044812      -0.08310396       0.36827713       29      -0.13177178       0.07218781       0.01963388
O       -3.23541805       0.82200929       5.32104569       30       0.02592527       0.00265698      -0.14926885
O        4.88178202       0.67414486       1.90420740       31       0.11198324       0.03308307       0.09656932
O        0.99167081       1.20815290       5.38877960       32       0.00613673      -0.11660650       0.09656932
O        3.23541805      -1.01629069       5.43321411       33      -0.02592527      -0.12794213      -0.07693544
O        2.03664074       0.02565428       3.11629506       34       0.11198324      -0.10017302      -0.01963388
O        0.99167081      -1.97271250       6.71303567       35       0.00613673       0.14193474       0.05269953
O       -0.65469316       1.73443332       3.22846348       36      -0.13177178      -0.05309735       0.05269953
O       -0.99167081      -0.76455960       5.13267089       37      -0.00613673       0.02532824       0.14926885
O       -0.39027677       5.03992809       1.53593027       38       0.02592527       0.12794213       0.07693544
O        3.65364182       4.72343652       5.02050246       39      -0.11198324      -0.06708995       0.07693544
40
Lattice="8.53542384597182 6.689798325220177e-10 5.807889928733416e-15 -2.8451412826213285 8.047274775494389 -1.158721597873874e-09 -2.8451412816752515 -4.023637387078205 6.969144387584333" Properties=species:S:1:pos:R:3:spacegroup_kinds:I:1:forces:R:3 spacegroup="P 1" unit_cell=conventional occupancy="_JSON {\"0\": {\"In\": 1}, \"1\": {\"In\": 1}, \"2\": {\"In\": 1}, \"3\": {\"In\": 1}, \"4\": {\"In\": 1}, \"5\": {\"In\": 1}, \"6\": {\"In\": 1}, \"7\": {\"In\": 1}, \"8\": {\"In\": 1}, \"9\": {\"In\": 1}, \"10\": {\"In\": 1}, \"11\": {\"In\": 1}, \"12\": {\"In\": 1}, \"13\": {\"In\": 1}, \"14\": {\"In\": 1}, \"15\": {\"In\": 1}, \"16\": {\"O\": 1}, \"17\": {\"O\": 1}, \"18\": {\"O\": 1}, \"19\": {\"O\": 1}, \"20\": {\"O\": 1}, \"21\": {\"O\": 1}, \"22\": {\"O\": 1}, \"23\": {\"O\": 1}, \"24\": {\"O\": 1}, \"25\": {\"O\": 1}, \"26\": {\"O\": 1}, \"27\": {\"O\": 1}, \"28\": {\"O\": 1}, \"29\": {\"O\": 1}, \"30\": {\"O\": 1}, \"31\": {\"O\": 1}, \"32\": {\"O\": 1}, \"33\": {\"O\": 1}, \"34\": {\"O\": 1}, \"35\": {\"O\": 1}, \"36\": {\"O\": 1}, \"37\": {\"O\": 1}, \"38\": {\"O\": 1}, \"39\": {\"O\": 1}}" n_minim_iter=4 energy=-45150.7417733693 stress="-0.00912608436596033 1.0130148469588631e-12 -7.275197403291062e-13 1.0130148469588631e-12 -0.009126084363103002 -1.903223275251103e-12 -7.275197403291062e-13 -1.903223275251103e-12 -0.009126084365069863" free_energy=-45150.7417733693 pbc="T T T"
In      -4.07348315       2.88038756       5.46473898        0      -0.00003166       0.00002239      -0.00003878
In       6.91862443       1.14324983       1.50440540        1       0.00003166      -0.00002239       0.00003878
In       1.22834187      -0.86856886       4.98897760        2       0.00003166      -0.00002239       0.00003878
In      -1.42257064      -2.01181869       3.48457219        3       0.00000000      -0.00000000      -0.00000000
In      -1.22834187       3.88629691       3.24669150        4      -0.00003166       0.00002239       0.00003878
In       4.46194069      -2.74304708       5.22685829        5      -0.00003166      -0.00004478       0.00000000
In      -1.22834187       1.28059031       5.22685829        6      -0.00003166      -0.00004478      -0.00000000
In      -1.61679941       6.76668447       1.74228609        7       0.00003166       0.00004478       0.00000000
In       4.07348315       0.13734048       3.72245288        8       0.00003166      -0.00002239      -0.00003878
In      -1.42257064       4.02363739      -0.00000000        9       0.00000000       0.00000000       0.00000000
In       4.07348315       6.17279656       0.23788069       10       0.00003166      -0.00002239      -0.00003878
In      -1.22834187      -2.14915917       6.73126369       11      -0.00003166       0.00002239       0.00003878
In       4.07348315       2.74304708       1.74228609       12       0.00003166       0.00004478       0.00000000
In       1.61679941       4.89220626       1.98016679       13      -0.00003166       0.00002239      -0.00003878
In       4.26771192       0.00000000      -0.00000000       14      -0.00000000       0.00000000      -0.00000000
In       1.42257064       2.01181870       3.48457219       15       0.00000000       0.00000000      -0.00000000
O        0.79763438       4.00182202       3.85529610       16      -0.05533826       0.00571275       0.01189183
O       -2.04750690       3.34969205       5.06038899       17      -0.05533826       0.00744225      -0.01089330
O       -0.39009136       2.17772228       0.12115579       18      -0.00604344      -0.02741446       0.04948029
O       -0.79763439      -0.69576070       1.94654071       19       0.05533826       0.01315500       0.00099852
O        3.84062225       4.78934742       1.82538492       20       0.02546271       0.01541246      -0.04848176
O        1.84966031       2.82566269       1.57581680       21      -0.02546271       0.04969267      -0.01089330
O        1.84966031       5.98732212       0.24956812       22      -0.02546271      -0.03428021      -0.03758846
O       -2.18320671       5.67733031       3.60572798       23       0.02383212       0.01483596       0.04948029
O        3.23523263       1.84591511       6.84798859       24       0.00604344       0.02741446      -0.04948029
O        5.02834799      -1.65369292       3.36341640       25      -0.02383212      -0.01483596      -0.04948029
O        6.08037392       3.20560383       1.65918727       26       0.00604344       0.02914396       0.04848176
O        3.50707585       2.29580558       3.73414031       27       0.02383212       0.03543321      -0.03758846
O        0.66193457       4.09777628       6.59842047       28       0.02383212      -0.05026917      -0.01189182
O        2.18320671      -0.07413889       0.37072391       29      -0.02383212       0.05026917       0.01189182
O       -3.23523264       0.81803356       5.30995711       30      -0.00604344      -0.02914396      -0.04848176
O        4.89264818       0.67394534       1.90875539       31       0.05533826      -0.00744225       0.01089330
O        0.99548097       1.19797470       5.39332758       32       0.02546271      -0.04969267       0.01089330
O        3.23523263      -1.02788155       5.43111291       33       0.00604344      -0.05655842       0.00099852
O        2.04750689       0.02181537       3.11384828       34       0.05533826      -0.00571275      -0.01189182
O        0.99548097      -1.96368473       6.71957627       35       0.02546271       0.03428021       0.03758846
O       -0.66193457       1.72783181       3.23500407       36      -0.02383212      -0.03543321       0.03758846
O       -0.99548097      -0.76571003       5.14375946       37      -0.02546271      -0.01541246       0.04848176
O       -0.39009136       5.05151894       1.53803147       38      -0.00604344       0.05655842      -0.00099852
O        3.64277567       4.71939809       5.02260367       39      -0.05533826      -0.01315500      -0.00099852
40
Lattice="8.535423845971831 6.689798325220182e-10 5.807889928733418e-15 -2.845141282621331 8.047274775494396 -1.1587215978738751e-09 -2.845141281675254 -4.0236373870782085 6.969144387584339" Properties=species:S:1:pos:R:3:spacegroup_kinds:I:1:forces:R:3 spacegroup="P 1" unit_cell=conventional occupancy="_JSON {\"0\": {\"In\": 1}, \"1\": {\"In\": 1}, \"2\": {\"In\": 1}, \"3\": {\"In\": 1}, \"4\": {\"In\": 1}, \"5\": {\"In\": 1}, \"6\": {\"In\": 1}, \"7\": {\"In\": 1}, \"8\": {\"In\": 1}, \"9\": {\"In\": 1}, \"10\": {\"In\": 1}, \"11\": {\"In\": 1}, \"12\": {\"In\": 1}, \"13\": {\"In\": 1}, \"14\": {\"In\": 1}, \"15\": {\"In\": 1}, \"16\": {\"O\": 1}, \"17\": {\"O\": 1}, \"18\": {\"O\": 1}, \"19\": {\"O\": 1}, \"20\": {\"O\": 1}, \"21\": {\"O\": 1}, \"22\": {\"O\": 1}, \"23\": {\"O\": 1}, \"24\": {\"O\": 1}, \"25\": {\"O\": 1}, \"26\": {\"O\": 1}, \"27\": {\"O\": 1}, \"28\": {\"O\": 1}, \"29\": {\"O\": 1}, \"30\": {\"O\": 1}, \"31\": {\"O\": 1}, \"32\": {\"O\": 1}, \"33\": {\"O\": 1}, \"34\": {\"O\": 1}, \"35\": {\"O\": 1}, \"36\": {\"O\": 1}, \"37\": {\"O\": 1}, \"38\": {\"O\": 1}, \"39\": {\"O\": 1}}" n_minim_iter=5 energy=-45150.74983440215 stress="-0.0035965194136517017 -1.2528174330255984e-12 -2.3080045676805876e-14 -1.2528174330255984e-12 -0.0035965194120393023 -2.176498775281144e-12 -2.3080045676805876e-14 -2.176498775281144e-12 -0.0035965194124119053" free_energy=-45150.74983440215 pbc="T T T"
In      -4.07306194       2.88008972       5.46525486        0      -0.00305720       0.00216176      -0.00374428
In       6.91820322       1.14354767       1.50388952        1       0.00305720      -0.00216176       0.00374428
In       1.22792066      -0.86827102       4.98846172        2       0.00305720      -0.00216176       0.00374428
In      -1.42257064      -2.01181869       3.48457219        3       0.00000000       0.00000000      -0.00000000
In      -1.22792066       3.88599907       3.24617562        4      -0.00305720       0.00216176       0.00374428
In       4.46236191      -2.74245139       5.22685829        5      -0.00305720      -0.00432353      -0.00000000
In      -1.22792066       1.28118600       5.22685829        6      -0.00305720      -0.00432353       0.00000000
In      -1.61722063       6.76608878       1.74228609        7       0.00305720       0.00432353      -0.00000000
In       4.07306194       0.13763833       3.72296876        8       0.00305720      -0.00216176      -0.00374428
In      -1.42257064       4.02363739      -0.00000000        9      -0.00000000      -0.00000000       0.00000000
In       4.07306194       6.17309441       0.23839657       10       0.00305720      -0.00216176      -0.00374428
In      -1.22792066      -2.14945702       6.73074782       11      -0.00305720       0.00216176       0.00374428
In       4.07306194       2.74245140       1.74228609       12       0.00305720       0.00432353      -0.00000000
In       1.61722062       4.89190841       1.98068266       13      -0.00305720       0.00216176      -0.00374428
In       4.26771192       0.00000000      -0.00000000       14      -0.00000000      -0.00000000      -0.00000000
In       1.42257064       2.01181870       3.48457219       15      -0.00000000       0.00000000      -0.00000000
O        0.78660956       4.00206431       3.85926891       16      -0.00414993      -0.00246207      -0.00657699
O       -2.05853173       3.35301146       5.05819276       17      -0.00414993      -0.00446481       0.00542071
O       -0.39040830       2.17347007       0.13207399       18      -0.00791403      -0.00180318       0.00081064
O       -0.78660956      -0.69219901       1.94831729       19       0.00414993      -0.00692688      -0.00115628
O        3.84742676       4.79208935       1.81624330       20      -0.00282615       0.00739490      -0.00196692
O        1.84285580       2.83495053       1.57362057       21       0.00282615       0.00540086       0.00542071
O        1.84285580       5.98077621       0.24262273       22       0.00282615       0.00199404      -0.00738764
O       -2.17930334       5.67904653       3.61664618       23      -0.00093795       0.00806248       0.00081064
O        3.23554958       1.85016732       6.83707040       24       0.00791403       0.00180318      -0.00081064
O        5.02444462      -1.65540914       3.35249820       25       0.00093795      -0.00806248      -0.00081064
O        6.08069086       3.21293316       1.66832889       26       0.00791403      -0.00019955       0.00196692
O        3.51097923       2.30440290       3.72719492       27      -0.00093795      -0.00332920      -0.00738764
O        0.66583794       4.08746274       6.59444767       28      -0.00093795      -0.00473328       0.00657699
O        2.17930333      -0.06382534       0.37469672       29       0.00093795       0.00473328      -0.00657699
O       -3.23554958       0.81070423       5.30081549       30      -0.00791403       0.00019955      -0.00196692
O        4.90367300       0.67062593       1.91095162       31       0.00414993       0.00446481      -0.00542071
O        1.00228548       1.18868686       5.39552381       32      -0.00282615      -0.00540086      -0.00542071
O        3.23554958      -1.03946308       5.43288948       33       0.00791403      -0.00160363      -0.00115628
O        2.05853172       0.02157308       3.10987547       34       0.00414993       0.00246207       0.00657699
O        1.00228548      -1.95713882       6.72652166       35      -0.00282615      -0.00199404       0.00738764
O       -0.66583795       1.71923449       3.24194946       36       0.00093795       0.00332920       0.00738764
O       -1.00228548      -0.76845196       5.15290108       37       0.00282615      -0.00739490       0.00196692
O       -0.39040830       5.06310048       1.53625490       38      -0.00791403       0.00160363       0.00115628
O        3.63175084       4.71583640       5.02082709       39      -0.00414993       0.00692688       0.00115628
