--------------------------------------------------------------------------
[[11316,1],0]: A high-performance Open MPI point-to-point messaging module
was unable to find any relevant network interfaces:

Module: OpenFabrics (openib)
  Host: node7

Another transport will be used instead, although this may result in
lower performance.

NOTE: You can disable this warning by setting the MCA parameter
btl_base_warn_component_unused to 0.
--------------------------------------------------------------------------

     Program PWSCF v.6.7MaX starts on 20May2021 at 15:30:43 

     This program is part of the open-source Quantum ESPRESSO suite
     for quantum simulation of materials; please cite
         "P. Giannozzi et al., J. Phys.:Condens. Matter 21 395502 (2009);
         "P. Giannozzi et al., J. Phys.:Condens. Matter 29 465901 (2017);
          URL http://www.quantum-espresso.org", 
     in publications or presentations arising from this work. More details at
     http://www.quantum-espresso.org/quote

     Parallel version (MPI), running on     1 processors

     MPI processes distributed on     1 nodes
     Reading input from pw.inp

     Current dimensions of program PWSCF are:
     Max number of different atomic species (ntypx) = 10
     Max number of k-points (npk) =  40000
     Max angular momentum in pseudopotentials (lmaxx) =  3
     Message from routine cell_base_init:
     DEPRECATED: use true lattice parameter, not A to a.u. conversion factor
     file In.UPF: wavefunction(s)  5S renormalized

     IMPORTANT: XC functional enforced from input :
     Exchange-correlation= PBE
                           (   1   4   3   4   0   0   0)
     Any further DFT definition will be discarded
     Please, verify this is what you really want


     Subspace diagonalization in iterative solution of the eigenvalue problem:
     a serial algorithm will be used

     Message from routine setup:
     using ibrav=0 with symmetry is DISCOURAGED, use correct ibrav instead

     G-vector sticks info
     --------------------
     sticks:   dense  smooth     PW     G-vecs:    dense   smooth      PW
     Sum        1739     867    215                37159    13141    1625



     bravais-lattice index     =            0
     lattice parameter (alat)  =       1.8897  a.u.
     unit-cell volume          =     185.4326 (a.u.)^3
     number of atoms/cell      =            1
     number of atomic types    =            1
     number of electrons       =        13.00
     number of Kohn-Sham states=           26
     kinetic-energy cutoff     =      65.0000  Ry
     charge density cutoff     =     520.0000  Ry
     scf convergence threshold =      7.3E-09
     mixing beta               =       0.5000
     number of iterations used =           10  plain     mixing
     Exchange-correlation= PBE
                           (   1   4   3   4   0   0   0)

     celldm(1)=   1.889726  celldm(2)=   0.000000  celldm(3)=   0.000000
     celldm(4)=   0.000000  celldm(5)=   0.000000  celldm(6)=   0.000000

     crystal axes: (cart. coord. in units of alat)
               a(1) = (   3.430629  -0.000000  -0.000000 )  
               a(2) = (   0.237433   3.422403  -0.000000 )  
               a(3) = (  -1.834031  -1.711201   2.340371 )  

     reciprocal axes: (cart. coord. in units 2 pi/alat)
               b(1) = (  0.291492 -0.020223  0.213641 )  
               b(2) = (  0.000000  0.292192  0.213641 )  
               b(3) = (  0.000000  0.000000  0.427283 )  


     PseudoPot. # 1 for In read from file:
     /home/lls34/programs/QuantumExpresso/pseudopotentials/use_pot/In.UPF
     MD5 check sum: b236236d7d320b3bac520569a9051741
     Pseudo is Ultrasoft + core correction, Zval = 13.0
     Generated using "atomic" code by A. Dal Corso  v.5.0.99 svn rev. 10869
     Using radial grid of 1241 points,  6 beta functions with: 
                l(1) =   0
                l(2) =   0
                l(3) =   1
                l(4) =   1
                l(5) =   2
                l(6) =   2
     Q(r) pseudized with 0 coefficients 


     atomic species   valence    mass     pseudopotential
        In1           13.00   114.81800     In( 1.00)

     Starting magnetic structure 
     atomic species   magnetization
        In1          0.000

      4 Sym. Ops., with inversion, found



   Cartesian axes

     site n.     atom                  positions (alat units)
         1           In1 tau(   1) = (   0.0000000   0.0000000   0.0000000  )

     number of k points=     1  Gaussian smearing, width (Ry)=  0.0073
                       cart. coord. in units 2pi/alat
        k(    1) = (   0.0000000   0.0000000   0.0000000), wk =   1.0000000

     Dense  grid:    37159 G-vectors     FFT dimensions: (  48,  48,  48)

     Smooth grid:    13141 G-vectors     FFT dimensions: (  36,  36,  36)

     Estimated max dynamical RAM per process >     162.01 MB
     Generating pointlists ...
     new r_m :   1.3653 (alat units)  2.5800 (a.u.) for type    1

     Initial potential from superposition of free atoms

     starting charge   12.99628, renormalised to   13.00000
     Starting wfcs are    9 randomized atomic wfcs +   17 random wfcs

     total cpu time spent up to now is        1.7 secs

     Self-consistent Calculation

     iteration #  1     ecut=    65.00 Ry     beta= 0.50
     Davidson diagonalization with overlap
     ethr =  1.00E-02,  avg # of iterations =  9.0

     Threshold (ethr) on eigenvalues was too large:
     Diagonalizing with lowered threshold

     Davidson diagonalization with overlap
     ethr =  1.89E-04,  avg # of iterations =  4.5

     total cpu time spent up to now is        3.6 secs

     total energy              =    -144.66509027 Ry
     estimated scf accuracy    <       0.02468242 Ry

     total magnetization       =     0.00 Bohr mag/cell
     absolute magnetization    =     0.00 Bohr mag/cell

     iteration #  2     ecut=    65.00 Ry     beta= 0.50
     Davidson diagonalization with overlap
     ethr =  1.90E-04,  avg # of iterations =  1.0

     total cpu time spent up to now is        4.5 secs

     total energy              =    -144.66726901 Ry
     estimated scf accuracy    <       0.00990584 Ry

     total magnetization       =     0.00 Bohr mag/cell
     absolute magnetization    =     0.00 Bohr mag/cell

     iteration #  3     ecut=    65.00 Ry     beta= 0.50
     Davidson diagonalization with overlap
     ethr =  7.62E-05,  avg # of iterations =  1.5

     total cpu time spent up to now is        5.4 secs

     total energy              =    -144.66810822 Ry
     estimated scf accuracy    <       0.00246150 Ry

     total magnetization       =     0.00 Bohr mag/cell
     absolute magnetization    =     0.00 Bohr mag/cell

     iteration #  4     ecut=    65.00 Ry     beta= 0.50
     Davidson diagonalization with overlap
     ethr =  1.89E-05,  avg # of iterations =  5.5

     total cpu time spent up to now is        6.5 secs

     total energy              =    -144.66832045 Ry
     estimated scf accuracy    <       0.00023142 Ry

     total magnetization       =     0.01 Bohr mag/cell
     absolute magnetization    =     0.01 Bohr mag/cell

     iteration #  5     ecut=    65.00 Ry     beta= 0.50
     Davidson diagonalization with overlap
     ethr =  1.78E-06,  avg # of iterations =  5.0

     total cpu time spent up to now is        7.5 secs

     total energy              =    -144.66832430 Ry
     estimated scf accuracy    <       0.00002299 Ry

     total magnetization       =     0.10 Bohr mag/cell
     absolute magnetization    =     0.10 Bohr mag/cell

     iteration #  6     ecut=    65.00 Ry     beta= 0.50
     Davidson diagonalization with overlap
     ethr =  1.77E-07,  avg # of iterations =  1.0

     total cpu time spent up to now is        8.4 secs

     total energy              =    -144.66833681 Ry
     estimated scf accuracy    <       0.00000247 Ry

     total magnetization       =     0.02 Bohr mag/cell
     absolute magnetization    =     0.02 Bohr mag/cell

     iteration #  7     ecut=    65.00 Ry     beta= 0.50
     Davidson diagonalization with overlap
     ethr =  1.90E-08,  avg # of iterations =  2.0

     total cpu time spent up to now is        9.4 secs

     total energy              =    -144.66833155 Ry
     estimated scf accuracy    <       0.00001157 Ry

     total magnetization       =     0.01 Bohr mag/cell
     absolute magnetization    =     0.05 Bohr mag/cell

     iteration #  8     ecut=    65.00 Ry     beta= 0.50
     Davidson diagonalization with overlap
     ethr =  1.90E-08,  avg # of iterations =  1.5

     total cpu time spent up to now is       10.3 secs

     total energy              =    -144.66833481 Ry
     estimated scf accuracy    <       0.00000606 Ry

     total magnetization       =     0.00 Bohr mag/cell
     absolute magnetization    =     0.02 Bohr mag/cell

     iteration #  9     ecut=    65.00 Ry     beta= 0.50
     Davidson diagonalization with overlap
     ethr =  1.90E-08,  avg # of iterations =  1.0

     total cpu time spent up to now is       11.3 secs

     total energy              =    -144.66833591 Ry
     estimated scf accuracy    <       0.00000413 Ry

     total magnetization       =     0.00 Bohr mag/cell
     absolute magnetization    =     0.01 Bohr mag/cell

     iteration # 10     ecut=    65.00 Ry     beta= 0.50
     Davidson diagonalization with overlap
     ethr =  1.90E-08,  avg # of iterations =  1.0

     total cpu time spent up to now is       12.3 secs

     total energy              =    -144.66833406 Ry
     estimated scf accuracy    <       0.00000176 Ry

     total magnetization       =    -0.00 Bohr mag/cell
     absolute magnetization    =     0.02 Bohr mag/cell

     iteration # 11     ecut=    65.00 Ry     beta= 0.50
     Davidson diagonalization with overlap
     ethr =  1.35E-08,  avg # of iterations =  1.0

     Magnetic moment per site:
     atom:    1    charge:   11.8380    magn:    0.0001    constr:    0.0000

     total cpu time spent up to now is       13.1 secs

     End of self-consistent calculation

 ------ SPIN UP ------------


          k = 0.0000 0.0000 0.0000 (  1625 PWs)   bands (ev):

    -5.2406  -5.2370  -5.2370  -5.1624  -4.9575   0.2297  19.4856  19.4856
    19.5109  21.2801  23.1302  23.1302  23.1316  24.8353  25.1332  27.7408
    28.0489  28.0489  30.6103  32.8809  44.2982  45.6874  47.0411  47.0411
    52.2430  53.6131

 ------ SPIN DOWN ----------


          k = 0.0000 0.0000 0.0000 (  1625 PWs)   bands (ev):

    -5.2406  -5.2370  -5.2370  -5.1624  -4.9575   0.2297  19.4856  19.4856
    19.5110  21.2801  23.1302  23.1302  23.1316  24.8354  25.1332  27.7408
    28.0489  28.0489  30.6103  32.8809  44.2982  45.6874  47.0411  47.0411
    52.2430  53.6131

     the Fermi energy is    19.4246 ev

!    total energy              =    -144.66833561 Ry
     estimated scf accuracy    <          1.3E-09 Ry
     smearing contrib. (-TS)   =      -0.00769037 Ry
     internal energy E=F+TS    =    -144.66064524 Ry

     The total energy is F=E-TS. E is the sum of the following terms:
     one-electron contribution =     -46.07884022 Ry
     hartree contribution      =      34.60646752 Ry
     xc contribution           =     -47.59937638 Ry
     ewald contribution        =     -85.58889616 Ry

     total magnetization       =     0.00 Bohr mag/cell
     absolute magnetization    =     0.00 Bohr mag/cell

     convergence has been achieved in  11 iterations

     Forces acting on atoms (cartesian axes, Ry/au):

     atom    1 type  1   force =     0.00000000    0.00000000    0.00000000

     Total force =     0.000000     Total SCF correction =     0.000000


     Computing stress (Cartesian axis) and pressure

          total   stress  (Ry/bohr**3)                   (kbar)     P=       73.01
   0.00045588  -0.00010047   0.00000000           67.06      -14.78        0.00
  -0.00010047   0.00046944   0.00000000          -14.78       69.06        0.00
   0.00000000   0.00000000   0.00056355            0.00        0.00       82.90


     Writing output data file ./calc.save/

     init_run     :      1.47s CPU      1.60s WALL (       1 calls)
     electrons    :     10.05s CPU     11.47s WALL (       1 calls)
     forces       :      0.59s CPU      0.64s WALL (       1 calls)
     stress       :      1.56s CPU      1.74s WALL (       1 calls)

     Called by init_run:
     wfcinit      :      0.09s CPU      0.10s WALL (       1 calls)
     potinit      :      0.28s CPU      0.30s WALL (       1 calls)
     hinit0       :      0.91s CPU      0.94s WALL (       1 calls)

     Called by electrons:
     c_bands      :      2.22s CPU      2.23s WALL (      12 calls)
     sum_band     :      3.49s CPU      4.11s WALL (      12 calls)
     v_of_rho     :      2.66s CPU      2.80s WALL (      12 calls)
     newd         :      1.75s CPU      2.44s WALL (      12 calls)
     mix_rho      :      0.18s CPU      0.18s WALL (      12 calls)

     Called by c_bands:
     init_us_2    :      0.04s CPU      0.04s WALL (      54 calls)
     cegterg      :      2.17s CPU      2.18s WALL (      24 calls)

     Called by *egterg:
     cdiaghg      :      0.07s CPU      0.08s WALL (      90 calls)
     h_psi        :      1.91s CPU      1.92s WALL (      94 calls)
     s_psi        :      0.02s CPU      0.02s WALL (      94 calls)
     g_psi        :      0.01s CPU      0.01s WALL (      68 calls)

     Called by h_psi:
     h_psi:calbec :      0.03s CPU      0.03s WALL (      94 calls)
     vloc_psi     :      1.84s CPU      1.85s WALL (      94 calls)
     add_vuspsi   :      0.02s CPU      0.02s WALL (      94 calls)

     General routines
     calbec       :      0.05s CPU      0.05s WALL (     128 calls)
     fft          :      0.70s CPU      0.73s WALL (     340 calls)
     ffts         :      0.05s CPU      0.05s WALL (      48 calls)
     fftw         :      1.91s CPU      1.92s WALL (    3678 calls)
     interpolate  :      0.10s CPU      0.10s WALL (      24 calls)

     Parallel routines

     PWSCF        :     13.76s CPU     15.78s WALL


   This run was terminated on:  15:30:59  20May2021            

=------------------------------------------------------------------------------=
   JOB DONE.
=------------------------------------------------------------------------------=
# python dir           : /home/lls34/GitHub/10_QE_Interface/ase-espresso/espresso
# espresso dir         : /opt/womble/qe-6.7/bin
# pseudo dir           : /home/lls34/programs/QuantumExpresso/pseudopotentials/use_pot
# ase-espresso version : 0.3.3


--------------------------------------------------------------------------
[[11279,1],0]: A high-performance Open MPI point-to-point messaging module
was unable to find any relevant network interfaces:

Module: OpenFabrics (openib)
  Host: node7

Another transport will be used instead, although this may result in
lower performance.

NOTE: You can disable this warning by setting the MCA parameter
btl_base_warn_component_unused to 0.
--------------------------------------------------------------------------

     Program PWSCF v.6.7MaX starts on 20May2021 at 15:30:59 

     This program is part of the open-source Quantum ESPRESSO suite
     for quantum simulation of materials; please cite
         "P. Giannozzi et al., J. Phys.:Condens. Matter 21 395502 (2009);
         "P. Giannozzi et al., J. Phys.:Condens. Matter 29 465901 (2017);
          URL http://www.quantum-espresso.org", 
     in publications or presentations arising from this work. More details at
     http://www.quantum-espresso.org/quote

     Parallel version (MPI), running on     1 processors

     MPI processes distributed on     1 nodes
     Reading input from pw.inp

     Current dimensions of program PWSCF are:
     Max number of different atomic species (ntypx) = 10
     Max number of k-points (npk) =  40000
     Max angular momentum in pseudopotentials (lmaxx) =  3
     Message from routine cell_base_init:
     DEPRECATED: use true lattice parameter, not A to a.u. conversion factor
     file In.UPF: wavefunction(s)  5S renormalized

     IMPORTANT: XC functional enforced from input :
     Exchange-correlation= PBE
                           (   1   4   3   4   0   0   0)
     Any further DFT definition will be discarded
     Please, verify this is what you really want


     Subspace diagonalization in iterative solution of the eigenvalue problem:
     a serial algorithm will be used

     Message from routine setup:
     using ibrav=0 with symmetry is DISCOURAGED, use correct ibrav instead

     G-vector sticks info
     --------------------
     sticks:   dense  smooth     PW     G-vecs:    dense   smooth      PW
     Sum        1783     887    231                39135    13845    1761



     bravais-lattice index     =            0
     lattice parameter (alat)  =       1.8897  a.u.
     unit-cell volume          =     195.6551 (a.u.)^3
     number of atoms/cell      =            1
     number of atomic types    =            1
     number of electrons       =        13.00
     number of Kohn-Sham states=           26
     kinetic-energy cutoff     =      65.0000  Ry
     charge density cutoff     =     520.0000  Ry
     scf convergence threshold =      7.3E-09
     mixing beta               =       0.5000
     number of iterations used =           10  plain     mixing
     Exchange-correlation= PBE
                           (   1   4   3   4   0   0   0)

     celldm(1)=   1.889726  celldm(2)=   0.000000  celldm(3)=   0.000000
     celldm(4)=   0.000000  celldm(5)=   0.000000  celldm(6)=   0.000000

     crystal axes: (cart. coord. in units of alat)
               a(1) = (   3.487467  -0.012636  -0.000000 )  
               a(2) = (   0.228761   3.479979  -0.000000 )  
               a(3) = (  -1.858114  -1.733672   2.388385 )  

     reciprocal axes: (cart. coord. in units 2 pi/alat)
               b(1) = (  0.286673 -0.018845  0.209346 )  
               b(2) = (  0.001041  0.287290  0.209346 )  
               b(3) = (  0.000000  0.000000  0.418693 )  


     PseudoPot. # 1 for In read from file:
     /home/lls34/programs/QuantumExpresso/pseudopotentials/use_pot/In.UPF
     MD5 check sum: b236236d7d320b3bac520569a9051741
     Pseudo is Ultrasoft + core correction, Zval = 13.0
     Generated using "atomic" code by A. Dal Corso  v.5.0.99 svn rev. 10869
     Using radial grid of 1241 points,  6 beta functions with: 
                l(1) =   0
                l(2) =   0
                l(3) =   1
                l(4) =   1
                l(5) =   2
                l(6) =   2
     Q(r) pseudized with 0 coefficients 


     atomic species   valence    mass     pseudopotential
        In1           13.00   114.81800     In( 1.00)

     Starting magnetic structure 
     atomic species   magnetization
        In1          0.000

      4 Sym. Ops., with inversion, found



   Cartesian axes

     site n.     atom                  positions (alat units)
         1           In1 tau(   1) = (   0.0000000   0.0000000   0.0000000  )

     number of k points=     1  Gaussian smearing, width (Ry)=  0.0073
                       cart. coord. in units 2pi/alat
        k(    1) = (   0.0000000   0.0000000   0.0000000), wk =   1.0000000

     Dense  grid:    39135 G-vectors     FFT dimensions: (  48,  48,  48)

     Smooth grid:    13845 G-vectors     FFT dimensions: (  36,  36,  36)

     Estimated max dynamical RAM per process >     169.90 MB
     Generating pointlists ...
     new r_m :   1.3933 (alat units)  2.6329 (a.u.) for type    1

     Initial potential from superposition of free atoms

     starting charge   12.99628, renormalised to   13.00000
     Starting wfcs are    9 randomized atomic wfcs +   17 random wfcs

     total cpu time spent up to now is        1.4 secs

     Self-consistent Calculation

     iteration #  1     ecut=    65.00 Ry     beta= 0.50
     Davidson diagonalization with overlap
     ethr =  1.00E-02,  avg # of iterations =  9.5

     Threshold (ethr) on eigenvalues was too large:
     Diagonalizing with lowered threshold

     Davidson diagonalization with overlap
     ethr =  1.62E-04,  avg # of iterations =  2.5

     total cpu time spent up to now is        3.2 secs

     total energy              =    -144.66991589 Ry
     estimated scf accuracy    <       0.02118025 Ry

     total magnetization       =    -0.00 Bohr mag/cell
     absolute magnetization    =     0.00 Bohr mag/cell

     iteration #  2     ecut=    65.00 Ry     beta= 0.50
     Davidson diagonalization with overlap
     ethr =  1.63E-04,  avg # of iterations =  1.0

     total cpu time spent up to now is        4.2 secs

     total energy              =    -144.67172704 Ry
     estimated scf accuracy    <       0.01409884 Ry

     total magnetization       =    -0.00 Bohr mag/cell
     absolute magnetization    =     0.00 Bohr mag/cell

     iteration #  3     ecut=    65.00 Ry     beta= 0.50
     Davidson diagonalization with overlap
     ethr =  1.08E-04,  avg # of iterations =  1.0

     total cpu time spent up to now is        5.1 secs

     total energy              =    -144.67281062 Ry
     estimated scf accuracy    <       0.00191181 Ry

     total magnetization       =    -0.00 Bohr mag/cell
     absolute magnetization    =     0.00 Bohr mag/cell

     iteration #  4     ecut=    65.00 Ry     beta= 0.50
     Davidson diagonalization with overlap
     ethr =  1.47E-05,  avg # of iterations =  3.0

     total cpu time spent up to now is        6.1 secs

     total energy              =    -144.67298413 Ry
     estimated scf accuracy    <       0.00014152 Ry

     total magnetization       =    -0.01 Bohr mag/cell
     absolute magnetization    =     0.01 Bohr mag/cell

     iteration #  5     ecut=    65.00 Ry     beta= 0.50
     Davidson diagonalization with overlap
     ethr =  1.09E-06,  avg # of iterations =  7.5

     total cpu time spent up to now is        7.1 secs

     total energy              =    -144.67299495 Ry
     estimated scf accuracy    <       0.00000888 Ry

     total magnetization       =    -0.06 Bohr mag/cell
     absolute magnetization    =     0.06 Bohr mag/cell

     iteration #  6     ecut=    65.00 Ry     beta= 0.50
     Davidson diagonalization with overlap
     ethr =  6.83E-08,  avg # of iterations =  1.0

     total cpu time spent up to now is        8.1 secs

     total energy              =    -144.67299548 Ry
     estimated scf accuracy    <       0.00000231 Ry

     total magnetization       =    -0.03 Bohr mag/cell
     absolute magnetization    =     0.03 Bohr mag/cell

     iteration #  7     ecut=    65.00 Ry     beta= 0.50
     Davidson diagonalization with overlap
     ethr =  1.77E-08,  avg # of iterations =  1.0

     total cpu time spent up to now is        9.1 secs

     total energy              =    -144.67300166 Ry
     estimated scf accuracy    <       0.00000223 Ry

     total magnetization       =    -0.00 Bohr mag/cell
     absolute magnetization    =     0.02 Bohr mag/cell

     iteration #  8     ecut=    65.00 Ry     beta= 0.50
     Davidson diagonalization with overlap
     ethr =  1.71E-08,  avg # of iterations =  1.0

     total cpu time spent up to now is       10.1 secs

     total energy              =    -144.67298942 Ry
     estimated scf accuracy    <       0.00000704 Ry

     total magnetization       =    -0.01 Bohr mag/cell
     absolute magnetization    =     0.04 Bohr mag/cell

     iteration #  9     ecut=    65.00 Ry     beta= 0.50
     Davidson diagonalization with overlap
     ethr =  1.71E-08,  avg # of iterations =  1.5

     total cpu time spent up to now is       11.1 secs

     total energy              =    -144.67299712 Ry
     estimated scf accuracy    <       0.00000177 Ry

     total magnetization       =     0.00 Bohr mag/cell
     absolute magnetization    =     0.01 Bohr mag/cell

     iteration # 10     ecut=    65.00 Ry     beta= 0.50
     Davidson diagonalization with overlap
     ethr =  1.36E-08,  avg # of iterations =  1.0

     total cpu time spent up to now is       12.0 secs

     total energy              =    -144.67299527 Ry
     estimated scf accuracy    <       0.00000154 Ry

     total magnetization       =     0.01 Bohr mag/cell
     absolute magnetization    =     0.02 Bohr mag/cell

     iteration # 11     ecut=    65.00 Ry     beta= 0.50
     Davidson diagonalization with overlap
     ethr =  1.18E-08,  avg # of iterations =  1.0

     total cpu time spent up to now is       13.0 secs

     total energy              =    -144.67299657 Ry
     estimated scf accuracy    <       0.00000003 Ry

     total magnetization       =     0.00 Bohr mag/cell
     absolute magnetization    =     0.00 Bohr mag/cell

     iteration # 12     ecut=    65.00 Ry     beta= 0.50
     Davidson diagonalization with overlap
     ethr =  1.93E-10,  avg # of iterations =  2.0

     Magnetic moment per site:
     atom:    1    charge:   11.8970    magn:    0.0001    constr:    0.0000

     total cpu time spent up to now is       14.0 secs

     End of self-consistent calculation

 ------ SPIN UP ------------


          k = 0.0000 0.0000 0.0000 (  1761 PWs)   bands (ev):

    -5.8682  -5.8651  -5.8651  -5.7915  -5.6320  -0.1139  18.3141  18.3141
    18.3342  20.4384  21.9953  22.0286  22.0286  23.8199  23.9828  26.5724
    26.7340  26.7340  29.0749  31.1374  43.6818  44.0898  45.2668  45.2668
    50.2732  51.5176

 ------ SPIN DOWN ----------


          k = 0.0000 0.0000 0.0000 (  1761 PWs)   bands (ev):

    -5.8682  -5.8652  -5.8651  -5.7915  -5.6320  -0.1139  18.3142  18.3142
    18.3342  20.4383  21.9953  22.0286  22.0286  23.8198  23.9828  26.5725
    26.7340  26.7340  29.0750  31.1374  43.6818  44.0898  45.2668  45.2668
    50.2733  51.5176

     the Fermi energy is    18.2518 ev

!    total energy              =    -144.67299667 Ry
     estimated scf accuracy    <          5.5E-09 Ry
     smearing contrib. (-TS)   =      -0.00772657 Ry
     internal energy E=F+TS    =    -144.66527009 Ry

     The total energy is F=E-TS. E is the sum of the following terms:
     one-electron contribution =     -48.52436027 Ry
     hartree contribution      =      35.51273227 Ry
     xc contribution           =     -47.58002922 Ry
     ewald contribution        =     -84.07361287 Ry

     total magnetization       =     0.00 Bohr mag/cell
     absolute magnetization    =     0.00 Bohr mag/cell

     convergence has been achieved in  12 iterations

     Forces acting on atoms (cartesian axes, Ry/au):

     atom    1 type  1   force =     0.00000000    0.00000000    0.00000000

     Total force =     0.000000     Total SCF correction =     0.000000


     Computing stress (Cartesian axis) and pressure

          total   stress  (Ry/bohr**3)                   (kbar)     P=       53.92
   0.00033960  -0.00006698   0.00000000           49.96       -9.85        0.00
  -0.00006698   0.00034873   0.00000000           -9.85       51.30        0.00
   0.00000000   0.00000000   0.00041133            0.00        0.00       60.51


     Writing output data file ./calc.save/

     init_run     :      1.22s CPU      1.32s WALL (       1 calls)
     electrons    :     10.98s CPU     12.62s WALL (       1 calls)
     forces       :      0.66s CPU      0.74s WALL (       1 calls)
     stress       :      1.64s CPU      1.84s WALL (       1 calls)

     Called by init_run:
     wfcinit      :      0.07s CPU      0.07s WALL (       1 calls)
     potinit      :      0.31s CPU      0.33s WALL (       1 calls)
     hinit0       :      0.71s CPU      0.71s WALL (       1 calls)

     Called by electrons:
     c_bands      :      2.29s CPU      2.32s WALL (      13 calls)
     sum_band     :      3.83s CPU      4.58s WALL (      13 calls)
     v_of_rho     :      2.92s CPU      3.07s WALL (      13 calls)
     newd         :      1.96s CPU      2.67s WALL (      13 calls)
     mix_rho      :      0.20s CPU      0.21s WALL (      13 calls)

     Called by c_bands:
     init_us_2    :      0.04s CPU      0.04s WALL (      58 calls)
     cegterg      :      2.23s CPU      2.26s WALL (      26 calls)

     Called by *egterg:
     cdiaghg      :      0.07s CPU      0.07s WALL (      90 calls)
     h_psi        :      1.95s CPU      1.96s WALL (      94 calls)
     s_psi        :      0.02s CPU      0.02s WALL (      94 calls)
     g_psi        :      0.01s CPU      0.01s WALL (      66 calls)

     Called by h_psi:
     h_psi:calbec :      0.03s CPU      0.03s WALL (      94 calls)
     vloc_psi     :      1.88s CPU      1.89s WALL (      94 calls)
     add_vuspsi   :      0.02s CPU      0.02s WALL (      94 calls)

     General routines
     calbec       :      0.05s CPU      0.05s WALL (     130 calls)
     fft          :      0.76s CPU      0.78s WALL (     365 calls)
     ffts         :      0.06s CPU      0.06s WALL (      52 calls)
     fftw         :      1.97s CPU      1.99s WALL (    3940 calls)
     interpolate  :      0.10s CPU      0.11s WALL (      26 calls)

     Parallel routines

     PWSCF        :     14.60s CPU     16.85s WALL


   This run was terminated on:  15:31:16  20May2021            

=------------------------------------------------------------------------------=
   JOB DONE.
=------------------------------------------------------------------------------=
# python dir           : /home/lls34/GitHub/10_QE_Interface/ase-espresso/espresso
# espresso dir         : /opt/womble/qe-6.7/bin
# pseudo dir           : /home/lls34/programs/QuantumExpresso/pseudopotentials/use_pot
# ase-espresso version : 0.3.3


--------------------------------------------------------------------------
[[11292,1],0]: A high-performance Open MPI point-to-point messaging module
was unable to find any relevant network interfaces:

Module: OpenFabrics (openib)
  Host: node7

Another transport will be used instead, although this may result in
lower performance.

NOTE: You can disable this warning by setting the MCA parameter
btl_base_warn_component_unused to 0.
--------------------------------------------------------------------------

     Program PWSCF v.6.7MaX starts on 20May2021 at 15:31:16 

     This program is part of the open-source Quantum ESPRESSO suite
     for quantum simulation of materials; please cite
         "P. Giannozzi et al., J. Phys.:Condens. Matter 21 395502 (2009);
         "P. Giannozzi et al., J. Phys.:Condens. Matter 29 465901 (2017);
          URL http://www.quantum-espresso.org", 
     in publications or presentations arising from this work. More details at
     http://www.quantum-espresso.org/quote

     Parallel version (MPI), running on     1 processors

     MPI processes distributed on     1 nodes
     Reading input from pw.inp

     Current dimensions of program PWSCF are:
     Max number of different atomic species (ntypx) = 10
     Max number of k-points (npk) =  40000
     Max angular momentum in pseudopotentials (lmaxx) =  3
     Message from routine cell_base_init:
     DEPRECATED: use true lattice parameter, not A to a.u. conversion factor
     file In.UPF: wavefunction(s)  5S renormalized

     IMPORTANT: XC functional enforced from input :
     Exchange-correlation= PBE
                           (   1   4   3   4   0   0   0)
     Any further DFT definition will be discarded
     Please, verify this is what you really want


     Subspace diagonalization in iterative solution of the eigenvalue problem:
     a serial algorithm will be used

     Message from routine setup:
     using ibrav=0 with symmetry is DISCOURAGED, use correct ibrav instead

     G-vector sticks info
     --------------------
     sticks:   dense  smooth     PW     G-vecs:    dense   smooth      PW
     Sum        1783     887    231                39135    13845    1761



     bravais-lattice index     =            0
     lattice parameter (alat)  =       1.8897  a.u.
     unit-cell volume          =     195.6551 (a.u.)^3
     number of atoms/cell      =            1
     number of atomic types    =            1
     number of electrons       =        13.00
     number of Kohn-Sham states=           26
     kinetic-energy cutoff     =      65.0000  Ry
     charge density cutoff     =     520.0000  Ry
     scf convergence threshold =      7.3E-09
     mixing beta               =       0.5000
     number of iterations used =           10  plain     mixing
     Exchange-correlation= PBE
                           (   1   4   3   4   0   0   0)

     celldm(1)=   1.889726  celldm(2)=   0.000000  celldm(3)=   0.000000
     celldm(4)=   0.000000  celldm(5)=   0.000000  celldm(6)=   0.000000

     crystal axes: (cart. coord. in units of alat)
               a(1) = (   3.487467  -0.012636  -0.000000 )  
               a(2) = (   0.228761   3.479979  -0.000000 )  
               a(3) = (  -1.858114  -1.733672   2.388385 )  

     reciprocal axes: (cart. coord. in units 2 pi/alat)
               b(1) = (  0.286673 -0.018845  0.209346 )  
               b(2) = (  0.001041  0.287290  0.209346 )  
               b(3) = (  0.000000  0.000000  0.418693 )  


     PseudoPot. # 1 for In read from file:
     /home/lls34/programs/QuantumExpresso/pseudopotentials/use_pot/In.UPF
     MD5 check sum: b236236d7d320b3bac520569a9051741
     Pseudo is Ultrasoft + core correction, Zval = 13.0
     Generated using "atomic" code by A. Dal Corso  v.5.0.99 svn rev. 10869
     Using radial grid of 1241 points,  6 beta functions with: 
                l(1) =   0
                l(2) =   0
                l(3) =   1
                l(4) =   1
                l(5) =   2
                l(6) =   2
     Q(r) pseudized with 0 coefficients 


     atomic species   valence    mass     pseudopotential
        In1           13.00   114.81800     In( 1.00)

     Starting magnetic structure 
     atomic species   magnetization
        In1          0.000

      4 Sym. Ops., with inversion, found



   Cartesian axes

     site n.     atom                  positions (alat units)
         1           In1 tau(   1) = (   0.0000000   0.0000000   0.0000000  )

     number of k points=     1  Gaussian smearing, width (Ry)=  0.0073
                       cart. coord. in units 2pi/alat
        k(    1) = (   0.0000000   0.0000000   0.0000000), wk =   1.0000000

     Dense  grid:    39135 G-vectors     FFT dimensions: (  48,  48,  48)

     Smooth grid:    13845 G-vectors     FFT dimensions: (  36,  36,  36)

     Estimated max dynamical RAM per process >     169.90 MB
     Generating pointlists ...
     new r_m :   1.3933 (alat units)  2.6329 (a.u.) for type    1

     Initial potential from superposition of free atoms

     starting charge   12.99628, renormalised to   13.00000
     Starting wfcs are    9 randomized atomic wfcs +   17 random wfcs

     total cpu time spent up to now is        1.3 secs

     Self-consistent Calculation

     iteration #  1     ecut=    65.00 Ry     beta= 0.50
     Davidson diagonalization with overlap
     ethr =  1.00E-02,  avg # of iterations =  9.5

     Threshold (ethr) on eigenvalues was too large:
     Diagonalizing with lowered threshold

     Davidson diagonalization with overlap
     ethr =  1.62E-04,  avg # of iterations =  2.5

     total cpu time spent up to now is        3.1 secs

     total energy              =    -144.66991589 Ry
     estimated scf accuracy    <       0.02118025 Ry

     total magnetization       =    -0.00 Bohr mag/cell
     absolute magnetization    =     0.00 Bohr mag/cell

     iteration #  2     ecut=    65.00 Ry     beta= 0.50
     Davidson diagonalization with overlap
     ethr =  1.63E-04,  avg # of iterations =  1.0

     total cpu time spent up to now is        4.1 secs

     total energy              =    -144.67172704 Ry
     estimated scf accuracy    <       0.01409884 Ry

     total magnetization       =    -0.00 Bohr mag/cell
     absolute magnetization    =     0.00 Bohr mag/cell

     iteration #  3     ecut=    65.00 Ry     beta= 0.50
     Davidson diagonalization with overlap
     ethr =  1.08E-04,  avg # of iterations =  1.0

     total cpu time spent up to now is        5.0 secs

     total energy              =    -144.67281062 Ry
     estimated scf accuracy    <       0.00191181 Ry

     total magnetization       =    -0.00 Bohr mag/cell
     absolute magnetization    =     0.00 Bohr mag/cell

     iteration #  4     ecut=    65.00 Ry     beta= 0.50
     Davidson diagonalization with overlap
     ethr =  1.47E-05,  avg # of iterations =  3.0

     total cpu time spent up to now is        6.0 secs

     total energy              =    -144.67298413 Ry
     estimated scf accuracy    <       0.00014152 Ry

     total magnetization       =    -0.01 Bohr mag/cell
     absolute magnetization    =     0.01 Bohr mag/cell

     iteration #  5     ecut=    65.00 Ry     beta= 0.50
     Davidson diagonalization with overlap
     ethr =  1.09E-06,  avg # of iterations =  7.5

     total cpu time spent up to now is        7.1 secs

     total energy              =    -144.67299495 Ry
     estimated scf accuracy    <       0.00000888 Ry

     total magnetization       =    -0.06 Bohr mag/cell
     absolute magnetization    =     0.06 Bohr mag/cell

     iteration #  6     ecut=    65.00 Ry     beta= 0.50
     Davidson diagonalization with overlap
     ethr =  6.83E-08,  avg # of iterations =  1.0

     total cpu time spent up to now is        8.2 secs

     total energy              =    -144.67299548 Ry
     estimated scf accuracy    <       0.00000231 Ry

     total magnetization       =    -0.03 Bohr mag/cell
     absolute magnetization    =     0.03 Bohr mag/cell

     iteration #  7     ecut=    65.00 Ry     beta= 0.50
     Davidson diagonalization with overlap
     ethr =  1.77E-08,  avg # of iterations =  1.0

     total cpu time spent up to now is        9.1 secs

     total energy              =    -144.67300166 Ry
     estimated scf accuracy    <       0.00000223 Ry

     total magnetization       =    -0.00 Bohr mag/cell
     absolute magnetization    =     0.02 Bohr mag/cell

     iteration #  8     ecut=    65.00 Ry     beta= 0.50
     Davidson diagonalization with overlap
     ethr =  1.71E-08,  avg # of iterations =  1.0

     total cpu time spent up to now is       10.1 secs

     total energy              =    -144.67298942 Ry
     estimated scf accuracy    <       0.00000704 Ry

     total magnetization       =    -0.01 Bohr mag/cell
     absolute magnetization    =     0.04 Bohr mag/cell

     iteration #  9     ecut=    65.00 Ry     beta= 0.50
     Davidson diagonalization with overlap
     ethr =  1.71E-08,  avg # of iterations =  1.5

     total cpu time spent up to now is       11.1 secs

     total energy              =    -144.67299712 Ry
     estimated scf accuracy    <       0.00000177 Ry

     total magnetization       =     0.00 Bohr mag/cell
     absolute magnetization    =     0.01 Bohr mag/cell

     iteration # 10     ecut=    65.00 Ry     beta= 0.50
     Davidson diagonalization with overlap
     ethr =  1.36E-08,  avg # of iterations =  1.0

     total cpu time spent up to now is       12.1 secs

     total energy              =    -144.67299527 Ry
     estimated scf accuracy    <       0.00000154 Ry

     total magnetization       =     0.01 Bohr mag/cell
     absolute magnetization    =     0.02 Bohr mag/cell

     iteration # 11     ecut=    65.00 Ry     beta= 0.50
     Davidson diagonalization with overlap
     ethr =  1.18E-08,  avg # of iterations =  1.0

     total cpu time spent up to now is       13.0 secs

     total energy              =    -144.67299657 Ry
     estimated scf accuracy    <       0.00000003 Ry

     total magnetization       =     0.00 Bohr mag/cell
     absolute magnetization    =     0.00 Bohr mag/cell

     iteration # 12     ecut=    65.00 Ry     beta= 0.50
     Davidson diagonalization with overlap
     ethr =  1.93E-10,  avg # of iterations =  2.0

     Magnetic moment per site:
     atom:    1    charge:   11.8970    magn:    0.0001    constr:    0.0000

     total cpu time spent up to now is       14.0 secs

     End of self-consistent calculation

 ------ SPIN UP ------------


          k = 0.0000 0.0000 0.0000 (  1761 PWs)   bands (ev):

    -5.8682  -5.8651  -5.8651  -5.7915  -5.6320  -0.1139  18.3141  18.3141
    18.3342  20.4384  21.9953  22.0286  22.0286  23.8199  23.9828  26.5724
    26.7340  26.7340  29.0749  31.1374  43.6818  44.0898  45.2668  45.2668
    50.2732  51.5176

 ------ SPIN DOWN ----------


          k = 0.0000 0.0000 0.0000 (  1761 PWs)   bands (ev):

    -5.8682  -5.8652  -5.8651  -5.7915  -5.6320  -0.1139  18.3142  18.3142
    18.3342  20.4383  21.9953  22.0286  22.0286  23.8198  23.9828  26.5725
    26.7340  26.7340  29.0750  31.1374  43.6818  44.0898  45.2668  45.2668
    50.2733  51.5176

     the Fermi energy is    18.2518 ev

!    total energy              =    -144.67299667 Ry
     estimated scf accuracy    <          5.5E-09 Ry
     smearing contrib. (-TS)   =      -0.00772657 Ry
     internal energy E=F+TS    =    -144.66527009 Ry

     The total energy is F=E-TS. E is the sum of the following terms:
     one-electron contribution =     -48.52436027 Ry
     hartree contribution      =      35.51273227 Ry
     xc contribution           =     -47.58002922 Ry
     ewald contribution        =     -84.07361287 Ry

     total magnetization       =     0.00 Bohr mag/cell
     absolute magnetization    =     0.00 Bohr mag/cell

     convergence has been achieved in  12 iterations

     Forces acting on atoms (cartesian axes, Ry/au):

     atom    1 type  1   force =     0.00000000    0.00000000    0.00000000

     Total force =     0.000000     Total SCF correction =     0.000000


     Computing stress (Cartesian axis) and pressure

          total   stress  (Ry/bohr**3)                   (kbar)     P=       53.92
   0.00033960  -0.00006698   0.00000000           49.96       -9.85        0.00
  -0.00006698   0.00034873   0.00000000           -9.85       51.30        0.00
   0.00000000   0.00000000   0.00041133            0.00        0.00       60.51


     Writing output data file ./calc.save/

     init_run     :      1.13s CPU      1.21s WALL (       1 calls)
     electrons    :     11.12s CPU     12.78s WALL (       1 calls)
     forces       :      0.59s CPU      0.64s WALL (       1 calls)
     stress       :      1.59s CPU      1.82s WALL (       1 calls)

     Called by init_run:
     wfcinit      :      0.08s CPU      0.08s WALL (       1 calls)
     potinit      :      0.24s CPU      0.25s WALL (       1 calls)
     hinit0       :      0.63s CPU      0.63s WALL (       1 calls)

     Called by electrons:
     c_bands      :      2.30s CPU      2.32s WALL (      13 calls)
     sum_band     :      3.95s CPU      4.68s WALL (      13 calls)
     v_of_rho     :      2.87s CPU      2.99s WALL (      13 calls)
     newd         :      2.02s CPU      2.79s WALL (      13 calls)
     mix_rho      :      0.19s CPU      0.21s WALL (      13 calls)

     Called by c_bands:
     init_us_2    :      0.03s CPU      0.04s WALL (      58 calls)
     cegterg      :      2.25s CPU      2.26s WALL (      26 calls)

     Called by *egterg:
     cdiaghg      :      0.07s CPU      0.07s WALL (      90 calls)
     h_psi        :      1.97s CPU      1.98s WALL (      94 calls)
     s_psi        :      0.02s CPU      0.02s WALL (      94 calls)
     g_psi        :      0.01s CPU      0.01s WALL (      66 calls)

     Called by h_psi:
     h_psi:calbec :      0.03s CPU      0.03s WALL (      94 calls)
     vloc_psi     :      1.90s CPU      1.91s WALL (      94 calls)
     add_vuspsi   :      0.02s CPU      0.02s WALL (      94 calls)

     General routines
     calbec       :      0.05s CPU      0.05s WALL (     130 calls)
     fft          :      0.74s CPU      0.75s WALL (     365 calls)
     ffts         :      0.06s CPU      0.06s WALL (      52 calls)
     fftw         :      1.99s CPU      2.01s WALL (    3940 calls)
     interpolate  :      0.10s CPU      0.10s WALL (      26 calls)

     Parallel routines

     PWSCF        :     14.52s CPU     16.81s WALL


   This run was terminated on:  15:31:33  20May2021            

=------------------------------------------------------------------------------=
   JOB DONE.
=------------------------------------------------------------------------------=
# python dir           : /home/lls34/GitHub/10_QE_Interface/ase-espresso/espresso
# espresso dir         : /opt/womble/qe-6.7/bin
# pseudo dir           : /home/lls34/programs/QuantumExpresso/pseudopotentials/use_pot
# ase-espresso version : 0.3.3


--------------------------------------------------------------------------
[[11281,1],0]: A high-performance Open MPI point-to-point messaging module
was unable to find any relevant network interfaces:

Module: OpenFabrics (openib)
  Host: node7

Another transport will be used instead, although this may result in
lower performance.

NOTE: You can disable this warning by setting the MCA parameter
btl_base_warn_component_unused to 0.
--------------------------------------------------------------------------

     Program PWSCF v.6.7MaX starts on 20May2021 at 15:31:34 

     This program is part of the open-source Quantum ESPRESSO suite
     for quantum simulation of materials; please cite
         "P. Giannozzi et al., J. Phys.:Condens. Matter 21 395502 (2009);
         "P. Giannozzi et al., J. Phys.:Condens. Matter 29 465901 (2017);
          URL http://www.quantum-espresso.org", 
     in publications or presentations arising from this work. More details at
     http://www.quantum-espresso.org/quote

     Parallel version (MPI), running on     1 processors

     MPI processes distributed on     1 nodes
     Reading input from pw.inp

     Current dimensions of program PWSCF are:
     Max number of different atomic species (ntypx) = 10
     Max number of k-points (npk) =  40000
     Max angular momentum in pseudopotentials (lmaxx) =  3
     Message from routine cell_base_init:
     DEPRECATED: use true lattice parameter, not A to a.u. conversion factor
     file In.UPF: wavefunction(s)  5S renormalized

     IMPORTANT: XC functional enforced from input :
     Exchange-correlation= PBE
                           (   1   4   3   4   0   0   0)
     Any further DFT definition will be discarded
     Please, verify this is what you really want


     Subspace diagonalization in iterative solution of the eigenvalue problem:
     a serial algorithm will be used

     Message from routine setup:
     using ibrav=0 with symmetry is DISCOURAGED, use correct ibrav instead

     G-vector sticks info
     --------------------
     sticks:   dense  smooth     PW     G-vecs:    dense   smooth      PW
     Sum        1909     965    237                43455    15441    1925



     bravais-lattice index     =            0
     lattice parameter (alat)  =       1.8897  a.u.
     unit-cell volume          =     217.4675 (a.u.)^3
     number of atoms/cell      =            1
     number of atomic types    =            1
     number of electrons       =        13.00
     number of Kohn-Sham states=           26
     kinetic-energy cutoff     =      65.0000  Ry
     charge density cutoff     =     520.0000  Ry
     scf convergence threshold =      7.3E-09
     mixing beta               =       0.5000
     number of iterations used =           10  plain     mixing
     Exchange-correlation= PBE
                           (   1   4   3   4   0   0   0)

     celldm(1)=   1.889726  celldm(2)=   0.000000  celldm(3)=   0.000000
     celldm(4)=   0.000000  celldm(5)=   0.000000  celldm(6)=   0.000000

     crystal axes: (cart. coord. in units of alat)
               a(1) = (   3.602327  -0.038779  -0.000000 )  
               a(2) = (   0.210631   3.596373  -0.000000 )  
               a(3) = (  -1.906479  -1.778797   2.485857 )  

     reciprocal axes: (cart. coord. in units 2 pi/alat)
               b(1) = (  0.277423 -0.016248  0.201138 )  
               b(2) = (  0.002991  0.277883  0.201138 )  
               b(3) = (  0.000000  0.000000  0.402276 )  


     PseudoPot. # 1 for In read from file:
     /home/lls34/programs/QuantumExpresso/pseudopotentials/use_pot/In.UPF
     MD5 check sum: b236236d7d320b3bac520569a9051741
     Pseudo is Ultrasoft + core correction, Zval = 13.0
     Generated using "atomic" code by A. Dal Corso  v.5.0.99 svn rev. 10869
     Using radial grid of 1241 points,  6 beta functions with: 
                l(1) =   0
                l(2) =   0
                l(3) =   1
                l(4) =   1
                l(5) =   2
                l(6) =   2
     Q(r) pseudized with 0 coefficients 


     atomic species   valence    mass     pseudopotential
        In1           13.00   114.81800     In( 1.00)

     Starting magnetic structure 
     atomic species   magnetization
        In1          0.000

      4 Sym. Ops., with inversion, found



   Cartesian axes

     site n.     atom                  positions (alat units)
         1           In1 tau(   1) = (   0.0000000   0.0000000   0.0000000  )

     number of k points=     1  Gaussian smearing, width (Ry)=  0.0073
                       cart. coord. in units 2pi/alat
        k(    1) = (   0.0000000   0.0000000   0.0000000), wk =   1.0000000

     Dense  grid:    43455 G-vectors     FFT dimensions: (  50,  50,  50)

     Smooth grid:    15441 G-vectors     FFT dimensions: (  36,  36,  36)

     Estimated max dynamical RAM per process >     188.69 MB
     Generating pointlists ...
     new r_m :   1.4502 (alat units)  2.7404 (a.u.) for type    1

     Initial potential from superposition of free atoms

     starting charge   12.99628, renormalised to   13.00000
     Starting wfcs are    9 randomized atomic wfcs +   17 random wfcs

     total cpu time spent up to now is        2.0 secs

     Self-consistent Calculation

     iteration #  1     ecut=    65.00 Ry     beta= 0.50
     Davidson diagonalization with overlap
     ethr =  1.00E-02,  avg # of iterations = 10.5

     Threshold (ethr) on eigenvalues was too large:
     Diagonalizing with lowered threshold

     Davidson diagonalization with overlap
     ethr =  9.47E-05,  avg # of iterations =  6.0

     total cpu time spent up to now is        4.0 secs

     total energy              =    -144.67665908 Ry
     estimated scf accuracy    <       0.01278059 Ry

     total magnetization       =    -0.00 Bohr mag/cell
     absolute magnetization    =     0.00 Bohr mag/cell

     iteration #  2     ecut=    65.00 Ry     beta= 0.50
     Davidson diagonalization with overlap
     ethr =  9.83E-05,  avg # of iterations =  1.0

     total cpu time spent up to now is        5.1 secs

     total energy              =    -144.67791741 Ry
     estimated scf accuracy    <       0.01076356 Ry

     total magnetization       =    -0.00 Bohr mag/cell
     absolute magnetization    =     0.00 Bohr mag/cell

     iteration #  3     ecut=    65.00 Ry     beta= 0.50
     Davidson diagonalization with overlap
     ethr =  8.28E-05,  avg # of iterations =  1.0

     total cpu time spent up to now is        6.2 secs

     total energy              =    -144.67876050 Ry
     estimated scf accuracy    <       0.00091969 Ry

     total magnetization       =    -0.00 Bohr mag/cell
     absolute magnetization    =     0.00 Bohr mag/cell

     iteration #  4     ecut=    65.00 Ry     beta= 0.50
     Davidson diagonalization with overlap
     ethr =  7.07E-06,  avg # of iterations =  4.5

     total cpu time spent up to now is        7.3 secs

     total energy              =    -144.67887338 Ry
     estimated scf accuracy    <       0.00007322 Ry

     total magnetization       =    -0.01 Bohr mag/cell
     absolute magnetization    =     0.01 Bohr mag/cell

     iteration #  5     ecut=    65.00 Ry     beta= 0.50
     Davidson diagonalization with overlap
     ethr =  5.63E-07,  avg # of iterations =  4.5

     total cpu time spent up to now is        8.4 secs

     total energy              =    -144.67887495 Ry
     estimated scf accuracy    <       0.00001401 Ry

     total magnetization       =    -0.07 Bohr mag/cell
     absolute magnetization    =     0.07 Bohr mag/cell

     iteration #  6     ecut=    65.00 Ry     beta= 0.50
     Davidson diagonalization with overlap
     ethr =  1.08E-07,  avg # of iterations =  1.0

     total cpu time spent up to now is        9.5 secs

     total energy              =    -144.67888239 Ry
     estimated scf accuracy    <       0.00000165 Ry

     total magnetization       =    -0.01 Bohr mag/cell
     absolute magnetization    =     0.01 Bohr mag/cell

     iteration #  7     ecut=    65.00 Ry     beta= 0.50
     Davidson diagonalization with overlap
     ethr =  1.27E-08,  avg # of iterations =  2.0

     total cpu time spent up to now is       10.6 secs

     total energy              =    -144.67888562 Ry
     estimated scf accuracy    <       0.00000269 Ry

     total magnetization       =    -0.00 Bohr mag/cell
     absolute magnetization    =     0.02 Bohr mag/cell

     iteration #  8     ecut=    65.00 Ry     beta= 0.50
     Davidson diagonalization with overlap
     ethr =  1.27E-08,  avg # of iterations =  1.0

     total cpu time spent up to now is       11.7 secs

     total energy              =    -144.67888087 Ry
     estimated scf accuracy    <       0.00000339 Ry

     total magnetization       =    -0.00 Bohr mag/cell
     absolute magnetization    =     0.03 Bohr mag/cell

     iteration #  9     ecut=    65.00 Ry     beta= 0.50
     Davidson diagonalization with overlap
     ethr =  1.27E-08,  avg # of iterations =  1.0

     total cpu time spent up to now is       12.8 secs

     total energy              =    -144.67888299 Ry
     estimated scf accuracy    <       0.00000075 Ry

     total magnetization       =    -0.00 Bohr mag/cell
     absolute magnetization    =     0.00 Bohr mag/cell

     iteration # 10     ecut=    65.00 Ry     beta= 0.50
     Davidson diagonalization with overlap
     ethr =  5.79E-09,  avg # of iterations =  1.0

     total cpu time spent up to now is       13.8 secs

     total energy              =    -144.67888296 Ry
     estimated scf accuracy    <       0.00000009 Ry

     total magnetization       =    -0.00 Bohr mag/cell
     absolute magnetization    =     0.01 Bohr mag/cell

     iteration # 11     ecut=    65.00 Ry     beta= 0.50
     Davidson diagonalization with overlap
     ethr =  6.69E-10,  avg # of iterations =  1.0

     total cpu time spent up to now is       14.9 secs

     total energy              =    -144.67888306 Ry
     estimated scf accuracy    <       0.00000001 Ry

     total magnetization       =     0.00 Bohr mag/cell
     absolute magnetization    =     0.00 Bohr mag/cell

     iteration # 12     ecut=    65.00 Ry     beta= 0.50
     Davidson diagonalization with overlap
     ethr =  1.13E-10,  avg # of iterations =  1.5

     total cpu time spent up to now is       16.0 secs

     total energy              =    -144.67888304 Ry
     estimated scf accuracy    <       0.00000002 Ry

     total magnetization       =     0.00 Bohr mag/cell
     absolute magnetization    =     0.00 Bohr mag/cell

     iteration # 13     ecut=    65.00 Ry     beta= 0.50
     Davidson diagonalization with overlap
     ethr =  1.13E-10,  avg # of iterations =  1.0

     total cpu time spent up to now is       17.1 secs

     total energy              =    -144.67888304 Ry
     estimated scf accuracy    <       0.00000001 Ry

     total magnetization       =    -0.00 Bohr mag/cell
     absolute magnetization    =     0.00 Bohr mag/cell

     iteration # 14     ecut=    65.00 Ry     beta= 0.50
     Davidson diagonalization with overlap
     ethr =  1.06E-10,  avg # of iterations =  1.0

     Magnetic moment per site:
     atom:    1    charge:   12.0063    magn:    0.0000    constr:    0.0000

     total cpu time spent up to now is       18.2 secs

     End of self-consistent calculation

 ------ SPIN UP ------------


          k = 0.0000 0.0000 0.0000 (  1925 PWs)   bands (ev):

    -7.0359  -7.0328  -7.0328  -6.9638  -6.8728  -0.7391  16.1614  16.1614
    16.1731  18.8744  19.9364  20.0066  20.0066  21.3043  22.4027  24.3409
    24.3409  24.4703  26.2623  28.0187  41.1127  41.9721  41.9721  42.5392
    46.6291  47.6076

 ------ SPIN DOWN ----------


          k = 0.0000 0.0000 0.0000 (  1925 PWs)   bands (ev):

    -7.0359  -7.0328  -7.0328  -6.9638  -6.8728  -0.7391  16.1614  16.1614
    16.1731  18.8744  19.9364  20.0066  20.0066  21.3043  22.4027  24.3409
    24.3409  24.4703  26.2623  28.0187  41.1127  41.9721  41.9721  42.5392
    46.6291  47.6075

     the Fermi energy is    16.0967 ev

!    total energy              =    -144.67888304 Ry
     estimated scf accuracy    <          2.3E-09 Ry
     smearing contrib. (-TS)   =      -0.00776832 Ry
     internal energy E=F+TS    =    -144.67111472 Ry

     The total energy is F=E-TS. E is the sum of the following terms:
     one-electron contribution =     -53.24993095 Ry
     hartree contribution      =      37.29056854 Ry
     xc contribution           =     -47.54560212 Ry
     ewald contribution        =     -81.16615019 Ry

     total magnetization       =     0.00 Bohr mag/cell
     absolute magnetization    =     0.00 Bohr mag/cell

     convergence has been achieved in  14 iterations

     Forces acting on atoms (cartesian axes, Ry/au):

     atom    1 type  1   force =     0.00000000    0.00000000    0.00000000

     Total force =     0.000000     Total SCF correction =     0.000000


     Computing stress (Cartesian axis) and pressure

          total   stress  (Ry/bohr**3)                   (kbar)     P=       23.58
   0.00014949  -0.00002679   0.00000000           21.99       -3.94        0.00
  -0.00002679   0.00015319   0.00000000           -3.94       22.53        0.00
   0.00000000   0.00000000   0.00017819            0.00        0.00       26.21


     Writing output data file ./calc.save/

     init_run     :      1.74s CPU      1.86s WALL (       1 calls)
     electrons    :     14.16s CPU     16.30s WALL (       1 calls)
     forces       :      0.67s CPU      0.77s WALL (       1 calls)
     stress       :      1.78s CPU      2.05s WALL (       1 calls)

     Called by init_run:
     wfcinit      :      0.09s CPU      0.09s WALL (       1 calls)
     potinit      :      0.35s CPU      0.39s WALL (       1 calls)
     hinit0       :      1.13s CPU      1.14s WALL (       1 calls)

     Called by electrons:
     c_bands      :      2.69s CPU      2.71s WALL (      15 calls)
     sum_band     :      4.99s CPU      6.04s WALL (      15 calls)
     v_of_rho     :      3.99s CPU      4.17s WALL (      15 calls)
     newd         :      2.43s CPU      3.34s WALL (      15 calls)
     mix_rho      :      0.28s CPU      0.28s WALL (      15 calls)

     Called by c_bands:
     init_us_2    :      0.05s CPU      0.05s WALL (      66 calls)
     cegterg      :      2.62s CPU      2.64s WALL (      30 calls)

     Called by *egterg:
     cdiaghg      :      0.08s CPU      0.08s WALL (     104 calls)
     h_psi        :      2.27s CPU      2.28s WALL (     108 calls)
     s_psi        :      0.02s CPU      0.02s WALL (     108 calls)
     g_psi        :      0.01s CPU      0.01s WALL (      76 calls)

     Called by h_psi:
     h_psi:calbec :      0.04s CPU      0.04s WALL (     108 calls)
     vloc_psi     :      2.18s CPU      2.19s WALL (     108 calls)
     add_vuspsi   :      0.03s CPU      0.03s WALL (     108 calls)

     General routines
     calbec       :      0.07s CPU      0.07s WALL (     148 calls)
     fft          :      1.14s CPU      1.15s WALL (     415 calls)
     ffts         :      0.07s CPU      0.07s WALL (      60 calls)
     fftw         :      2.31s CPU      2.32s WALL (    4506 calls)
     interpolate  :      0.15s CPU      0.16s WALL (      30 calls)

     Parallel routines

     PWSCF        :     18.45s CPU     21.33s WALL


   This run was terminated on:  15:31:55  20May2021            

=------------------------------------------------------------------------------=
   JOB DONE.
=------------------------------------------------------------------------------=
# python dir           : /home/lls34/GitHub/10_QE_Interface/ase-espresso/espresso
# espresso dir         : /opt/womble/qe-6.7/bin
# pseudo dir           : /home/lls34/programs/QuantumExpresso/pseudopotentials/use_pot
# ase-espresso version : 0.3.3


--------------------------------------------------------------------------
[[12260,1],0]: A high-performance Open MPI point-to-point messaging module
was unable to find any relevant network interfaces:

Module: OpenFabrics (openib)
  Host: node7

Another transport will be used instead, although this may result in
lower performance.

NOTE: You can disable this warning by setting the MCA parameter
btl_base_warn_component_unused to 0.
--------------------------------------------------------------------------

     Program PWSCF v.6.7MaX starts on 20May2021 at 15:31:56 

     This program is part of the open-source Quantum ESPRESSO suite
     for quantum simulation of materials; please cite
         "P. Giannozzi et al., J. Phys.:Condens. Matter 21 395502 (2009);
         "P. Giannozzi et al., J. Phys.:Condens. Matter 29 465901 (2017);
          URL http://www.quantum-espresso.org", 
     in publications or presentations arising from this work. More details at
     http://www.quantum-espresso.org/quote

     Parallel version (MPI), running on     1 processors

     MPI processes distributed on     1 nodes
     Reading input from pw.inp

     Current dimensions of program PWSCF are:
     Max number of different atomic species (ntypx) = 10
     Max number of k-points (npk) =  40000
     Max angular momentum in pseudopotentials (lmaxx) =  3
     Message from routine cell_base_init:
     DEPRECATED: use true lattice parameter, not A to a.u. conversion factor
     file In.UPF: wavefunction(s)  5S renormalized

     IMPORTANT: XC functional enforced from input :
     Exchange-correlation= PBE
                           (   1   4   3   4   0   0   0)
     Any further DFT definition will be discarded
     Please, verify this is what you really want


     Subspace diagonalization in iterative solution of the eigenvalue problem:
     a serial algorithm will be used

     Message from routine setup:
     using ibrav=0 with symmetry is DISCOURAGED, use correct ibrav instead

     G-vector sticks info
     --------------------
     sticks:   dense  smooth     PW     G-vecs:    dense   smooth      PW
     Sum        1909     965    237                43455    15441    1925



     bravais-lattice index     =            0
     lattice parameter (alat)  =       1.8897  a.u.
     unit-cell volume          =     217.4675 (a.u.)^3
     number of atoms/cell      =            1
     number of atomic types    =            1
     number of electrons       =        13.00
     number of Kohn-Sham states=           26
     kinetic-energy cutoff     =      65.0000  Ry
     charge density cutoff     =     520.0000  Ry
     scf convergence threshold =      7.3E-09
     mixing beta               =       0.5000
     number of iterations used =           10  plain     mixing
     Exchange-correlation= PBE
                           (   1   4   3   4   0   0   0)

     celldm(1)=   1.889726  celldm(2)=   0.000000  celldm(3)=   0.000000
     celldm(4)=   0.000000  celldm(5)=   0.000000  celldm(6)=   0.000000

     crystal axes: (cart. coord. in units of alat)
               a(1) = (   3.602327  -0.038779  -0.000000 )  
               a(2) = (   0.210631   3.596373  -0.000000 )  
               a(3) = (  -1.906479  -1.778797   2.485857 )  

     reciprocal axes: (cart. coord. in units 2 pi/alat)
               b(1) = (  0.277423 -0.016248  0.201138 )  
               b(2) = (  0.002991  0.277883  0.201138 )  
               b(3) = (  0.000000  0.000000  0.402276 )  


     PseudoPot. # 1 for In read from file:
     /home/lls34/programs/QuantumExpresso/pseudopotentials/use_pot/In.UPF
     MD5 check sum: b236236d7d320b3bac520569a9051741
     Pseudo is Ultrasoft + core correction, Zval = 13.0
     Generated using "atomic" code by A. Dal Corso  v.5.0.99 svn rev. 10869
     Using radial grid of 1241 points,  6 beta functions with: 
                l(1) =   0
                l(2) =   0
                l(3) =   1
                l(4) =   1
                l(5) =   2
                l(6) =   2
     Q(r) pseudized with 0 coefficients 


     atomic species   valence    mass     pseudopotential
        In1           13.00   114.81800     In( 1.00)

     Starting magnetic structure 
     atomic species   magnetization
        In1          0.000

      4 Sym. Ops., with inversion, found



   Cartesian axes

     site n.     atom                  positions (alat units)
         1           In1 tau(   1) = (   0.0000000   0.0000000   0.0000000  )

     number of k points=     1  Gaussian smearing, width (Ry)=  0.0073
                       cart. coord. in units 2pi/alat
        k(    1) = (   0.0000000   0.0000000   0.0000000), wk =   1.0000000

     Dense  grid:    43455 G-vectors     FFT dimensions: (  50,  50,  50)

     Smooth grid:    15441 G-vectors     FFT dimensions: (  36,  36,  36)

     Estimated max dynamical RAM per process >     188.69 MB
     Generating pointlists ...
     new r_m :   1.4502 (alat units)  2.7404 (a.u.) for type    1

     Initial potential from superposition of free atoms

     starting charge   12.99628, renormalised to   13.00000
     Starting wfcs are    9 randomized atomic wfcs +   17 random wfcs

     total cpu time spent up to now is        1.5 secs

     Self-consistent Calculation

     iteration #  1     ecut=    65.00 Ry     beta= 0.50
     Davidson diagonalization with overlap
     ethr =  1.00E-02,  avg # of iterations = 10.5

     Threshold (ethr) on eigenvalues was too large:
     Diagonalizing with lowered threshold

     Davidson diagonalization with overlap
     ethr =  9.47E-05,  avg # of iterations =  6.0

     total cpu time spent up to now is        3.5 secs

     total energy              =    -144.67665908 Ry
     estimated scf accuracy    <       0.01278059 Ry

     total magnetization       =    -0.00 Bohr mag/cell
     absolute magnetization    =     0.00 Bohr mag/cell

     iteration #  2     ecut=    65.00 Ry     beta= 0.50
     Davidson diagonalization with overlap
     ethr =  9.83E-05,  avg # of iterations =  1.0

     total cpu time spent up to now is        4.5 secs

     total energy              =    -144.67791741 Ry
     estimated scf accuracy    <       0.01076356 Ry

     total magnetization       =    -0.00 Bohr mag/cell
     absolute magnetization    =     0.00 Bohr mag/cell

     iteration #  3     ecut=    65.00 Ry     beta= 0.50
     Davidson diagonalization with overlap
     ethr =  8.28E-05,  avg # of iterations =  1.0

     total cpu time spent up to now is        5.6 secs

     total energy              =    -144.67876050 Ry
     estimated scf accuracy    <       0.00091969 Ry

     total magnetization       =    -0.00 Bohr mag/cell
     absolute magnetization    =     0.00 Bohr mag/cell

     iteration #  4     ecut=    65.00 Ry     beta= 0.50
     Davidson diagonalization with overlap
     ethr =  7.07E-06,  avg # of iterations =  4.5

     total cpu time spent up to now is        6.7 secs

     total energy              =    -144.67887338 Ry
     estimated scf accuracy    <       0.00007322 Ry

     total magnetization       =    -0.01 Bohr mag/cell
     absolute magnetization    =     0.01 Bohr mag/cell

     iteration #  5     ecut=    65.00 Ry     beta= 0.50
     Davidson diagonalization with overlap
     ethr =  5.63E-07,  avg # of iterations =  4.5

     total cpu time spent up to now is        7.8 secs

     total energy              =    -144.67887495 Ry
     estimated scf accuracy    <       0.00001401 Ry

     total magnetization       =    -0.07 Bohr mag/cell
     absolute magnetization    =     0.07 Bohr mag/cell

     iteration #  6     ecut=    65.00 Ry     beta= 0.50
     Davidson diagonalization with overlap
     ethr =  1.08E-07,  avg # of iterations =  1.0

     total cpu time spent up to now is        8.9 secs

     total energy              =    -144.67888239 Ry
     estimated scf accuracy    <       0.00000165 Ry

     total magnetization       =    -0.01 Bohr mag/cell
     absolute magnetization    =     0.01 Bohr mag/cell

     iteration #  7     ecut=    65.00 Ry     beta= 0.50
     Davidson diagonalization with overlap
     ethr =  1.27E-08,  avg # of iterations =  2.0

     total cpu time spent up to now is       10.1 secs

     total energy              =    -144.67888562 Ry
     estimated scf accuracy    <       0.00000269 Ry

     total magnetization       =    -0.00 Bohr mag/cell
     absolute magnetization    =     0.02 Bohr mag/cell

     iteration #  8     ecut=    65.00 Ry     beta= 0.50
     Davidson diagonalization with overlap
     ethr =  1.27E-08,  avg # of iterations =  1.0

     total cpu time spent up to now is       11.2 secs

     total energy              =    -144.67888087 Ry
     estimated scf accuracy    <       0.00000339 Ry

     total magnetization       =    -0.00 Bohr mag/cell
     absolute magnetization    =     0.03 Bohr mag/cell

     iteration #  9     ecut=    65.00 Ry     beta= 0.50
     Davidson diagonalization with overlap
     ethr =  1.27E-08,  avg # of iterations =  1.0

     total cpu time spent up to now is       12.3 secs

     total energy              =    -144.67888299 Ry
     estimated scf accuracy    <       0.00000075 Ry

     total magnetization       =    -0.00 Bohr mag/cell
     absolute magnetization    =     0.00 Bohr mag/cell

     iteration # 10     ecut=    65.00 Ry     beta= 0.50
     Davidson diagonalization with overlap
     ethr =  5.79E-09,  avg # of iterations =  1.0

     total cpu time spent up to now is       13.5 secs

     total energy              =    -144.67888296 Ry
     estimated scf accuracy    <       0.00000009 Ry

     total magnetization       =    -0.00 Bohr mag/cell
     absolute magnetization    =     0.01 Bohr mag/cell

     iteration # 11     ecut=    65.00 Ry     beta= 0.50
     Davidson diagonalization with overlap
     ethr =  6.69E-10,  avg # of iterations =  1.0

     total cpu time spent up to now is       14.6 secs

     total energy              =    -144.67888306 Ry
     estimated scf accuracy    <       0.00000001 Ry

     total magnetization       =     0.00 Bohr mag/cell
     absolute magnetization    =     0.00 Bohr mag/cell

     iteration # 12     ecut=    65.00 Ry     beta= 0.50
     Davidson diagonalization with overlap
     ethr =  1.13E-10,  avg # of iterations =  1.5

     total cpu time spent up to now is       15.7 secs

     total energy              =    -144.67888304 Ry
     estimated scf accuracy    <       0.00000002 Ry

     total magnetization       =     0.00 Bohr mag/cell
     absolute magnetization    =     0.00 Bohr mag/cell

     iteration # 13     ecut=    65.00 Ry     beta= 0.50
     Davidson diagonalization with overlap
     ethr =  1.13E-10,  avg # of iterations =  1.0

     total cpu time spent up to now is       16.7 secs

     total energy              =    -144.67888304 Ry
     estimated scf accuracy    <       0.00000001 Ry

     total magnetization       =    -0.00 Bohr mag/cell
     absolute magnetization    =     0.00 Bohr mag/cell

     iteration # 14     ecut=    65.00 Ry     beta= 0.50
     Davidson diagonalization with overlap
     ethr =  1.06E-10,  avg # of iterations =  1.0

     Magnetic moment per site:
     atom:    1    charge:   12.0063    magn:    0.0000    constr:    0.0000

     total cpu time spent up to now is       17.8 secs

     End of self-consistent calculation

 ------ SPIN UP ------------


          k = 0.0000 0.0000 0.0000 (  1925 PWs)   bands (ev):

    -7.0359  -7.0328  -7.0328  -6.9638  -6.8728  -0.7391  16.1614  16.1614
    16.1731  18.8744  19.9364  20.0066  20.0066  21.3043  22.4027  24.3409
    24.3409  24.4703  26.2623  28.0187  41.1127  41.9721  41.9721  42.5392
    46.6291  47.6076

 ------ SPIN DOWN ----------


          k = 0.0000 0.0000 0.0000 (  1925 PWs)   bands (ev):

    -7.0359  -7.0328  -7.0328  -6.9638  -6.8728  -0.7391  16.1614  16.1614
    16.1731  18.8744  19.9364  20.0066  20.0066  21.3043  22.4027  24.3409
    24.3409  24.4703  26.2623  28.0187  41.1127  41.9721  41.9721  42.5392
    46.6291  47.6075

     the Fermi energy is    16.0967 ev

!    total energy              =    -144.67888304 Ry
     estimated scf accuracy    <          2.3E-09 Ry
     smearing contrib. (-TS)   =      -0.00776832 Ry
     internal energy E=F+TS    =    -144.67111472 Ry

     The total energy is F=E-TS. E is the sum of the following terms:
     one-electron contribution =     -53.24993095 Ry
     hartree contribution      =      37.29056854 Ry
     xc contribution           =     -47.54560212 Ry
     ewald contribution        =     -81.16615019 Ry

     total magnetization       =     0.00 Bohr mag/cell
     absolute magnetization    =     0.00 Bohr mag/cell

     convergence has been achieved in  14 iterations

     Forces acting on atoms (cartesian axes, Ry/au):

     atom    1 type  1   force =     0.00000000    0.00000000    0.00000000

     Total force =     0.000000     Total SCF correction =     0.000000


     Computing stress (Cartesian axis) and pressure

          total   stress  (Ry/bohr**3)                   (kbar)     P=       23.58
   0.00014949  -0.00002679   0.00000000           21.99       -3.94        0.00
  -0.00002679   0.00015319   0.00000000           -3.94       22.53        0.00
   0.00000000   0.00000000   0.00017819            0.00        0.00       26.21


     Writing output data file ./calc.save/

     init_run     :      1.32s CPU      1.41s WALL (       1 calls)
     electrons    :     14.15s CPU     16.32s WALL (       1 calls)
     forces       :      0.76s CPU      0.84s WALL (       1 calls)
     stress       :      1.80s CPU      2.05s WALL (       1 calls)

     Called by init_run:
     wfcinit      :      0.08s CPU      0.08s WALL (       1 calls)
     potinit      :      0.30s CPU      0.34s WALL (       1 calls)
     hinit0       :      0.73s CPU      0.74s WALL (       1 calls)

     Called by electrons:
     c_bands      :      2.74s CPU      2.77s WALL (      15 calls)
     sum_band     :      4.87s CPU      5.93s WALL (      15 calls)
     v_of_rho     :      3.92s CPU      4.10s WALL (      15 calls)
     newd         :      2.52s CPU      3.42s WALL (      15 calls)
     mix_rho      :      0.32s CPU      0.33s WALL (      15 calls)

     Called by c_bands:
     init_us_2    :      0.04s CPU      0.05s WALL (      66 calls)
     cegterg      :      2.67s CPU      2.69s WALL (      30 calls)

     Called by *egterg:
     cdiaghg      :      0.08s CPU      0.08s WALL (     104 calls)
     h_psi        :      2.30s CPU      2.32s WALL (     108 calls)
     s_psi        :      0.02s CPU      0.02s WALL (     108 calls)
     g_psi        :      0.01s CPU      0.01s WALL (      76 calls)

     Called by h_psi:
     h_psi:calbec :      0.04s CPU      0.04s WALL (     108 calls)
     vloc_psi     :      2.21s CPU      2.22s WALL (     108 calls)
     add_vuspsi   :      0.03s CPU      0.03s WALL (     108 calls)

     General routines
     calbec       :      0.07s CPU      0.07s WALL (     148 calls)
     fft          :      1.13s CPU      1.15s WALL (     415 calls)
     ffts         :      0.07s CPU      0.07s WALL (      60 calls)
     fftw         :      2.31s CPU      2.33s WALL (    4506 calls)
     interpolate  :      0.14s CPU      0.14s WALL (      30 calls)

     Parallel routines

     PWSCF        :     18.13s CPU     20.96s WALL


   This run was terminated on:  15:32:17  20May2021            

=------------------------------------------------------------------------------=
   JOB DONE.
=------------------------------------------------------------------------------=
# python dir           : /home/lls34/GitHub/10_QE_Interface/ase-espresso/espresso
# espresso dir         : /opt/womble/qe-6.7/bin
# pseudo dir           : /home/lls34/programs/QuantumExpresso/pseudopotentials/use_pot
# ase-espresso version : 0.3.3


--------------------------------------------------------------------------
[[12287,1],0]: A high-performance Open MPI point-to-point messaging module
was unable to find any relevant network interfaces:

Module: OpenFabrics (openib)
  Host: node7

Another transport will be used instead, although this may result in
lower performance.

NOTE: You can disable this warning by setting the MCA parameter
btl_base_warn_component_unused to 0.
--------------------------------------------------------------------------

     Program PWSCF v.6.7MaX starts on 20May2021 at 15:32:17 

     This program is part of the open-source Quantum ESPRESSO suite
     for quantum simulation of materials; please cite
         "P. Giannozzi et al., J. Phys.:Condens. Matter 21 395502 (2009);
         "P. Giannozzi et al., J. Phys.:Condens. Matter 29 465901 (2017);
          URL http://www.quantum-espresso.org", 
     in publications or presentations arising from this work. More details at
     http://www.quantum-espresso.org/quote

     Parallel version (MPI), running on     1 processors

     MPI processes distributed on     1 nodes
     Reading input from pw.inp

     Current dimensions of program PWSCF are:
     Max number of different atomic species (ntypx) = 10
     Max number of k-points (npk) =  40000
     Max angular momentum in pseudopotentials (lmaxx) =  3
     Message from routine cell_base_init:
     DEPRECATED: use true lattice parameter, not A to a.u. conversion factor
     file In.UPF: wavefunction(s)  5S renormalized

     IMPORTANT: XC functional enforced from input :
     Exchange-correlation= PBE
                           (   1   4   3   4   0   0   0)
     Any further DFT definition will be discarded
     Please, verify this is what you really want


     Subspace diagonalization in iterative solution of the eigenvalue problem:
     a serial algorithm will be used

     Message from routine setup:
     using ibrav=0 with symmetry is DISCOURAGED, use correct ibrav instead

     G-vector sticks info
     --------------------
     sticks:   dense  smooth     PW     G-vecs:    dense   smooth      PW
     Sum        1909     965    237                43455    15441    1925



     bravais-lattice index     =            0
     lattice parameter (alat)  =       1.8897  a.u.
     unit-cell volume          =     217.4675 (a.u.)^3
     number of atoms/cell      =            1
     number of atomic types    =            1
     number of electrons       =        13.00
     number of Kohn-Sham states=           26
     kinetic-energy cutoff     =      65.0000  Ry
     charge density cutoff     =     520.0000  Ry
     scf convergence threshold =      7.3E-09
     mixing beta               =       0.5000
     number of iterations used =           10  plain     mixing
     Exchange-correlation= PBE
                           (   1   4   3   4   0   0   0)

     celldm(1)=   1.889726  celldm(2)=   0.000000  celldm(3)=   0.000000
     celldm(4)=   0.000000  celldm(5)=   0.000000  celldm(6)=   0.000000

     crystal axes: (cart. coord. in units of alat)
               a(1) = (   3.602327  -0.038779  -0.000000 )  
               a(2) = (   0.210631   3.596373  -0.000000 )  
               a(3) = (  -1.906479  -1.778797   2.485857 )  

     reciprocal axes: (cart. coord. in units 2 pi/alat)
               b(1) = (  0.277423 -0.016248  0.201138 )  
               b(2) = (  0.002991  0.277883  0.201138 )  
               b(3) = (  0.000000  0.000000  0.402276 )  


     PseudoPot. # 1 for In read from file:
[...]
     smearing contrib. (-TS)   =      -0.00776604 Ry
     internal energy E=F+TS    =    -144.67331507 Ry

     The total energy is F=E-TS. E is the sum of the following terms:
     one-electron contribution =     -57.88606165 Ry
     hartree contribution      =      39.06887054 Ry
     xc contribution           =     -47.51550165 Ry
     ewald contribution        =     -78.34062231 Ry

     total magnetization       =     0.00 Bohr mag/cell
     absolute magnetization    =     0.00 Bohr mag/cell

     convergence has been achieved in  14 iterations

     Forces acting on atoms (cartesian axes, Ry/au):

     atom    1 type  1   force =     0.00000000    0.00000000    0.00000000

     Total force =     0.000000     Total SCF correction =     0.000000


     Computing stress (Cartesian axis) and pressure

          total   stress  (Ry/bohr**3)                   (kbar)     P=        2.19
  -0.00018831   0.00000243   0.00000000          -27.70        0.36        0.00
   0.00000243   0.00021681  -0.00000000            0.36       31.89       -0.00
   0.00000000  -0.00000000   0.00001620            0.00       -0.00        2.38


     Writing output data file ./calc.save/

     init_run     :      2.64s CPU      2.77s WALL (       1 calls)
     electrons    :     17.98s CPU     20.60s WALL (       1 calls)
     forces       :      1.60s CPU      1.70s WALL (       1 calls)
     stress       :      3.06s CPU      3.35s WALL (       1 calls)

     Called by init_run:
     wfcinit      :      0.10s CPU      0.11s WALL (       1 calls)
     potinit      :      0.71s CPU      0.75s WALL (       1 calls)
     hinit0       :      1.58s CPU      1.60s WALL (       1 calls)

     Called by electrons:
     c_bands      :      3.33s CPU      3.36s WALL (      15 calls)
     sum_band     :      6.19s CPU      7.37s WALL (      15 calls)
     v_of_rho     :      5.23s CPU      5.51s WALL (      15 calls)
     newd         :      3.04s CPU      4.21s WALL (      15 calls)
     mix_rho      :      0.47s CPU      0.48s WALL (      15 calls)

     Called by c_bands:
     init_us_2    :      0.05s CPU      0.05s WALL (      66 calls)
     cegterg      :      3.25s CPU      3.28s WALL (      30 calls)

     Called by *egterg:
     cdiaghg      :      0.09s CPU      0.09s WALL (     112 calls)
     h_psi        :      2.82s CPU      2.84s WALL (     116 calls)
     s_psi        :      0.03s CPU      0.03s WALL (     116 calls)
     g_psi        :      0.02s CPU      0.02s WALL (      84 calls)

     Called by h_psi:
     h_psi:calbec :      0.05s CPU      0.05s WALL (     116 calls)
     vloc_psi     :      2.72s CPU      2.74s WALL (     116 calls)
     add_vuspsi   :      0.03s CPU      0.03s WALL (     116 calls)

     General routines
     calbec       :      0.07s CPU      0.08s WALL (     156 calls)
     fft          :      2.02s CPU      2.04s WALL (     415 calls)
     ffts         :      0.08s CPU      0.08s WALL (      60 calls)
     fftw         :      2.84s CPU      2.86s WALL (    4568 calls)
     interpolate  :      0.22s CPU      0.22s WALL (      30 calls)

     Parallel routines

     PWSCF        :     25.37s CPU     28.78s WALL


   This run was terminated on:  15:46:34  20May2021            

=------------------------------------------------------------------------------=
   JOB DONE.
=------------------------------------------------------------------------------=
# python dir           : /home/lls34/GitHub/10_QE_Interface/ase-espresso/espresso
# espresso dir         : /opt/womble/qe-6.7/bin
# pseudo dir           : /home/lls34/programs/QuantumExpresso/pseudopotentials/use_pot
# ase-espresso version : 0.3.3


--------------------------------------------------------------------------
[[61487,1],0]: A high-performance Open MPI point-to-point messaging module
was unable to find any relevant network interfaces:

Module: OpenFabrics (openib)
  Host: node7

Another transport will be used instead, although this may result in
lower performance.

NOTE: You can disable this warning by setting the MCA parameter
btl_base_warn_component_unused to 0.
--------------------------------------------------------------------------

     Program PWSCF v.6.7MaX starts on 20May2021 at 15:46:35 

     This program is part of the open-source Quantum ESPRESSO suite
     for quantum simulation of materials; please cite
         "P. Giannozzi et al., J. Phys.:Condens. Matter 21 395502 (2009);
         "P. Giannozzi et al., J. Phys.:Condens. Matter 29 465901 (2017);
          URL http://www.quantum-espresso.org", 
     in publications or presentations arising from this work. More details at
     http://www.quantum-espresso.org/quote

     Parallel version (MPI), running on     1 processors

     MPI processes distributed on     1 nodes
     Reading input from pw.inp

     Current dimensions of program PWSCF are:
     Max number of different atomic species (ntypx) = 10
     Max number of k-points (npk) =  40000
     Max angular momentum in pseudopotentials (lmaxx) =  3
     Message from routine cell_base_init:
     DEPRECATED: use true lattice parameter, not A to a.u. conversion factor
     file In.UPF: wavefunction(s)  5S renormalized

     IMPORTANT: XC functional enforced from input :
     Exchange-correlation= PBE
                           (   1   4   3   4   0   0   0)
     Any further DFT definition will be discarded
     Please, verify this is what you really want


     Subspace diagonalization in iterative solution of the eigenvalue problem:
     a serial algorithm will be used

     Message from routine setup:
     using ibrav=0 with symmetry is DISCOURAGED, use correct ibrav instead

     G-vector sticks info
     --------------------
     sticks:   dense  smooth     PW     G-vecs:    dense   smooth      PW
     Sum        2035    1011    245                48911    17277    2133



     bravais-lattice index     =            0
     lattice parameter (alat)  =       1.8897  a.u.
     unit-cell volume          =     244.2458 (a.u.)^3
     number of atoms/cell      =            1
     number of atomic types    =            1
     number of electrons       =        13.00
     number of Kohn-Sham states=           26
     kinetic-energy cutoff     =      65.0000  Ry
     charge density cutoff     =     520.0000  Ry
     scf convergence threshold =      7.3E-09
     mixing beta               =       0.5000
     number of iterations used =           10  plain     mixing
     Exchange-correlation= PBE
                           (   1   4   3   4   0   0   0)

     celldm(1)=   1.889726  celldm(2)=   0.000000  celldm(3)=   0.000000
     celldm(4)=   0.000000  celldm(5)=   0.000000  celldm(6)=   0.000000

     crystal axes: (cart. coord. in units of alat)
               a(1) = (   3.710496  -0.025606  -0.000000 )  
               a(2) = (   0.231344   3.708508  -0.000000 )  
               a(3) = (  -1.970920  -1.841451   2.629132 )  

     reciprocal axes: (cart. coord. in units 2 pi/alat)
               b(1) = (  0.269390 -0.016805  0.190177 )  
               b(2) = (  0.001860  0.269534  0.190177 )  
               b(3) = (  0.000000  0.000000  0.380354 )  


     PseudoPot. # 1 for In read from file:
     /home/lls34/programs/QuantumExpresso/pseudopotentials/use_pot/In.UPF
     MD5 check sum: b236236d7d320b3bac520569a9051741
     Pseudo is Ultrasoft + core correction, Zval = 13.0
     Generated using "atomic" code by A. Dal Corso  v.5.0.99 svn rev. 10869
     Using radial grid of 1241 points,  6 beta functions with: 
                l(1) =   0
                l(2) =   0
                l(3) =   1
                l(4) =   1
                l(5) =   2
                l(6) =   2
     Q(r) pseudized with 0 coefficients 


     atomic species   valence    mass     pseudopotential
        In1           13.00   114.81800     In( 1.00)

     Starting magnetic structure 
     atomic species   magnetization
        In1          0.000

      4 Sym. Ops., with inversion, found



   Cartesian axes

     site n.     atom                  positions (alat units)
         1           In1 tau(   1) = (   0.0000000   0.0000000   0.0000000  )

     number of k points=     1  Gaussian smearing, width (Ry)=  0.0073
                       cart. coord. in units 2pi/alat
        k(    1) = (   0.0000000   0.0000000   0.0000000), wk =   1.0000000

     Dense  grid:    48911 G-vectors     FFT dimensions: (  54,  54,  54)

     Smooth grid:    17277 G-vectors     FFT dimensions: (  36,  40,  40)

     Estimated max dynamical RAM per process >     213.94 MB
     Generating pointlists ...
     new r_m :   1.5114 (alat units)  2.8561 (a.u.) for type    1

     Initial potential from superposition of free atoms

     starting charge   12.99628, renormalised to   13.00000
     Starting wfcs are    9 randomized atomic wfcs +   17 random wfcs

     total cpu time spent up to now is        2.6 secs

     Self-consistent Calculation

     iteration #  1     ecut=    65.00 Ry     beta= 0.50
     Davidson diagonalization with overlap
     ethr =  1.00E-02,  avg # of iterations =  7.0

     Threshold (ethr) on eigenvalues was too large:
     Diagonalizing with lowered threshold

     Davidson diagonalization with overlap
     ethr =  1.03E-04,  avg # of iterations = 13.0

     total cpu time spent up to now is        5.4 secs

     total energy              =    -144.67875739 Ry
     estimated scf accuracy    <       0.01361922 Ry

     total magnetization       =     0.00 Bohr mag/cell
     absolute magnetization    =     0.00 Bohr mag/cell

     iteration #  2     ecut=    65.00 Ry     beta= 0.50
     Davidson diagonalization with overlap
     ethr =  1.05E-04,  avg # of iterations =  1.5

     total cpu time spent up to now is        6.9 secs

     total energy              =    -144.68015117 Ry
     estimated scf accuracy    <       0.01348556 Ry

     total magnetization       =     0.00 Bohr mag/cell
     absolute magnetization    =     0.00 Bohr mag/cell

     iteration #  3     ecut=    65.00 Ry     beta= 0.50
     Davidson diagonalization with overlap
     ethr =  1.04E-04,  avg # of iterations =  1.0

     total cpu time spent up to now is        8.3 secs

     total energy              =    -144.68104010 Ry
     estimated scf accuracy    <       0.00033215 Ry

     total magnetization       =     0.00 Bohr mag/cell
     absolute magnetization    =     0.00 Bohr mag/cell

     iteration #  4     ecut=    65.00 Ry     beta= 0.50
     Davidson diagonalization with overlap
     ethr =  2.55E-06,  avg # of iterations = 10.5

     total cpu time spent up to now is        9.7 secs

     total energy              =    -144.68111608 Ry
     estimated scf accuracy    <       0.00006154 Ry

     total magnetization       =     0.01 Bohr mag/cell
     absolute magnetization    =     0.01 Bohr mag/cell

     iteration #  5     ecut=    65.00 Ry     beta= 0.50
     Davidson diagonalization with overlap
     ethr =  4.73E-07,  avg # of iterations =  2.0

     total cpu time spent up to now is       11.2 secs

     total energy              =    -144.68117237 Ry
     estimated scf accuracy    <       0.00003719 Ry

     total magnetization       =     0.07 Bohr mag/cell
     absolute magnetization    =     0.07 Bohr mag/cell

     iteration #  6     ecut=    65.00 Ry     beta= 0.50
     Davidson diagonalization with overlap
     ethr =  2.86E-07,  avg # of iterations =  1.0

     total cpu time spent up to now is       12.6 secs

     total energy              =    -144.68102406 Ry
     estimated scf accuracy    <       0.00014224 Ry

     total magnetization       =     0.24 Bohr mag/cell
     absolute magnetization    =     0.24 Bohr mag/cell

     iteration #  7     ecut=    65.00 Ry     beta= 0.50
     Davidson diagonalization with overlap
     ethr =  2.86E-07,  avg # of iterations =  1.0

     total cpu time spent up to now is       14.0 secs

     total energy              =    -144.68112680 Ry
     estimated scf accuracy    <       0.00000403 Ry

     total magnetization       =     0.02 Bohr mag/cell
     absolute magnetization    =     0.02 Bohr mag/cell

     iteration #  8     ecut=    65.00 Ry     beta= 0.50
     Davidson diagonalization with overlap
     ethr =  3.10E-08,  avg # of iterations =  1.0

     total cpu time spent up to now is       15.3 secs

     total energy              =    -144.68112563 Ry
     estimated scf accuracy    <       0.00000473 Ry

     total magnetization       =     0.01 Bohr mag/cell
     absolute magnetization    =     0.03 Bohr mag/cell

     iteration #  9     ecut=    65.00 Ry     beta= 0.50
     Davidson diagonalization with overlap
     ethr =  3.10E-08,  avg # of iterations =  1.0

     total cpu time spent up to now is       16.7 secs

     total energy              =    -144.68112723 Ry
     estimated scf accuracy    <       0.00000241 Ry

     total magnetization       =     0.00 Bohr mag/cell
     absolute magnetization    =     0.01 Bohr mag/cell

     iteration # 10     ecut=    65.00 Ry     beta= 0.50
     Davidson diagonalization with overlap
     ethr =  1.85E-08,  avg # of iterations =  1.0

     total cpu time spent up to now is       18.1 secs

     total energy              =    -144.68112741 Ry
     estimated scf accuracy    <       0.00000109 Ry

     total magnetization       =    -0.00 Bohr mag/cell
     absolute magnetization    =     0.01 Bohr mag/cell

     iteration # 11     ecut=    65.00 Ry     beta= 0.50
     Davidson diagonalization with overlap
     ethr =  8.38E-09,  avg # of iterations =  1.0

     total cpu time spent up to now is       19.5 secs

     total energy              =    -144.68112775 Ry
     estimated scf accuracy    <       0.00000101 Ry

     total magnetization       =     0.00 Bohr mag/cell
     absolute magnetization    =     0.00 Bohr mag/cell

     iteration # 12     ecut=    65.00 Ry     beta= 0.50
     Davidson diagonalization with overlap
     ethr =  7.77E-09,  avg # of iterations =  1.0

     total cpu time spent up to now is       20.9 secs

     total energy              =    -144.68112719 Ry
     estimated scf accuracy    <       0.00000034 Ry

     total magnetization       =     0.00 Bohr mag/cell
     absolute magnetization    =     0.01 Bohr mag/cell

     iteration # 13     ecut=    65.00 Ry     beta= 0.50
     Davidson diagonalization with overlap
     ethr =  2.59E-09,  avg # of iterations =  1.5

     total cpu time spent up to now is       22.2 secs

     total energy              =    -144.68112757 Ry
     estimated scf accuracy    <       0.00000013 Ry

     total magnetization       =    -0.00 Bohr mag/cell
     absolute magnetization    =     0.00 Bohr mag/cell

     iteration # 14     ecut=    65.00 Ry     beta= 0.50
     Davidson diagonalization with overlap
     ethr =  9.93E-10,  avg # of iterations =  1.0

     total cpu time spent up to now is       23.6 secs

     total energy              =    -144.68112756 Ry
     estimated scf accuracy    <       0.00000011 Ry

     total magnetization       =    -0.00 Bohr mag/cell
     absolute magnetization    =     0.00 Bohr mag/cell

     iteration # 15     ecut=    65.00 Ry     beta= 0.50
     Davidson diagonalization with overlap
     ethr =  8.21E-10,  avg # of iterations =  2.0

     Magnetic moment per site:
     atom:    1    charge:   12.1062    magn:    0.0001    constr:    0.0000

     total cpu time spent up to now is       25.0 secs

     End of self-consistent calculation

 ------ SPIN UP ------------


          k = 0.0000 0.0000 0.0000 (  2133 PWs)   bands (ev):

    -8.2432  -8.2151  -8.1999  -8.1621  -8.0902  -1.3547  14.0114  14.0280
    14.0354  17.3028  17.9167  17.9942  18.0308  18.7025  20.6110  21.5217
    22.1762  22.6970  23.3989  25.3722  37.9489  38.3163  39.0073  41.3869
    42.7034  43.6018

 ------ SPIN DOWN ----------


          k = 0.0000 0.0000 0.0000 (  2133 PWs)   bands (ev):

    -8.2432  -8.2151  -8.1999  -8.1621  -8.0902  -1.3547  14.0114  14.0280
    14.0354  17.3028  17.9167  17.9942  18.0308  18.7025  20.6110  21.5217
    22.1762  22.6970  23.3989  25.3722  37.9489  38.3163  39.0073  41.3869
    42.7034  43.6018

     the Fermi energy is    13.9559 ev

!    total energy              =    -144.68112758 Ry
     estimated scf accuracy    <          3.5E-09 Ry
     smearing contrib. (-TS)   =      -0.00771081 Ry
     internal energy E=F+TS    =    -144.67341677 Ry

     The total energy is F=E-TS. E is the sum of the following terms:
     one-electron contribution =     -58.30775860 Ry
     hartree contribution      =      39.23284213 Ry
     xc contribution           =     -47.51329423 Ry
     ewald contribution        =     -78.08520607 Ry

     total magnetization       =     0.00 Bohr mag/cell
     absolute magnetization    =     0.00 Bohr mag/cell

     convergence has been achieved in  15 iterations

     Forces acting on atoms (cartesian axes, Ry/au):

     atom    1 type  1   force =     0.00000000    0.00000000    0.00000000

     Total force =     0.000000     Total SCF correction =     0.000000


     Computing stress (Cartesian axis) and pressure

          total   stress  (Ry/bohr**3)                   (kbar)     P=        0.57
  -0.00040151   0.00001387   0.00000000          -59.06        2.04        0.00
   0.00001387   0.00041182  -0.00000000            2.04       60.58       -0.00
   0.00000000  -0.00000000   0.00000131            0.00       -0.00        0.19


     Writing output data file ./calc.save/

     init_run     :      2.38s CPU      2.49s WALL (       1 calls)
     electrons    :     19.67s CPU     22.55s WALL (       1 calls)
     forces       :      1.55s CPU      1.68s WALL (       1 calls)
     stress       :      3.08s CPU      3.43s WALL (       1 calls)

     Called by init_run:
     wfcinit      :      0.12s CPU      0.12s WALL (       1 calls)
     potinit      :      0.70s CPU      0.75s WALL (       1 calls)
     hinit0       :      1.30s CPU      1.31s WALL (       1 calls)

     Called by electrons:
     c_bands      :      3.98s CPU      4.01s WALL (      16 calls)
     sum_band     :      6.61s CPU      7.86s WALL (      16 calls)
     v_of_rho     :      5.54s CPU      5.85s WALL (      16 calls)
     newd         :      3.26s CPU      4.37s WALL (      16 calls)
     mix_rho      :      0.51s CPU      0.54s WALL (      16 calls)

     Called by c_bands:
     init_us_2    :      0.06s CPU      0.06s WALL (      70 calls)
     cegterg      :      3.89s CPU      3.92s WALL (      32 calls)

     Called by *egterg:
     cdiaghg      :      0.10s CPU      0.10s WALL (     123 calls)
     h_psi        :      3.45s CPU      3.47s WALL (     127 calls)
     s_psi        :      0.03s CPU      0.03s WALL (     127 calls)
     g_psi        :      0.02s CPU      0.02s WALL (      93 calls)

     Called by h_psi:
     h_psi:calbec :      0.05s CPU      0.05s WALL (     127 calls)
     vloc_psi     :      3.33s CPU      3.35s WALL (     127 calls)
     add_vuspsi   :      0.05s CPU      0.05s WALL (     127 calls)

     General routines
     calbec       :      0.08s CPU      0.08s WALL (     169 calls)
     fft          :      2.12s CPU      2.13s WALL (     440 calls)
     ffts         :      0.13s CPU      0.13s WALL (      64 calls)
     fftw         :      3.59s CPU      3.61s WALL (    4848 calls)
     interpolate  :      0.30s CPU      0.30s WALL (      32 calls)

     Parallel routines

     PWSCF        :     26.80s CPU     30.49s WALL


   This run was terminated on:  15:47: 5  20May2021            

=------------------------------------------------------------------------------=
   JOB DONE.
=------------------------------------------------------------------------------=
# python dir           : /home/lls34/GitHub/10_QE_Interface/ase-espresso/espresso
# espresso dir         : /opt/womble/qe-6.7/bin
# pseudo dir           : /home/lls34/programs/QuantumExpresso/pseudopotentials/use_pot
# ase-espresso version : 0.3.3


