--------------------------------------------------------------------------
[[54863,1],20]: A high-performance Open MPI point-to-point messaging module
was unable to find any relevant network interfaces:

Module: OpenFabrics (openib)
  Host: node7

Another transport will be used instead, although this may result in
lower performance.

NOTE: You can disable this warning by setting the MCA parameter
btl_base_warn_component_unused to 0.
--------------------------------------------------------------------------

     Program PWSCF v.6.7MaX starts on 16Jul2021 at  0:11:45 

     This program is part of the open-source Quantum ESPRESSO suite
     for quantum simulation of materials; please cite
         "P. Giannozzi et al., J. Phys.:Condens. Matter 21 395502 (2009);
         "P. Giannozzi et al., J. Phys.:Condens. Matter 29 465901 (2017);
          URL http://www.quantum-espresso.org", 
     in publications or presentations arising from this work. More details at
     http://www.quantum-espresso.org/quote

     Parallel version (MPI), running on    28 processors

     MPI processes distributed on     1 nodes
     R & G space division:  proc/nbgrp/npool/nimage =      28
     Reading input from pw.inp

     Current dimensions of program PWSCF are:
     Max number of different atomic species (ntypx) = 10
     Max number of k-points (npk) =  40000
     Max angular momentum in pseudopotentials (lmaxx) =  3
     Message from routine cell_base_init:
     DEPRECATED: use true lattice parameter, not A to a.u. conversion factor
     file In.UPF: wavefunction(s)  5S renormalized
     file O.UPF: wavefunction(s)  2P renormalized

     IMPORTANT: XC functional enforced from input :
     Exchange-correlation= PBE
                           (   1   4   3   4   0   0   0)
     Any further DFT definition will be discarded
     Please, verify this is what you really want


     Subspace diagonalization in iterative solution of the eigenvalue problem:
     a serial algorithm will be used


     Parallelization info
     --------------------
     sticks:   dense  smooth     PW     G-vecs:    dense   smooth      PW
     Min         609     304     80                51269    18126    2464
     Max         610     305     81                51272    18130    2467
     Sum       17077    8539   2257              1435587   507593   69037



     bravais-lattice index     =            0
     lattice parameter (alat)  =       1.8897  a.u.
     unit-cell volume          =    7169.5930 (a.u.)^3
     number of atoms/cell      =           80
     number of atomic types    =            2
     number of electrons       =       704.00
     number of Kohn-Sham states=          372
     kinetic-energy cutoff     =      65.0000  Ry
     charge density cutoff     =     520.0000  Ry
     scf convergence threshold =      7.3E-09
     mixing beta               =       0.5000
     number of iterations used =           10  plain     mixing
     Exchange-correlation= PBE
                           (   1   4   3   4   0   0   0)

     celldm(1)=   1.889726  celldm(2)=   0.000000  celldm(3)=   0.000000
     celldm(4)=   0.000000  celldm(5)=   0.000000  celldm(6)=   0.000000

     crystal axes: (cart. coord. in units of alat)
               a(1) = (  11.758272   0.000206   0.000142 )  
               a(2) = (   6.452193   9.829861   0.000142 )  
               a(3) = (   6.452193   3.482914   9.192142 )  

     reciprocal axes: (cart. coord. in units 2 pi/alat)
               b(1) = (  0.085048 -0.055824 -0.038546 )  
               b(2) = ( -0.000001  0.101732 -0.038546 )  
               b(3) = ( -0.000001 -0.000001  0.108790 )  


     PseudoPot. # 1 for In read from file:
     /home/lls34/programs/QuantumExpresso/pseudopotentials/use_pot/In.UPF
     MD5 check sum: b236236d7d320b3bac520569a9051741
     Pseudo is Ultrasoft + core correction, Zval = 13.0
     Generated using "atomic" code by A. Dal Corso  v.5.0.99 svn rev. 10869
     Using radial grid of 1241 points,  6 beta functions with: 
                l(1) =   0
                l(2) =   0
                l(3) =   1
                l(4) =   1
                l(5) =   2
                l(6) =   2
     Q(r) pseudized with 0 coefficients 


     PseudoPot. # 2 for O  read from file:
     /home/lls34/programs/QuantumExpresso/pseudopotentials/use_pot/O.UPF
     MD5 check sum: 3f94a2996a3169367d6eb21d9b593f20
     Pseudo is Projector augmented-wave + core cor, Zval =  6.0
     Generated using "atomic" code by A. Dal Corso  v.5.0.99 svn rev. 10869
     Shape of augmentation charge: BESSEL
     Using radial grid of 1095 points,  4 beta functions with: 
                l(1) =   0
                l(2) =   0
                l(3) =   1
                l(4) =   1
     Q(r) pseudized with 0 coefficients 


     atomic species   valence    mass     pseudopotential
        In1           13.00   114.81800     In( 1.00)
        O1             6.00    15.99900     O ( 1.00)

     Starting magnetic structure 
     atomic species   magnetization
        In1          0.000
        O1           0.000

     No symmetry found



   Cartesian axes

     site n.     atom                  positions (alat units)
         1           In1 tau(   1) = (  10.5600602   5.7060670   3.9399591  )
         2           In1 tau(   2) = (  16.4497798   5.7061700   3.9400302  )
         3           In1 tau(   3) = (  13.7967401  10.6209978   3.9400302  )
         4           In1 tau(   4) = (  19.6758761  10.6211006   3.9401012  )
         5           In1 tau(   5) = (  13.7967401   7.4475242   8.5360304  )
         6           In1 tau(   6) = (  19.6758761   7.4476270   8.5361014  )
         7           In1 tau(   7) = (  17.0228364  12.3624549   8.5361014  )
         8           In1 tau(   8) = (  22.9019725  12.3625577   8.5361724  )
         9           In1 tau(   9) = (   7.9263494   4.2786687   2.9543606  )
        10           In1 tau(  10) = (  13.8054855   4.2787715   2.9544316  )
        11           In1 tau(  11) = (  11.1524457   9.1935993   2.9544316  )
        12           In1 tau(  12) = (  17.0315818   9.1937021   2.9545026  )
        13           In1 tau(  13) = (  11.1524457   6.0201257   7.5504318  )
        14           In1 tau(  14) = (  17.0315818   6.0202285   7.5505028  )
        15           In1 tau(  15) = (  14.3785421  10.9350564   7.5505028  )
        16           In1 tau(  16) = (  20.2576781  10.9351592   7.5505738  )
        17           In1 tau(  17) = (   4.4049794   2.3778219   1.6418526  )
        18           In1 tau(  18) = (  10.2841154   2.3779247   1.6419236  )
        19           In1 tau(  19) = (   7.6310757   7.2927525   1.6419236  )
        20           In1 tau(  20) = (  13.5102117   7.2928553   1.6419946  )
        21           In1 tau(  21) = (   7.6310757   4.1192790   6.2379238  )
        22           In1 tau(  22) = (  13.5102118   4.1193818   6.2379948  )
        23           In1 tau(  23) = (  10.8571720   9.0342096   6.2379948  )
        24           In1 tau(  24) = (  16.7363081   9.0343124   6.2380658  )
        25           In1 tau(  25) = (   1.7606850   0.9504234   0.6562540  )
        26           In1 tau(  26) = (   7.6398211   0.9505262   0.6563250  )
        27           In1 tau(  27) = (   4.9867814   5.8653540   0.6563250  )
        28           In1 tau(  28) = (  10.8659174   5.8654568   0.6563960  )
        29           In1 tau(  29) = (   4.9867814   2.6918805   5.2523252  )
        30           In1 tau(  30) = (  10.8659174   2.6919833   5.2523962  )
        31           In1 tau(  31) = (   8.2128777   7.6068111   5.2523962  )
        32           In1 tau(  32) = (  14.0920138   7.6069139   5.2524672  )
        33           O1  tau(  33) = (   6.0224002   2.3094188   0.2146096  )
        34           O1  tau(  34) = (  11.9015363   2.3095216   0.2146806  )
        35           O1  tau(  35) = (   9.2484966   7.2243494   0.2146806  )
        36           O1  tau(  36) = (  15.1276326   7.2244522   0.2147516  )
        37           O1  tau(  37) = (   9.2484966   4.0508758   4.8106808  )
        38           O1  tau(  38) = (  15.1276326   4.0509787   4.8107518  )
        39           O1  tau(  39) = (  12.4745929   8.9658065   4.8107518  )
        40           O1  tau(  40) = (  18.3537290   8.9659093   4.8108228  )
        41           O1  tau(  41) = (   7.0960206   5.1209440   1.1491243  )
        42           O1  tau(  42) = (  12.9751566   5.1210468   1.1491953  )
        43           O1  tau(  43) = (  10.3221169  10.0358746   1.1491953  )
        44           O1  tau(  44) = (  16.2012530  10.0359774   1.1492663  )
        45           O1  tau(  45) = (  10.3221169   6.8624010   5.7451955  )
        46           O1  tau(  46) = (  16.2012530   6.8625039   5.7452665  )
        47           O1  tau(  47) = (  13.5482133  11.7773317   5.7452665  )
        48           O1  tau(  48) = (  19.4273493  11.7774345   5.7453375  )
        49           O1  tau(  49) = (   8.1748762   2.1808427   2.5126452  )
        50           O1  tau(  50) = (  14.0540123   2.1809455   2.5127162  )
        51           O1  tau(  51) = (  11.4009725   7.0957733   2.5127162  )
        52           O1  tau(  52) = (  17.2801086   7.0958762   2.5127872  )
        53           O1  tau(  53) = (  11.4009725   3.9222998   7.1087164  )
        54           O1  tau(  54) = (  17.2801086   3.9224026   7.1087874  )
        55           O1  tau(  55) = (  14.6270689   8.8372304   7.1087874  )
        56           O1  tau(  56) = (  20.5062049   8.8373332   7.1088584  )
        57           O1  tau(  57) = (   4.1564525   4.4756478   2.0835680  )
        58           O1  tau(  58) = (  10.0355886   4.4757506   2.0836389  )
        59           O1  tau(  59) = (   7.3825489   9.3905785   2.0836389  )
        60           O1  tau(  60) = (  13.2616849   9.3906813   2.0837099  )
        61           O1  tau(  61) = (   7.3825489   6.2171049   6.6796391  )
        62           O1  tau(  62) = (  13.2616849   6.2172077   6.6797101  )
        63           O1  tau(  63) = (  10.6086452  11.1320356   6.6797101  )
        64           O1  tau(  64) = (  16.4877813  11.1321384   6.6797811  )
        65           O1  tau(  65) = (   6.3089285   4.3470718   4.3816035  )
        66           O1  tau(  66) = (  12.1880646   4.3471746   4.3816745  )
        67           O1  tau(  67) = (   9.5350249   9.2620024   4.3816745  )
        68           O1  tau(  68) = (  15.4141609   9.2621052   4.3817455  )
        69           O1  tau(  69) = (   9.5350249   6.0885288   8.9776747  )
        70           O1  tau(  70) = (  15.4141609   6.0886317   8.9777457  )
        71           O1  tau(  71) = (  12.7611212  11.0034595   8.9777457  )
        72           O1  tau(  72) = (  18.6402573  11.0035623   8.9778167  )
        73           O1  tau(  73) = (   5.2353082   1.5355466   3.4470889  )
        74           O1  tau(  74) = (  11.1144442   1.5356494   3.4471599  )
        75           O1  tau(  75) = (   8.4614045   6.4504772   3.4471599  )
        76           O1  tau(  76) = (  14.3405406   6.4505800   3.4472309  )
        77           O1  tau(  77) = (   8.4614045   3.2770037   8.0431601  )
        78           O1  tau(  78) = (  14.3405406   3.2771065   8.0432311  )
        79           O1  tau(  79) = (  11.6875008   8.1919343   8.0432311  )
        80           O1  tau(  80) = (  17.5666369   8.1920371   8.0433021  )

     number of k points=    14  Gaussian smearing, width (Ry)=  0.0073
                       cart. coord. in units 2pi/alat
        k(    1) = (   0.0000000   0.0000000   0.0000000), wk =   0.0370370
        k(    2) = (  -0.0000004  -0.0000002   0.0362633), wk =   0.0740741
        k(    3) = (  -0.0000004   0.0339108  -0.0128485), wk =   0.0740741
        k(    4) = (  -0.0000009   0.0339105   0.0234147), wk =   0.0740741
        k(    5) = (  -0.0000000   0.0339110  -0.0491118), wk =   0.0740741
        k(    6) = (   0.0283493  -0.0186079  -0.0128485), wk =   0.0740741
        k(    7) = (   0.0283489  -0.0186082   0.0234147), wk =   0.0740741
        k(    8) = (   0.0283498  -0.0186077  -0.0491118), wk =   0.0740741
        k(    9) = (   0.0283489   0.0153028  -0.0256970), wk =   0.0740741
        k(   10) = (   0.0283484   0.0153026   0.0105662), wk =   0.0740741
        k(   11) = (   0.0283493   0.0153031  -0.0619603), wk =   0.0740741
        k(   12) = (   0.0283498  -0.0525187  -0.0000000), wk =   0.0740741
        k(   13) = (   0.0283493  -0.0525189   0.0362633), wk =   0.0740741
        k(   14) = (   0.0283502  -0.0525185  -0.0362633), wk =   0.0740741

     Dense  grid:  1435587 G-vectors     FFT dimensions: ( 162, 162, 162)

     Smooth grid:   507593 G-vectors     FFT dimensions: ( 120, 120, 120)

     Estimated max dynamical RAM per process >     728.81 MB

     Estimated total dynamical RAM >      19.93 GB
     Generating pointlists ...
     new r_m :   0.8898 (alat units)  1.6814 (a.u.) for type    1
     new r_m :   0.8898 (alat units)  1.6814 (a.u.) for type    2

     Initial potential from superposition of free atoms

     starting charge  703.88090, renormalised to  704.00000
     Starting wfcs are  480 randomized atomic wfcs
     Checking if some PAW data can be deallocated... 

     total cpu time spent up to now is       99.2 secs

     Self-consistent Calculation

     iteration #  1     ecut=    65.00 Ry     beta= 0.50
     Davidson diagonalization with overlap
     ethr =  1.00E-02,  avg # of iterations =  2.0

     total cpu time spent up to now is      310.1 secs

     total energy              =   -6627.37934932 Ry
     estimated scf accuracy    <      22.66562780 Ry

     total magnetization       =     0.00 Bohr mag/cell
     absolute magnetization    =     0.08 Bohr mag/cell

     iteration #  2     ecut=    65.00 Ry     beta= 0.50
     Davidson diagonalization with overlap
     ethr =  3.22E-03,  avg # of iterations =  4.0

     total cpu time spent up to now is      629.2 secs

     total energy              =   -6635.48664085 Ry
     estimated scf accuracy    <       8.36776172 Ry

     total magnetization       =     0.00 Bohr mag/cell
     absolute magnetization    =     0.05 Bohr mag/cell

     iteration #  3     ecut=    65.00 Ry     beta= 0.50
     Davidson diagonalization with overlap
     ethr =  1.19E-03,  avg # of iterations =  2.3

     total cpu time spent up to now is      875.8 secs

     total energy              =   -6636.77397044 Ry
     estimated scf accuracy    <       0.34009527 Ry

     total magnetization       =    -0.00 Bohr mag/cell
     absolute magnetization    =     0.04 Bohr mag/cell

     iteration #  4     ecut=    65.00 Ry     beta= 0.50
     Davidson diagonalization with overlap
     ethr =  4.83E-05,  avg # of iterations =  7.7

     total cpu time spent up to now is     1300.1 secs

     total energy              =   -6636.95301433 Ry
     estimated scf accuracy    <       0.81288089 Ry

     total magnetization       =     0.00 Bohr mag/cell
     absolute magnetization    =     0.01 Bohr mag/cell

     iteration #  5     ecut=    65.00 Ry     beta= 0.50
     Davidson diagonalization with overlap
     ethr =  4.83E-05,  avg # of iterations =  3.0

     total cpu time spent up to now is     1566.4 secs

     total energy              =   -6637.00750243 Ry
     estimated scf accuracy    <       0.07582701 Ry

     total magnetization       =    -0.00 Bohr mag/cell
     absolute magnetization    =     0.01 Bohr mag/cell

     iteration #  6     ecut=    65.00 Ry     beta= 0.50
     Davidson diagonalization with overlap
     c_bands:  1 eigenvalues not converged
     c_bands:  1 eigenvalues not converged
     c_bands:  1 eigenvalues not converged
     c_bands:  1 eigenvalues not converged
     ethr =  1.08E-05,  avg # of iterations = 10.0

     total cpu time spent up to now is     1980.5 secs

     total energy              =   -6637.03621575 Ry
     estimated scf accuracy    <       0.00710052 Ry

     total magnetization       =    -0.00 Bohr mag/cell
     absolute magnetization    =     0.01 Bohr mag/cell

     iteration #  7     ecut=    65.00 Ry     beta= 0.50
     Davidson diagonalization with overlap
     c_bands:  1 eigenvalues not converged
     c_bands:  2 eigenvalues not converged
     c_bands:  2 eigenvalues not converged
     c_bands:  1 eigenvalues not converged
     c_bands:  2 eigenvalues not converged
     c_bands:  2 eigenvalues not converged
     c_bands:  2 eigenvalues not converged
     ethr =  1.01E-06,  avg # of iterations =  8.8

     total cpu time spent up to now is     2315.3 secs

     total energy              =   -6637.03711991 Ry
     estimated scf accuracy    <       0.00100238 Ry

     total magnetization       =    -0.00 Bohr mag/cell
     absolute magnetization    =     0.00 Bohr mag/cell

     iteration #  8     ecut=    65.00 Ry     beta= 0.50
     Davidson diagonalization with overlap
     c_bands:  2 eigenvalues not converged
     c_bands:  3 eigenvalues not converged
     c_bands:  2 eigenvalues not converged
     c_bands:  2 eigenvalues not converged
     ethr =  1.42E-07,  avg # of iterations =  7.2

     total cpu time spent up to now is     2677.7 secs

     total energy              =   -6637.03742675 Ry
     estimated scf accuracy    <       0.00003949 Ry

     total magnetization       =    -0.00 Bohr mag/cell
     absolute magnetization    =     0.00 Bohr mag/cell

     iteration #  9     ecut=    65.00 Ry     beta= 0.50
     Davidson diagonalization with overlap
     ethr =  5.61E-09,  avg # of iterations =  5.2

     total cpu time spent up to now is     3084.4 secs

     total energy              =   -6637.03745899 Ry
     estimated scf accuracy    <       0.00000199 Ry

     total magnetization       =     0.00 Bohr mag/cell
     absolute magnetization    =     0.00 Bohr mag/cell

     iteration # 10     ecut=    65.00 Ry     beta= 0.50
     Davidson diagonalization with overlap
     ethr =  2.83E-10,  avg # of iterations =  5.0

     total cpu time spent up to now is     3440.8 secs

     total energy              =   -6637.03745894 Ry
     estimated scf accuracy    <       0.00000271 Ry

     total magnetization       =    -0.00 Bohr mag/cell
     absolute magnetization    =     0.00 Bohr mag/cell

     iteration # 11     ecut=    65.00 Ry     beta= 0.50
     Davidson diagonalization with overlap
     ethr =  2.83E-10,  avg # of iterations =  2.0

     total cpu time spent up to now is     3684.3 secs

     total energy              =   -6637.03745904 Ry
     estimated scf accuracy    <       0.00000042 Ry

     total magnetization       =    -0.00 Bohr mag/cell
     absolute magnetization    =     0.00 Bohr mag/cell

     iteration # 12     ecut=    65.00 Ry     beta= 0.50
     Davidson diagonalization with overlap
     ethr =  5.98E-11,  avg # of iterations =  5.4

     total cpu time spent up to now is     4010.6 secs

     total energy              =   -6637.03745919 Ry
     estimated scf accuracy    <          8.5E-09 Ry

     total magnetization       =     0.00 Bohr mag/cell
     absolute magnetization    =     0.00 Bohr mag/cell

     iteration # 13     ecut=    65.00 Ry     beta= 0.50
     Davidson diagonalization with overlap
     ethr =  1.21E-12,  avg # of iterations =  5.9

     Magnetic moment per site:
     atom:    1    charge:    9.3939    magn:   -0.0000    constr:    0.0000
     atom:    2    charge:    9.3938    magn:   -0.0000    constr:    0.0000
     atom:    3    charge:    9.3938    magn:   -0.0000    constr:    0.0000
     atom:    4    charge:    9.3938    magn:   -0.0000    constr:    0.0000
     atom:    5    charge:    9.3938    magn:   -0.0000    constr:    0.0000
     atom:    6    charge:    9.3938    magn:   -0.0000    constr:    0.0000
     atom:    7    charge:    9.3938    magn:    0.0000    constr:    0.0000
     atom:    8    charge:    9.3938    magn:   -0.0000    constr:    0.0000
     atom:    9    charge:    9.3938    magn:   -0.0000    constr:    0.0000
     atom:   10    charge:    9.3936    magn:   -0.0000    constr:    0.0000
     atom:   11    charge:    9.3937    magn:   -0.0000    constr:    0.0000
     atom:   12    charge:    9.3937    magn:   -0.0000    constr:    0.0000
     atom:   13    charge:    9.3936    magn:   -0.0000    constr:    0.0000
     atom:   14    charge:    9.3937    magn:   -0.0000    constr:    0.0000
     atom:   15    charge:    9.3937    magn:    0.0000    constr:    0.0000
     atom:   16    charge:    9.3937    magn:   -0.0000    constr:    0.0000
     atom:   17    charge:    9.3937    magn:   -0.0000    constr:    0.0000
     atom:   18    charge:    9.3936    magn:   -0.0000    constr:    0.0000
     atom:   19    charge:    9.3936    magn:   -0.0000    constr:    0.0000
     atom:   20    charge:    9.3936    magn:   -0.0000    constr:    0.0000
     atom:   21    charge:    9.3937    magn:   -0.0000    constr:    0.0000
     atom:   22    charge:    9.3936    magn:    0.0000    constr:    0.0000
     atom:   23    charge:    9.3936    magn:    0.0000    constr:    0.0000
     atom:   24    charge:    9.3936    magn:    0.0000    constr:    0.0000
     atom:   25    charge:    9.3938    magn:   -0.0000    constr:    0.0000
     atom:   26    charge:    9.3938    magn:   -0.0000    constr:    0.0000
     atom:   27    charge:    9.3938    magn:   -0.0000    constr:    0.0000
     atom:   28    charge:    9.3938    magn:    0.0000    constr:    0.0000
     atom:   29    charge:    9.3938    magn:   -0.0000    constr:    0.0000
     atom:   30    charge:    9.3938    magn:    0.0000    constr:    0.0000
     atom:   31    charge:    9.3939    magn:    0.0000    constr:    0.0000
     atom:   32    charge:    9.3938    magn:   -0.0000    constr:    0.0000
     atom:   33    charge:    5.8008    magn:    0.0000    constr:    0.0000
     atom:   34    charge:    5.8008    magn:    0.0000    constr:    0.0000
     atom:   35    charge:    5.8008    magn:   -0.0000    constr:    0.0000
     atom:   36    charge:    5.8008    magn:    0.0000    constr:    0.0000
     atom:   37    charge:    5.8020    magn:    0.0000    constr:    0.0000
     atom:   38    charge:    5.8008    magn:   -0.0000    constr:    0.0000
     atom:   39    charge:    5.8008    magn:    0.0000    constr:    0.0000
     atom:   40    charge:    5.8008    magn:    0.0000    constr:    0.0000
     atom:   41    charge:    5.8008    magn:    0.0000    constr:    0.0000
     atom:   42    charge:    5.8008    magn:    0.0000    constr:    0.0000
     atom:   43    charge:    5.8008    magn:    0.0000    constr:    0.0000
     atom:   44    charge:    5.8008    magn:    0.0000    constr:    0.0000
     atom:   45    charge:    5.8012    magn:    0.0000    constr:    0.0000
     atom:   46    charge:    5.8008    magn:   -0.0000    constr:    0.0000
     atom:   47    charge:    5.8008    magn:    0.0000    constr:    0.0000
     atom:   48    charge:    5.8008    magn:    0.0000    constr:    0.0000
     atom:   49    charge:    5.8008    magn:   -0.0000    constr:    0.0000
     atom:   50    charge:    5.8008    magn:    0.0000    constr:    0.0000
     atom:   51    charge:    5.7997    magn:    0.0000    constr:    0.0000
     atom:   52    charge:    5.8008    magn:    0.0000    constr:    0.0000
     atom:   53    charge:    5.8008    magn:   -0.0000    constr:    0.0000
     atom:   54    charge:    5.8008    magn:    0.0000    constr:    0.0000
     atom:   55    charge:    5.8008    magn:   -0.0000    constr:    0.0000
     atom:   56    charge:    5.8008    magn:   -0.0000    constr:    0.0000
     atom:   57    charge:    5.8008    magn:    0.0000    constr:    0.0000
     atom:   58    charge:    5.8013    magn:    0.0000    constr:    0.0000
     atom:   59    charge:    5.8008    magn:   -0.0000    constr:    0.0000
     atom:   60    charge:    5.8008    magn:    0.0000    constr:    0.0000
     atom:   61    charge:    5.8008    magn:    0.0000    constr:    0.0000
     atom:   62    charge:    5.8008    magn:    0.0000    constr:    0.0000
     atom:   63    charge:    5.8008    magn:   -0.0000    constr:    0.0000
     atom:   64    charge:    5.8008    magn:   -0.0000    constr:    0.0000
     atom:   65    charge:    5.8008    magn:   -0.0000    constr:    0.0000
     atom:   66    charge:    5.7986    magn:   -0.0000    constr:    0.0000
     atom:   67    charge:    5.8008    magn:   -0.0000    constr:    0.0000
     atom:   68    charge:    5.8008    magn:   -0.0000    constr:    0.0000
     atom:   69    charge:    5.8008    magn:    0.0000    constr:    0.0000
     atom:   70    charge:    5.8008    magn:    0.0000    constr:    0.0000
     atom:   71    charge:    5.8008    magn:    0.0000    constr:    0.0000
     atom:   72    charge:    5.8008    magn:   -0.0000    constr:    0.0000
     atom:   73    charge:    5.8008    magn:    0.0000    constr:    0.0000
     atom:   74    charge:    5.8008    magn:   -0.0000    constr:    0.0000
     atom:   75    charge:    5.8027    magn:   -0.0000    constr:    0.0000
     atom:   76    charge:    5.8008    magn:    0.0000    constr:    0.0000
     atom:   77    charge:    5.8008    magn:   -0.0000    constr:    0.0000
     atom:   78    charge:    5.8008    magn:    0.0000    constr:    0.0000
     atom:   79    charge:    5.8008    magn:   -0.0000    constr:    0.0000
     atom:   80    charge:    5.8008    magn:   -0.0000    constr:    0.0000

     total cpu time spent up to now is     4483.4 secs

     End of self-consistent calculation

 ------ SPIN UP ------------


          k = 0.0000 0.0000 0.0000 ( 63395 PWs)   bands (ev):

    -9.2337  -8.8511  -8.8480  -8.8470  -8.7347  -8.7285  -8.7275  -8.7272
    -8.7268  -8.7268  -8.7251  -8.7231  -8.6126  -8.6116  -8.6104  -8.4657
    -8.4648  -8.4623  -8.4457  -8.4443  -8.3660  -8.3623  -8.3604  -8.3602
    -8.3588  -8.3578  -8.3512  -8.3505  -8.3488  -8.3467  -8.3338  -8.3320
    -8.3310  -8.3282  -8.3277  -8.3254  -8.3216  -8.3211  -8.3203  -8.3197
    -8.3177  -8.3136  -8.2497  -8.2482  -8.1607  -8.1595  -8.1589  -8.1583
    -4.3162  -4.3161  -4.2846  -4.2845  -4.2842  -4.2681  -4.2676  -4.2671
    -4.2668  -4.2664  -4.2662  -4.2451  -4.2448  -4.2445  -4.2302  -4.2301
    -4.2178  -4.2175  -4.2175  -4.2155  -4.2154  -4.2150  -4.2149  -4.1932
    -4.1867  -4.1866  -4.1865  -4.1822  -4.1820  -4.1778  -4.1776  -4.1774
    -4.1579  -4.1576  -4.1571  -4.1568  -4.1565  -4.1563  -4.1392  -4.1391
    -4.1390  -4.1260  -4.1259  -4.1258  -4.1235  -4.1233  -4.1231  -4.1159
    -4.1157  -4.1155  -4.1151  -4.1148  -4.1146  -4.0954  -4.0952  -4.0950
    -4.0947  -4.0944  -4.0942  -4.0773  -4.0772  -4.0771  -4.0707  -4.0706
    -4.0703  -4.0702  -4.0643  -4.0511  -4.0510  -4.0168  -4.0162  -4.0156
    -4.0150  -4.0150  -4.0147  -4.0142  -4.0140  -3.9758  -3.9758  -3.9661
    -3.9660  -3.9660  -3.9650  -3.9649  -3.9648  -3.9642  -3.9641  -3.9639
    -3.9503  -3.9502  -3.9500  -3.9333  -3.9333  -3.9333  -3.9287  -3.9286
    -3.9285  -3.8888  -3.8887  -3.8883  -3.8882  -3.8760  -3.8759  -3.8745
    -3.8662  -3.8659  -3.8658  -3.8655  -3.8654  -3.8652  -3.8609  -3.8597
    -3.8596  -3.8593  -3.8591  -3.8587  -3.8586  -3.8470  -3.8469  -3.8469
    -3.8316  -3.8315  -3.8314  -3.7935  -3.7933  -3.7931  -3.7836  -3.7831
    -3.7322  -3.7321  -3.7320  -3.6898  -3.6896  -3.6892  -3.6005  -3.6002
    -3.4772  -3.4768  -3.4766  -3.4761  -3.4761  -3.4758  -3.3528  -3.3527
    -3.3518  -3.3518  -3.3175  -3.3172  -3.3170  -3.3055  -3.3048  -3.3046
    -3.3044  -3.3040  -3.3037  -2.9631  -2.9629  -2.8478  -2.8477  -2.8476
     2.6336   3.0028   3.1884   3.1892   3.1906   3.1911   3.1918   3.1926
     3.2100   3.2109   3.2115   3.2869   3.2888   3.7046   3.7060   3.7064
     3.9306   3.9323   3.9333   3.9336   3.9342   3.9346   4.2677   4.2687
     4.4437   4.4441   4.4450   4.4508   4.4509   4.4519   4.5735   4.5744
     4.8945   4.8976   4.8985   4.9681   5.2063   5.3157   5.3164   5.3183
     5.3184   5.3621   5.3624   5.3632   5.3816   5.3825   5.3838   5.4447
     5.4457   5.4464   5.4469   5.4481   5.4507   5.5938   5.5944   5.8035
     5.9236   5.9237   5.9249   5.9254   5.9258   5.9260   5.9328   5.9334
     5.9339   6.0363   6.0365   6.0382   6.2305   6.2312   6.2320   6.2323
     6.2340   6.6539   6.6550   6.6551   6.6553   6.6565   6.6570   7.0632
     7.0639   7.0643   7.0650   7.0665   7.0675   7.0677   7.1512   7.1521
     7.1530   7.1707   7.1714   7.1723   7.1726   7.1731   7.1743   7.1746
     7.1757   7.1761   7.2596   7.2635   7.2636   7.2641   7.2650   7.2664
     7.3061   7.3067   7.3079   7.3683   7.3699   7.3732   7.3749   7.3751
     7.3754   7.3757   7.3762   7.5641   7.5656   7.5664   7.6620   7.7412
     7.7421   7.7426   7.7485   7.7495   7.8553   7.8555   7.8980   7.8982
     7.9004   7.9005   7.9900   7.9905   7.9913   7.9995   8.0000   8.0274
     8.0279   8.0289   8.0293   8.0301   8.0307   8.0422   8.0431   8.0435
     9.0292  12.1665  12.1678  12.6905  12.6912  12.6917  12.6920  12.6928
    12.6937  12.8711  12.8715  12.8717  13.2477  13.2478  13.2490  13.4081
    13.6089  13.6094  13.6103  13.6107

          k =-0.0000-0.0000 0.0363 ( 63469 PWs)   bands (ev):

    -9.1648  -8.9779  -8.8440  -8.8408  -8.8396  -8.8074  -8.8043  -8.8029
    -8.6441  -8.6416  -8.6399  -8.6118  -8.6098  -8.6091  -8.4848  -8.4521
    -8.4499  -8.4446  -8.4369  -8.4303  -8.4129  -8.4106  -8.4056  -8.4012
    -8.3886  -8.3855  -8.3667  -8.3653  -8.3598  -8.3506  -8.3503  -8.3266
    -8.3243  -8.3233  -8.3218  -8.3203  -8.3190  -8.3081  -8.3037  -8.2679
    -8.2634  -8.2523  -8.2509  -8.2468  -8.1904  -8.1867  -8.1854  -8.1841
    -4.2999  -4.2900  -4.2856  -4.2812  -4.2809  -4.2795  -4.2786  -4.2781
    -4.2642  -4.2553  -4.2549  -4.2501  -4.2486  -4.2482  -4.2270  -4.2241
    -4.2231  -4.2226  -4.2158  -4.2156  -4.2106  -4.2071  -4.2009  -4.1983
    -4.1977  -4.1946  -4.1944  -4.1865  -4.1805  -4.1781  -4.1662  -4.1619
    -4.1616  -4.1611  -4.1609  -4.1545  -4.1541  -4.1539  -4.1502  -4.1493
    -4.1466  -4.1439  -4.1434  -4.1414  -4.1369  -4.1221  -4.1217  -4.1184
    -4.1172  -4.1168  -4.1037  -4.1014  -4.1012  -4.0988  -4.0926  -4.0923
    -4.0856  -4.0834  -4.0832  -4.0733  -4.0688  -4.0662  -4.0569  -4.0562
    -4.0467  -4.0430  -4.0369  -4.0317  -4.0277  -4.0271  -4.0268  -4.0225
    -4.0216  -4.0189  -4.0175  -4.0058  -4.0052  -3.9884  -3.9878  -3.9872
    -3.9871  -3.9824  -3.9714  -3.9708  -3.9691  -3.9685  -3.9597  -3.9594
    -3.9538  -3.9529  -3.9440  -3.9438  -3.9377  -3.9313  -3.9268  -3.9242
    -3.9098  -3.9028  -3.9013  -3.9008  -3.9002  -3.8951  -3.8941  -3.8938
    -3.8891  -3.8822  -3.8737  -3.8705  -3.8685  -3.8672  -3.8600  -3.8590
    -3.8587  -3.8578  -3.8447  -3.8443  -3.8400  -3.8398  -3.8310  -3.8227
    -3.8217  -3.8065  -3.8060  -3.7967  -3.7925  -3.7921  -3.7722  -3.7505
    -3.7280  -3.6956  -3.6900  -3.6892  -3.6647  -3.6260  -3.6248  -3.6243
    -3.5958  -3.5857  -3.5697  -3.5693  -3.5601  -3.5422  -3.5077  -3.5073
    -3.3654  -3.3647  -3.3267  -3.3263  -3.2647  -3.2192  -3.1999  -3.1213
    -3.1209  -3.1149  -3.0752  -3.0628  -2.9961  -2.9312  -2.9310  -2.9048
     2.7470   2.9952   3.0027   3.2062   3.2117   3.2152   3.3048   3.3064
     3.3105   3.3118   3.3840   3.3870   3.4965   3.5259   3.5767   3.5772
     3.6353   3.6364   3.7997   3.9356   3.9594   3.9607   3.9641   4.1334
     4.2506   4.2523   4.5249   4.5259   4.6138   4.6243   4.6326   4.6926
     4.7764   4.9843   4.9853   5.0990   5.1106   5.1263   5.1833   5.2839
     5.3115   5.3123   5.3220   5.3227   5.3657   5.3666   5.3955   5.4352
     5.5104   5.6202   5.6209   5.6565   5.6830   5.6894   5.8130   5.8140
     5.8441   5.8469   5.9718   5.9731   5.9738   6.0258   6.0263   6.1300
     6.1323   6.1638   6.1743   6.2039   6.2254   6.2517   6.2522   6.2652
     6.4156   6.4167   6.4834   6.5311   6.5399   6.5869   6.6418   6.6883
     6.6893   6.7811   6.7822   6.9009   6.9299   6.9373   6.9648   6.9652
     7.0098   7.0494   7.0506   7.1186   7.1191   7.1816   7.2073   7.2078
     7.2294   7.2306   7.2561   7.2591   7.2675   7.3023   7.3055   7.4349
     7.4392   7.4406   7.4739   7.4956   7.5361   7.5590   7.5603   7.5816
     7.5828   7.5836   7.6181   7.6289   7.6306   7.6575   7.6634   7.6641
     7.6737   7.7213   7.7226   7.7232   7.7882   7.7887   7.8022   7.8033
     7.8601   7.8854   7.9122   7.9124   7.9154   7.9179   7.9200   7.9207
     7.9320   7.9618   7.9630   7.9670   8.0122   8.0129   8.0405   8.0896
     9.9491  11.3471  12.1356  12.3785  12.3791  12.4936  12.5366  12.5370
    12.7634  13.2132  13.2137  13.4333  13.4338  13.5783  13.6002  13.6696
    13.6701  13.6730  13.7267  13.7428

          k =-0.0000 0.0339-0.0128 ( 63469 PWs)   bands (ev):

    -9.1648  -8.9780  -8.8439  -8.8406  -8.8397  -8.8073  -8.8042  -8.8030
    -8.6445  -8.6415  -8.6398  -8.6125  -8.6100  -8.6085  -8.4847  -8.4513
    -8.4496  -8.4452  -8.4357  -8.4314  -8.4127  -8.4100  -8.4047  -8.4013
    -8.3894  -8.3853  -8.3686  -8.3650  -8.3580  -8.3528  -8.3501  -8.3261
    -8.3249  -8.3232  -8.3218  -8.3204  -8.3187  -8.3088  -8.3030  -8.2674
    -8.2624  -8.2520  -8.2511  -8.2475  -8.1901  -8.1868  -8.1852  -8.1846
    -4.2999  -4.2900  -4.2857  -4.2811  -4.2808  -4.2796  -4.2786  -4.2781
    -4.2642  -4.2554  -4.2549  -4.2493  -4.2489  -4.2484  -4.2270  -4.2244
    -4.2233  -4.2225  -4.2157  -4.2155  -4.2105  -4.2071  -4.2009  -4.1983
    -4.1978  -4.1945  -4.1944  -4.1866  -4.1804  -4.1782  -4.1661  -4.1618
    -4.1615  -4.1611  -4.1609  -4.1547  -4.1541  -4.1537  -4.1502  -4.1495
    -4.1466  -4.1439  -4.1435  -4.1414  -4.1370  -4.1220  -4.1219  -4.1183
    -4.1172  -4.1169  -4.1038  -4.1015  -4.1012  -4.0988  -4.0926  -4.0924
    -4.0857  -4.0833  -4.0832  -4.0733  -4.0689  -4.0662  -4.0568  -4.0563
    -4.0467  -4.0430  -4.0370  -4.0316  -4.0276  -4.0271  -4.0268  -4.0222
    -4.0217  -4.0190  -4.0176  -4.0057  -4.0053  -3.9884  -3.9879  -3.9873
    -3.9870  -3.9823  -3.9715  -3.9706  -3.9690  -3.9686  -3.9598  -3.9594
    -3.9539  -3.9529  -3.9441  -3.9438  -3.9377  -3.9314  -3.9267  -3.9242
    -3.9098  -3.9029  -3.9014  -3.9006  -3.9002  -3.8949  -3.8944  -3.8939
    -3.8891  -3.8822  -3.8737  -3.8705  -3.8686  -3.8672  -3.8599  -3.8590
    -3.8586  -3.8578  -3.8446  -3.8443  -3.8400  -3.8397  -3.8310  -3.8226
    -3.8219  -3.8064  -3.8060  -3.7967  -3.7924  -3.7920  -3.7723  -3.7506
    -3.7280  -3.6956  -3.6898  -3.6893  -3.6647  -3.6258  -3.6247  -3.6243
    -3.5958  -3.5860  -3.5695  -3.5693  -3.5601  -3.5425  -3.5076  -3.5073
    -3.3652  -3.3649  -3.3268  -3.3263  -3.2647  -3.2191  -3.1998  -3.1214
    -3.1208  -3.1149  -3.0754  -3.0629  -2.9960  -2.9313  -2.9308  -2.9049
     2.7470   2.9953   3.0019   3.2059   3.2116   3.2158   3.3050   3.3063
     3.3096   3.3120   3.3863   3.3870   3.4960   3.5260   3.5756   3.5771
     3.6344   3.6364   3.8010   3.9350   3.9601   3.9607   3.9644   4.1343
     4.2507   4.2518   4.5248   4.5256   4.6145   4.6238   4.6327   4.6921
     4.7763   4.9845   4.9850   5.0984   5.1097   5.1268   5.1834   5.2842
     5.3116   5.3122   5.3222   5.3229   5.3653   5.3669   5.3950   5.4351
     5.5111   5.6203   5.6207   5.6561   5.6832   5.6900   5.8131   5.8139
     5.8439   5.8464   5.9715   5.9727   5.9735   6.0256   6.0264   6.1312
     6.1321   6.1636   6.1736   6.2038   6.2257   6.2514   6.2528   6.2651
     6.4159   6.4170   6.4837   6.5313   6.5397   6.5874   6.6420   6.6886
     6.6892   6.7807   6.7825   6.9016   6.9291   6.9373   6.9638   6.9657
     7.0097   7.0494   7.0510   7.1189   7.1197   7.1817   7.2067   7.2079
     7.2292   7.2309   7.2559   7.2589   7.2677   7.3034   7.3055   7.4353
     7.4387   7.4408   7.4734   7.4954   7.5353   7.5591   7.5607   7.5811
     7.5827   7.5843   7.6180   7.6283   7.6300   7.6572   7.6621   7.6648
     7.6741   7.7215   7.7224   7.7234   7.7880   7.7887   7.8018   7.8034
     7.8605   7.8855   7.9114   7.9130   7.9160   7.9181   7.9192   7.9208
     7.9323   7.9618   7.9631   7.9671   8.0118   8.0132   8.0406   8.0897
     9.9491  11.3470  12.1356  12.3785  12.3792  12.4936  12.5364  12.5372
    12.7634  13.2133  13.2136  13.4331  13.4338  13.5786  13.6002  13.6687
    13.6717  13.6725  13.7267  13.7426

          k =-0.0000 0.0339 0.0234 ( 63470 PWs)   bands (ev):

    -9.1469  -8.9557  -8.8766  -8.8724  -8.8636  -8.8614  -8.7807  -8.7774
    -8.6527  -8.6501  -8.5911  -8.5886  -8.5731  -8.5687  -8.5506  -8.4624
    -8.4569  -8.4543  -8.4401  -8.4365  -8.4264  -8.4239  -8.4213  -8.4064
    -8.3920  -8.3897  -8.3590  -8.3528  -8.3455  -8.3367  -8.3352  -8.3270
    -8.3222  -8.3133  -8.3047  -8.3003  -8.2982  -8.2847  -8.2842  -8.2825
    -8.2726  -8.2705  -8.2622  -8.2351  -8.2135  -8.1986  -8.1984  -8.1914
    -4.3092  -4.2935  -4.2834  -4.2786  -4.2751  -4.2748  -4.2738  -4.2733
    -4.2709  -4.2517  -4.2513  -4.2486  -4.2483  -4.2379  -4.2351  -4.2307
    -4.2257  -4.2162  -4.2129  -4.2113  -4.2109  -4.2063  -4.2023  -4.2019
    -4.1993  -4.1867  -4.1823  -4.1819  -4.1815  -4.1779  -4.1758  -4.1709
    -4.1691  -4.1687  -4.1663  -4.1580  -4.1576  -4.1482  -4.1477  -4.1475
    -4.1462  -4.1460  -4.1432  -4.1429  -4.1315  -4.1275  -4.1189  -4.1187
    -4.1146  -4.1061  -4.1060  -4.1010  -4.0993  -4.0990  -4.0970  -4.0966
    -4.0819  -4.0813  -4.0808  -4.0806  -4.0801  -4.0765  -4.0623  -4.0515
    -4.0481  -4.0350  -4.0340  -4.0326  -4.0323  -4.0306  -4.0191  -4.0144
    -4.0051  -4.0046  -4.0040  -4.0013  -4.0009  -3.9919  -3.9916  -3.9797
    -3.9788  -3.9783  -3.9772  -3.9742  -3.9738  -3.9719  -3.9601  -3.9596
    -3.9591  -3.9583  -3.9576  -3.9415  -3.9412  -3.9363  -3.9304  -3.9276
    -3.9196  -3.9080  -3.9031  -3.9026  -3.9023  -3.9007  -3.9005  -3.8903
    -3.8873  -3.8769  -3.8689  -3.8677  -3.8598  -3.8592  -3.8557  -3.8553
    -3.8526  -3.8520  -3.8484  -3.8475  -3.8467  -3.8455  -3.8450  -3.8129
    -3.8050  -3.8048  -3.7889  -3.7857  -3.7849  -3.7659  -3.7657  -3.7556
    -3.7461  -3.7459  -3.7177  -3.7175  -3.6908  -3.6740  -3.6706  -3.6513
    -3.6402  -3.6401  -3.5537  -3.5205  -3.5200  -3.5052  -3.4056  -3.4054
    -3.3807  -3.3097  -3.3074  -3.3070  -3.2571  -3.2261  -3.2256  -3.2009
    -3.2007  -3.1443  -3.0435  -3.0242  -2.9664  -2.9663  -2.9457  -2.8878
     2.7531   3.0201   3.0729   3.1356   3.1367   3.1634   3.3370   3.3788
     3.3805   3.3815   3.3959   3.3971   3.4050   3.4216   3.5322   3.6173
     3.6190   3.7417   3.7428   3.8938   4.0174   4.0446   4.0587   4.0593
     4.2125   4.2134   4.3977   4.4000   4.5603   4.6212   4.7937   4.8360
     4.9083   4.9399   5.0453   5.0732   5.0744   5.1782   5.1788   5.2222
     5.2246   5.2254   5.2795   5.2803   5.2915   5.3802   5.3825   5.3992
     5.4617   5.5394   5.6537   5.6542   5.7255   5.7398   5.7406   5.7858
     5.7921   5.7924   5.8813   5.9640   6.0606   6.0958   6.0962   6.1504
     6.1646   6.1803   6.2478   6.2521   6.2534   6.4276   6.4285   6.4331
     6.4540   6.4931   6.4937   6.4963   6.5160   6.7030   6.7198   6.7405
     6.7417   6.7915   6.7920   6.8531   6.9540   6.9545   6.9725   6.9780
     6.9807   7.0195   7.0201   7.0473   7.0481   7.0545   7.0799   7.0898
     7.1097   7.2360   7.2366   7.2377   7.2385   7.3045   7.3062   7.3068
     7.3878   7.4023   7.4346   7.4576   7.4596   7.4955   7.5206   7.5214
     7.5564   7.5982   7.6031   7.6261   7.6636   7.6652   7.6821   7.7095
     7.7118   7.7632   7.7656   7.7671   7.8038   7.8064   7.8106   7.8275
     7.8290   7.8989   7.8993   7.9070   7.9135   7.9341   7.9610   7.9614
     7.9742   7.9782   7.9790   7.9969   8.0088   8.0145   8.0572   8.0576
    10.1462  11.7343  11.7907  11.9674  12.0659  12.0663  13.0138  13.0593
    13.0597  13.3162  13.3166  13.3599  13.3606  13.5164  13.5170  13.5825
    13.6416  13.6836  13.6842  13.8722

          k =-0.0000 0.0339-0.0491 ( 63467 PWs)   bands (ev):

    -9.0588  -9.0119  -9.0117  -8.8861  -8.8827  -8.7273  -8.7183  -8.7156
    -8.7152  -8.7126  -8.7006  -8.5728  -8.5698  -8.4944  -8.4935  -8.4579
    -8.4484  -8.4274  -8.4220  -8.4201  -8.4195  -8.4175  -8.4137  -8.4120
    -8.3965  -8.3951  -8.3865  -8.3852  -8.3742  -8.3691  -8.3687  -8.3613
    -8.3124  -8.3090  -8.3047  -8.3031  -8.2994  -8.2621  -8.2598  -8.2580
    -8.2533  -8.2522  -8.2289  -8.2279  -8.2269  -8.2265  -8.2200  -8.2174
    -4.2919  -4.2917  -4.2820  -4.2816  -4.2769  -4.2749  -4.2693  -4.2689
    -4.2672  -4.2561  -4.2529  -4.2528  -4.2416  -4.2413  -4.2313  -4.2308
    -4.2257  -4.2250  -4.2214  -4.2204  -4.2201  -4.2138  -4.2067  -4.2064
    -4.1921  -4.1917  -4.1916  -4.1828  -4.1825  -4.1736  -4.1729  -4.1724
    -4.1632  -4.1629  -4.1608  -4.1574  -4.1569  -4.1566  -4.1535  -4.1532
    -4.1514  -4.1512  -4.1325  -4.1324  -4.1306  -4.1302  -4.1166  -4.1162
    -4.1116  -4.1110  -4.0958  -4.0956  -4.0941  -4.0932  -4.0931  -4.0911
    -4.0908  -4.0838  -4.0671  -4.0665  -4.0611  -4.0605  -4.0587  -4.0515
    -4.0444  -4.0286  -4.0280  -4.0270  -4.0266  -4.0197  -4.0193  -4.0113
    -4.0091  -4.0059  -4.0053  -4.0037  -4.0035  -4.0024  -3.9998  -3.9995
    -3.9852  -3.9844  -3.9841  -3.9809  -3.9743  -3.9741  -3.9647  -3.9646
    -3.9630  -3.9535  -3.9532  -3.9520  -3.9400  -3.9399  -3.9390  -3.9386
    -3.9254  -3.9251  -3.9211  -3.9207  -3.9189  -3.8878  -3.8876  -3.8827
    -3.8811  -3.8808  -3.8710  -3.8706  -3.8563  -3.8561  -3.8526  -3.8524
    -3.8474  -3.8472  -3.8384  -3.8352  -3.8339  -3.8335  -3.8303  -3.8302
    -3.7856  -3.7819  -3.7816  -3.7774  -3.7770  -3.7760  -3.7588  -3.7587
    -3.7428  -3.7425  -3.7166  -3.7163  -3.6884  -3.6801  -3.6796  -3.6603
    -3.6228  -3.6223  -3.6046  -3.6039  -3.5804  -3.4900  -3.4525  -3.4518
    -3.3608  -3.3604  -3.2764  -3.2508  -3.2500  -3.1818  -3.1815  -3.1485
    -3.1222  -3.0996  -3.0656  -3.0653  -2.9737  -2.9733  -2.9576  -2.9571
     2.9175   3.0066   3.0072   3.0324   3.1870   3.1881   3.2286   3.2298
     3.4644   3.4655   3.4974   3.5502   3.5524   3.5549   3.5564   3.6145
     3.7065   3.7081   3.7304   3.7311   3.7721   3.8892   3.9028   3.9035
     3.9319   4.2393   4.2405   4.6834   4.7787   4.7792   4.8919   4.8941
     4.9944   4.9963   5.0387   5.0509   5.0511   5.1494   5.1507   5.1768
     5.1781   5.1920   5.2698   5.3511   5.3515   5.3654   5.3662   5.3915
     5.5083   5.6338   5.6343   5.6812   5.6814   5.7589   5.7595   5.7695
     5.7700   5.8105   5.9035   5.9056   5.9472   5.9477   6.1479   6.1640
     6.1781   6.1788   6.2347   6.3367   6.3382   6.4211   6.4216   6.4793
     6.5154   6.5173   6.5180   6.5204   6.5207   6.5541   6.7079   6.7082
     6.7141   6.8683   6.8690   6.8827   6.8837   6.8867   6.8886   6.9172
     6.9185   7.0405   7.0435   7.0508   7.0515   7.1048   7.1058   7.1510
     7.1902   7.2044   7.2059   7.2169   7.2173   7.3493   7.3515   7.3552
     7.3564   7.3613   7.3617   7.3731   7.4131   7.4603   7.4608   7.5699
     7.5773   7.5783   7.6035   7.6047   7.6117   7.6544   7.7034   7.7051
     7.7176   7.7183   7.8209   7.8216   7.8267   7.8273   7.8299   7.8709
     7.8723   7.8810   7.8812   7.8987   7.8994   7.9236   7.9425   7.9447
     7.9454   7.9556   7.9581   7.9587   8.0019   8.0367   8.0368   8.0922
    10.8423  11.1960  11.1965  11.9970  11.9979  12.8894  12.8907  12.9164
    13.0071  13.0077  13.2721  13.2754  13.5470  13.5636  13.5642  13.6411
    13.6421  13.6767  13.6772  13.8510

          k = 0.0283-0.0186-0.0128 ( 63469 PWs)   bands (ev):

    -9.1648  -8.9779  -8.8436  -8.8410  -8.8396  -8.8069  -8.8047  -8.8029
    -8.6441  -8.6414  -8.6405  -8.6122  -8.6103  -8.6084  -8.4847  -8.4516
    -8.4491  -8.4456  -8.4359  -8.4311  -8.4124  -8.4103  -8.4045  -8.4013
    -8.3897  -8.3851  -8.3676  -8.3660  -8.3580  -8.3521  -8.3505  -8.3264
    -8.3247  -8.3232  -8.3224  -8.3212  -8.3173  -8.3091  -8.3030  -8.2676
    -8.2622  -8.2524  -8.2508  -8.2473  -8.1899  -8.1873  -8.1850  -8.1846
    -4.2998  -4.2900  -4.2857  -4.2812  -4.2807  -4.2798  -4.2785  -4.2780
    -4.2642  -4.2553  -4.2550  -4.2493  -4.2488  -4.2485  -4.2273  -4.2245
    -4.2232  -4.2221  -4.2157  -4.2156  -4.2106  -4.2072  -4.2008  -4.1981
    -4.1981  -4.1945  -4.1943  -4.1866  -4.1803  -4.1782  -4.1661  -4.1618
    -4.1614  -4.1613  -4.1609  -4.1546  -4.1541  -4.1539  -4.1499  -4.1498
    -4.1465  -4.1437  -4.1435  -4.1415  -4.1370  -4.1220  -4.1218  -4.1184
    -4.1172  -4.1169  -4.1038  -4.1015  -4.1013  -4.0988  -4.0926  -4.0922
    -4.0857  -4.0834  -4.0831  -4.0732  -4.0689  -4.0663  -4.0570  -4.0563
    -4.0467  -4.0430  -4.0370  -4.0316  -4.0274  -4.0272  -4.0269  -4.0220
    -4.0217  -4.0189  -4.0175  -4.0056  -4.0054  -3.9883  -3.9880  -3.9873
    -3.9870  -3.9825  -3.9714  -3.9707  -3.9689  -3.9686  -3.9597  -3.9595
    -3.9538  -3.9529  -3.9441  -3.9437  -3.9377  -3.9314  -3.9267  -3.9241
    -3.9098  -3.9028  -3.9010  -3.9007  -3.9005  -3.8947  -3.8944  -3.8941
    -3.8890  -3.8822  -3.8739  -3.8707  -3.8684  -3.8670  -3.8600  -3.8592
    -3.8587  -3.8577  -3.8446  -3.8444  -3.8399  -3.8397  -3.8309  -3.8224
    -3.8221  -3.8062  -3.8062  -3.7967  -3.7930  -3.7915  -3.7722  -3.7506
    -3.7280  -3.6956  -3.6897  -3.6894  -3.6647  -3.6258  -3.6245  -3.6243
    -3.5959  -3.5858  -3.5696  -3.5691  -3.5600  -3.5424  -3.5076  -3.5072
    -3.3654  -3.3648  -3.3268  -3.3265  -3.2647  -3.2190  -3.1997  -3.1212
    -3.1211  -3.1148  -3.0753  -3.0629  -2.9960  -2.9311  -2.9310  -2.9049
     2.7470   2.9952   3.0020   3.2056   3.2122   3.2155   3.3051   3.3066
     3.3102   3.3109   3.3860   3.3873   3.4962   3.5259   3.5756   3.5770
     3.6345   3.6364   3.8010   3.9352   3.9600   3.9610   3.9641   4.1343
     4.2504   4.2522   4.5248   4.5257   4.6145   4.6240   4.6326   4.6921
     4.7762   4.9841   4.9851   5.0988   5.1100   5.1265   5.1835   5.2840
     5.3108   5.3122   5.3218   5.3231   5.3661   5.3667   5.3947   5.4353
     5.5109   5.6201   5.6209   5.6558   5.6832   5.6901   5.8130   5.8142
     5.8439   5.8464   5.9720   5.9727   5.9731   6.0258   6.0266   6.1313
     6.1321   6.1635   6.1737   6.2039   6.2255   6.2518   6.2528   6.2650
     6.4158   6.4172   6.4840   6.5314   6.5398   6.5873   6.6419   6.6886
     6.6891   6.7812   6.7818   6.9018   6.9292   6.9374   6.9643   6.9648
     7.0096   7.0497   7.0507   7.1191   7.1194   7.1816   7.2067   7.2078
     7.2296   7.2305   7.2559   7.2588   7.2677   7.3031   7.3058   7.4354
     7.4396   7.4399   7.4735   7.4954   7.5353   7.5592   7.5606   7.5809
     7.5832   7.5838   7.6180   7.6286   7.6297   7.6573   7.6631   7.6636
     7.6740   7.7220   7.7222   7.7229   7.7879   7.7888   7.8019   7.8035
     7.8606   7.8855   7.9120   7.9125   7.9159   7.9185   7.9196   7.9201
     7.9323   7.9623   7.9628   7.9670   8.0123   8.0128   8.0406   8.0897
     9.9490  11.3470  12.1356  12.3786  12.3790  12.4937  12.5366  12.5369
    12.7633  13.2132  13.2137  13.4333  13.4338  13.5785  13.6002  13.6691
    13.6694  13.6720  13.7266  13.7419

          k = 0.0283-0.0186 0.0234 ( 63470 PWs)   bands (ev):

    -9.1469  -8.9557  -8.8753  -8.8734  -8.8635  -8.8617  -8.7798  -8.7783
    -8.6523  -8.6505  -8.5907  -8.5888  -8.5722  -8.5699  -8.5506  -8.4626
    -8.4565  -8.4546  -8.4391  -8.4375  -8.4265  -8.4241  -8.4212  -8.4065
    -8.3914  -8.3900  -8.3584  -8.3530  -8.3454  -8.3362  -8.3357  -8.3267
    -8.3224  -8.3136  -8.3047  -8.3004  -8.2984  -8.2854  -8.2843  -8.2816
    -8.2724  -8.2704  -8.2622  -8.2354  -8.2134  -8.1989  -8.1978  -8.1917
    -4.3092  -4.2934  -4.2834  -4.2787  -4.2755  -4.2743  -4.2738  -4.2735
    -4.2709  -4.2514  -4.2511  -4.2488  -4.2484  -4.2379  -4.2351  -4.2306
    -4.2257  -4.2164  -4.2130  -4.2113  -4.2110  -4.2063  -4.2023  -4.2017
    -4.1993  -4.1865  -4.1825  -4.1821  -4.1814  -4.1778  -4.1758  -4.1711
    -4.1689  -4.1686  -4.1664  -4.1582  -4.1575  -4.1482  -4.1477  -4.1475
    -4.1463  -4.1458  -4.1431  -4.1430  -4.1314  -4.1274  -4.1189  -4.1188
    -4.1147  -4.1062  -4.1060  -4.1010  -4.0993  -4.0991  -4.0970  -4.0965
    -4.0820  -4.0811  -4.0809  -4.0807  -4.0801  -4.0764  -4.0623  -4.0515
    -4.0480  -4.0349  -4.0341  -4.0328  -4.0323  -4.0304  -4.0191  -4.0143
    -4.0052  -4.0046  -4.0040  -4.0012  -4.0010  -3.9919  -3.9915  -3.9792
    -3.9791  -3.9784  -3.9773  -3.9741  -3.9738  -3.9719  -3.9601  -3.9599
    -3.9590  -3.9582  -3.9576  -3.9416  -3.9413  -3.9363  -3.9304  -3.9277
    -3.9195  -3.9081  -3.9033  -3.9026  -3.9022  -3.9007  -3.9004  -3.8903
    -3.8874  -3.8768  -3.8689  -3.8677  -3.8598  -3.8593  -3.8555  -3.8551
    -3.8527  -3.8519  -3.8486  -3.8474  -3.8467  -3.8455  -3.8450  -3.8129
    -3.8051  -3.8046  -3.7889  -3.7858  -3.7849  -3.7662  -3.7654  -3.7555
    -3.7460  -3.7459  -3.7177  -3.7175  -3.6907  -3.6741  -3.6707  -3.6512
    -3.6405  -3.6398  -3.5537  -3.5204  -3.5200  -3.5052  -3.4057  -3.4054
    -3.3808  -3.3098  -3.3077  -3.3065  -3.2571  -3.2261  -3.2259  -3.2010
    -3.2003  -3.1443  -3.0435  -3.0243  -2.9666  -2.9660  -2.9457  -2.8878
     2.7531   3.0201   3.0730   3.1358   3.1365   3.1634   3.3369   3.3786
     3.3808   3.3814   3.3957   3.3969   3.4051   3.4217   3.5321   3.6173
     3.6194   3.7415   3.7431   3.8938   4.0174   4.0447   4.0589   4.0592
     4.2126   4.2133   4.3982   4.3994   4.5603   4.6211   4.7936   4.8360
     4.9084   4.9397   5.0451   5.0735   5.0741   5.1774   5.1794   5.2221
     5.2249   5.2255   5.2795   5.2804   5.2917   5.3809   5.3820   5.3990
     5.4617   5.5394   5.6533   5.6545   5.7259   5.7399   5.7404   5.7860
     5.7918   5.7928   5.8816   5.9639   6.0606   6.0955   6.0963   6.1505
     6.1647   6.1802   6.2480   6.2518   6.2535   6.4278   6.4283   6.4333
     6.4538   6.4930   6.4938   6.4962   6.5160   6.7030   6.7197   6.7403
     6.7419   6.7910   6.7928   6.8531   6.9535   6.9551   6.9724   6.9781
     6.9808   7.0191   7.0203   7.0469   7.0482   7.0546   7.0800   7.0896
     7.1096   7.2358   7.2370   7.2375   7.2386   7.3045   7.3060   7.3069
     7.3876   7.4024   7.4347   7.4583   7.4593   7.4956   7.5208   7.5211
     7.5565   7.5981   7.6031   7.6260   7.6636   7.6653   7.6821   7.7093
     7.7120   7.7633   7.7661   7.7667   7.8038   7.8064   7.8105   7.8276
     7.8290   7.8989   7.8992   7.9071   7.9134   7.9341   7.9604   7.9620
     7.9743   7.9783   7.9788   7.9969   8.0089   8.0145   8.0564   8.0585
    10.1461  11.7342  11.7908  11.9674  12.0658  12.0664  13.0138  13.0592
    13.0599  13.3163  13.3167  13.3597  13.3607  13.5165  13.5168  13.5828
    13.6417  13.6837  13.6841  13.8718

          k = 0.0283-0.0186-0.0491 ( 63467 PWs)   bands (ev):

    -9.0589  -9.0131  -9.0104  -8.8851  -8.8838  -8.7273  -8.7184  -8.7153
    -8.7147  -8.7130  -8.7010  -8.5721  -8.5705  -8.4959  -8.4920  -8.4576
    -8.4487  -8.4266  -8.4230  -8.4204  -8.4190  -8.4175  -8.4132  -8.4121
    -8.3973  -8.3947  -8.3862  -8.3852  -8.3742  -8.3709  -8.3663  -8.3618
    -8.3112  -8.3100  -8.3057  -8.3033  -8.2987  -8.2629  -8.2597  -8.2578
    -8.2534  -8.2514  -8.2292  -8.2280  -8.2272  -8.2254  -8.2200  -8.2181
    -4.2922  -4.2912  -4.2819  -4.2818  -4.2772  -4.2749  -4.2689  -4.2688
    -4.2676  -4.2559  -4.2530  -4.2527  -4.2418  -4.2410  -4.2312  -4.2311
    -4.2254  -4.2249  -4.2219  -4.2206  -4.2197  -4.2137  -4.2067  -4.2065
    -4.1926  -4.1917  -4.1910  -4.1829  -4.1826  -4.1736  -4.1728  -4.1726
    -4.1632  -4.1629  -4.1607  -4.1572  -4.1569  -4.1568  -4.1534  -4.1532
    -4.1514  -4.1511  -4.1324  -4.1323  -4.1306  -4.1303  -4.1165  -4.1162
    -4.1115  -4.1110  -4.0960  -4.0958  -4.0942  -4.0932  -4.0929  -4.0912
    -4.0908  -4.0837  -4.0669  -4.0665  -4.0612  -4.0604  -4.0588  -4.0516
    -4.0444  -4.0286  -4.0276  -4.0272  -4.0267  -4.0197  -4.0194  -4.0115
    -4.0092  -4.0057  -4.0053  -4.0037  -4.0034  -4.0025  -3.9998  -3.9995
    -3.9854  -3.9844  -3.9840  -3.9808  -3.9743  -3.9743  -3.9646  -3.9645
    -3.9630  -3.9537  -3.9532  -3.9518  -3.9402  -3.9400  -3.9388  -3.9385
    -3.9253  -3.9252  -3.9212  -3.9208  -3.9188  -3.8879  -3.8875  -3.8827
    -3.8811  -3.8809  -3.8709  -3.8706  -3.8566  -3.8559  -3.8526  -3.8524
    -3.8473  -3.8472  -3.8384  -3.8352  -3.8339  -3.8336  -3.8304  -3.8302
    -3.7854  -3.7819  -3.7818  -3.7774  -3.7770  -3.7760  -3.7588  -3.7585
    -3.7428  -3.7425  -3.7166  -3.7163  -3.6885  -3.6800  -3.6797  -3.6601
    -3.6229  -3.6224  -3.6043  -3.6040  -3.5805  -3.4898  -3.4524  -3.4519
    -3.3611  -3.3601  -3.2766  -3.2506  -3.2502  -3.1818  -3.1814  -3.1485
    -3.1222  -3.0997  -3.0655  -3.0652  -2.9738  -2.9732  -2.9575  -2.9573
     2.9174   3.0066   3.0072   3.0324   3.1868   3.1885   3.2289   3.2295
     3.4642   3.4658   3.4973   3.5503   3.5518   3.5554   3.5563   3.6145
     3.7069   3.7076   3.7295   3.7320   3.7722   3.8894   3.9026   3.9038
     3.9317   4.2394   4.2405   4.6832   4.7776   4.7800   4.8923   4.8934
     4.9951   4.9958   5.0387   5.0505   5.0514   5.1498   5.1505   5.1769
     5.1781   5.1918   5.2701   5.3510   5.3516   5.3649   5.3665   5.3916
     5.5083   5.6335   5.6346   5.6809   5.6820   5.7590   5.7595   5.7692
     5.7700   5.8102   5.9043   5.9053   5.9468   5.9479   6.1479   6.1641
     6.1781   6.1788   6.2348   6.3367   6.3381   6.4211   6.4215   6.4796
     6.5156   6.5171   6.5174   6.5202   6.5208   6.5540   6.7077   6.7087
     6.7140   6.8682   6.8693   6.8827   6.8838   6.8871   6.8883   6.9173
     6.9183   7.0402   7.0434   7.0507   7.0518   7.1051   7.1055   7.1511
     7.1903   7.2049   7.2055   7.2159   7.2178   7.3494   7.3517   7.3553
     7.3560   7.3612   7.3621   7.3731   7.4131   7.4598   7.4615   7.5700
     7.5774   7.5782   7.6034   7.6050   7.6115   7.6545   7.7037   7.7045
     7.7177   7.7183   7.8207   7.8219   7.8266   7.8272   7.8298   7.8710
     7.8722   7.8802   7.8822   7.8989   7.8992   7.9235   7.9427   7.9447
     7.9453   7.9556   7.9581   7.9587   8.0019   8.0362   8.0372   8.0922
    10.8423  11.1958  11.1966  11.9972  11.9978  12.8894  12.8907  12.9164
    13.0071  13.0078  13.2722  13.2752  13.5470  13.5635  13.5643  13.6411
    13.6421  13.6768  13.6773  13.8509

          k = 0.0283 0.0153-0.0257 ( 63470 PWs)   bands (ev):

    -9.1470  -8.9561  -8.8753  -8.8728  -8.8633  -8.8613  -8.7799  -8.7778
    -8.6527  -8.6508  -8.5918  -8.5893  -8.5731  -8.5705  -8.5498  -8.4630
    -8.4565  -8.4547  -8.4381  -8.4363  -8.4254  -8.4238  -8.4201  -8.4055
    -8.3915  -8.3895  -8.3599  -8.3542  -8.3445  -8.3399  -8.3357  -8.3260
    -8.3225  -8.3137  -8.3059  -8.2997  -8.2980  -8.2852  -8.2844  -8.2817
    -8.2714  -8.2696  -8.2610  -8.2361  -8.2137  -8.1988  -8.1979  -8.1921
    -4.3092  -4.2934  -4.2836  -4.2786  -4.2755  -4.2742  -4.2738  -4.2735
    -4.2711  -4.2513  -4.2511  -4.2490  -4.2485  -4.2379  -4.2350  -4.2306
    -4.2258  -4.2162  -4.2129  -4.2113  -4.2109  -4.2063  -4.2024  -4.2017
    -4.1993  -4.1865  -4.1824  -4.1822  -4.1813  -4.1780  -4.1757  -4.1711
    -4.1689  -4.1686  -4.1663  -4.1582  -4.1573  -4.1484  -4.1478  -4.1473
    -4.1463  -4.1458  -4.1432  -4.1429  -4.1315  -4.1274  -4.1189  -4.1187
    -4.1146  -4.1061  -4.1060  -4.1011  -4.0993  -4.0990  -4.0970  -4.0964
    -4.0820  -4.0810  -4.0810  -4.0808  -4.0801  -4.0764  -4.0623  -4.0515
    -4.0480  -4.0348  -4.0341  -4.0331  -4.0323  -4.0305  -4.0191  -4.0143
    -4.0053  -4.0049  -4.0039  -4.0012  -4.0007  -3.9919  -3.9914  -3.9793
    -3.9791  -3.9784  -3.9772  -3.9743  -3.9736  -3.9719  -3.9605  -3.9596
    -3.9589  -3.9581  -3.9576  -3.9417  -3.9411  -3.9363  -3.9304  -3.9277
    -3.9195  -3.9081  -3.9032  -3.9025  -3.9023  -3.9009  -3.9004  -3.8903
    -3.8874  -3.8768  -3.8689  -3.8676  -3.8599  -3.8592  -3.8557  -3.8550
    -3.8528  -3.8519  -3.8485  -3.8474  -3.8467  -3.8455  -3.8450  -3.8129
    -3.8052  -3.8045  -3.7888  -3.7858  -3.7850  -3.7664  -3.7653  -3.7556
    -3.7461  -3.7459  -3.7177  -3.7175  -3.6906  -3.6739  -3.6708  -3.6512
    -3.6407  -3.6396  -3.5538  -3.5207  -3.5200  -3.5052  -3.4060  -3.4053
    -3.3810  -3.3095  -3.3072  -3.3063  -3.2569  -3.2263  -3.2261  -3.2009
    -3.2005  -3.1444  -3.0437  -3.0244  -2.9665  -2.9662  -2.9456  -2.8877
     2.7534   3.0206   3.0725   3.1351   3.1367   3.1632   3.3373   3.3792
     3.3807   3.3814   3.3948   3.3971   3.4046   3.4206   3.5323   3.6185
     3.6190   3.7425   3.7430   3.8943   4.0176   4.0450   4.0585   4.0596
     4.2130   4.2135   4.3978   4.4001   4.5598   4.6207   4.7933   4.8359
     4.9092   4.9389   5.0453   5.0729   5.0742   5.1783   5.1793   5.2215
     5.2243   5.2255   5.2793   5.2799   5.2918   5.3803   5.3819   5.3994
     5.4620   5.5400   5.6521   5.6546   5.7259   5.7404   5.7412   5.7852
     5.7911   5.7926   5.8818   5.9643   6.0595   6.0960   6.0964   6.1513
     6.1645   6.1803   6.2480   6.2521   6.2529   6.4273   6.4280   6.4337
     6.4542   6.4931   6.4933   6.4965   6.5157   6.7035   6.7198   6.7408
     6.7420   6.7920   6.7923   6.8534   6.9539   6.9549   6.9723   6.9771
     6.9813   7.0193   7.0203   7.0480   7.0484   7.0542   7.0801   7.0895
     7.1101   7.2357   7.2374   7.2379   7.2384   7.3046   7.3056   7.3067
     7.3878   7.4022   7.4350   7.4577   7.4590   7.4952   7.5193   7.5209
     7.5562   7.5985   7.6036   7.6261   7.6642   7.6651   7.6816   7.7094
     7.7123   7.7636   7.7659   7.7670   7.8041   7.8062   7.8097   7.8278
     7.8288   7.8989   7.8994   7.9069   7.9132   7.9341   7.9612   7.9617
     7.9741   7.9782   7.9790   7.9967   8.0089   8.0145   8.0567   8.0581
    10.1462  11.7342  11.7908  11.9674  12.0657  12.0664  13.0138  13.0595
    13.0598  13.3164  13.3168  13.3599  13.3606  13.5163  13.5168  13.5827
    13.6416  13.6833  13.6844  13.8718

          k = 0.0283 0.0153 0.0106 ( 63420 PWs)   bands (ev):

    -9.1690  -8.9875  -8.8382  -8.8351  -8.8341  -8.7967  -8.7940  -8.7929
    -8.6557  -8.6530  -8.6523  -8.6161  -8.6143  -8.6131  -8.4695  -8.4663
    -8.4651  -8.4531  -8.4400  -8.4372  -8.4364  -8.4326  -8.4314  -8.3984
    -8.3970  -8.3343  -8.3313  -8.3299  -8.3288  -8.3264  -8.3257  -8.3244
    -8.3239  -8.3224  -8.3208  -8.3190  -8.3159  -8.3003  -8.2989  -8.2670
    -8.2656  -8.2649  -8.2629  -8.2604  -8.2405  -8.1894  -8.1886  -8.1880
    -4.3045  -4.3044  -4.2810  -4.2805  -4.2800  -4.2771  -4.2766  -4.2761
    -4.2691  -4.2690  -4.2502  -4.2499  -4.2495  -4.2326  -4.2323  -4.2320
    -4.2286  -4.2283  -4.2279  -4.2167  -4.2102  -4.2100  -4.2099  -4.2053
    -4.1983  -4.1778  -4.1776  -4.1775  -4.1762  -4.1753  -4.1747  -4.1691
    -4.1688  -4.1660  -4.1655  -4.1521  -4.1513  -4.1509  -4.1305  -4.1302
    -4.1299  -4.1290  -4.1217  -4.1215  -4.1214  -4.1152  -4.1149  -4.1146
    -4.1132  -4.1129  -4.1126  -4.1002  -4.1000  -4.1000  -4.0888  -4.0884
    -4.0883  -4.0880  -4.0878  -4.0876  -4.0873  -4.0871  -4.0699  -4.0695
    -4.0484  -4.0483  -4.0478  -4.0458  -4.0455  -4.0234  -4.0232  -4.0167
    -4.0161  -4.0158  -3.9853  -3.9851  -3.9848  -3.9786  -3.9784  -3.9781
    -3.9717  -3.9711  -3.9708  -3.9674  -3.9674  -3.9671  -3.9621  -3.9618
    -3.9521  -3.9515  -3.9511  -3.9386  -3.9380  -3.9376  -3.9350  -3.9348
    -3.9347  -3.9263  -3.9259  -3.9004  -3.9002  -3.9000  -3.8733  -3.8730
    -3.8707  -3.8704  -3.8645  -3.8643  -3.8641  -3.8607  -3.8604  -3.8601
    -3.8549  -3.8547  -3.8544  -3.8521  -3.8413  -3.8412  -3.8409  -3.8229
    -3.8204  -3.8104  -3.8098  -3.8094  -3.8008  -3.8004  -3.8000  -3.7748
    -3.7363  -3.7356  -3.7354  -3.7025  -3.7020  -3.7017  -3.6385  -3.6383
    -3.6379  -3.5759  -3.5753  -3.4956  -3.4948  -3.4780  -3.4778  -3.4773
    -3.3161  -3.3157  -3.3154  -3.2977  -3.2974  -3.2971  -3.1739  -3.1733
    -3.1056  -3.1055  -3.1053  -3.0226  -3.0223  -2.9194  -2.9193  -2.9192
     2.7073   2.9285   3.0627   3.0638   3.0643   3.1326   3.1336   3.1341
     3.1989   3.5450   3.5461   3.5467   3.7219   3.7235   3.7239   3.7489
     3.7805   3.7833   3.7849   3.7855   4.0299   4.0308   4.0317   4.1859
     4.1882   4.1888   4.3931   4.3943   4.3945   4.4676   4.4693   4.4697
     4.7598   4.7612   4.9922   4.9927   4.9936   5.2055   5.2068   5.2082
     5.3950   5.3956   5.3960   5.4836   5.4852   5.4858   5.5206   5.5528
     5.5537   5.5547   5.6269   5.6275   5.6276   5.6743   5.7296   5.7310
     5.8351   5.8378   5.8734   6.0529   6.1027   6.1044   6.1052   6.1981
     6.1994   6.1998   6.2577   6.2592   6.2603   6.2920   6.3481   6.3486
     6.3491   6.3761   6.3771   6.3777   6.6602   6.6618   6.7677   6.7692
     6.7697   6.8728   6.8734   6.8738   6.8991   6.9006   6.9008   6.9146
     6.9153   6.9158   6.9163   6.9442   6.9450   6.9455   7.0228   7.0235
     7.1764   7.1770   7.1774   7.2146   7.2153   7.2160   7.4029   7.4045
     7.4054   7.4821   7.4833   7.4844   7.5347   7.5357   7.5363   7.5710
     7.5719   7.6972   7.6982   7.6986   7.7085   7.7099   7.7626   7.7636
     7.7641   7.7658   7.7664   7.7669   7.8227   7.8231   7.8590   7.8604
     7.8612   7.9157   7.9162   7.9344   7.9358   7.9364   7.9625   7.9639
     7.9644   7.9796   7.9800   7.9909   7.9916   7.9922   7.9968   7.9977
     9.8431  11.0583  12.5572  12.5574  12.5580  12.6958  12.6961  12.6966
    12.9594  13.1313  13.1314  13.1321  13.3436  13.3441  13.3443  13.3876
    13.3880  13.7304  13.7308  13.7321

          k = 0.0283 0.0153-0.0620 ( 63467 PWs)   bands (ev):

    -9.0666  -9.0174  -9.0073  -8.8753  -8.8733  -8.7290  -8.7263  -8.7232
    -8.7055  -8.7040  -8.7008  -8.5840  -8.5820  -8.4930  -8.4894  -8.4557
    -8.4510  -8.4483  -8.4470  -8.4454  -8.4364  -8.4293  -8.4207  -8.3858
    -8.3840  -8.3709  -8.3683  -8.3654  -8.3620  -8.3585  -8.3563  -8.3347
    -8.3336  -8.3110  -8.2981  -8.2903  -8.2883  -8.2725  -8.2710  -8.2567
    -8.2448  -8.2419  -8.2401  -8.2393  -8.2362  -8.2329  -8.2282  -8.2263
    -4.3002  -4.2989  -4.2793  -4.2783  -4.2782  -4.2778  -4.2751  -4.2729
    -4.2576  -4.2519  -4.2442  -4.2410  -4.2405  -4.2395  -4.2388  -4.2321
    -4.2300  -4.2249  -4.2237  -4.2205  -4.2197  -4.2194  -4.2163  -4.2101
    -4.1906  -4.1904  -4.1895  -4.1762  -4.1759  -4.1747  -4.1651  -4.1629
    -4.1611  -4.1606  -4.1577  -4.1571  -4.1569  -4.1510  -4.1501  -4.1497
    -4.1451  -4.1403  -4.1323  -4.1321  -4.1288  -4.1193  -4.1189  -4.1168
    -4.1162  -4.1074  -4.1068  -4.1050  -4.1045  -4.0969  -4.0924  -4.0916
    -4.0826  -4.0816  -4.0815  -4.0809  -4.0772  -4.0712  -4.0651  -4.0588
    -4.0563  -4.0560  -4.0440  -4.0278  -4.0273  -4.0206  -4.0162  -4.0116
    -4.0052  -3.9977  -3.9971  -3.9951  -3.9947  -3.9888  -3.9881  -3.9832
    -3.9830  -3.9726  -3.9720  -3.9711  -3.9695  -3.9644  -3.9576  -3.9564
    -3.9534  -3.9502  -3.9494  -3.9490  -3.9455  -3.9395  -3.9393  -3.9358
    -3.9300  -3.9192  -3.9074  -3.9071  -3.8953  -3.8829  -3.8823  -3.8808
    -3.8792  -3.8789  -3.8738  -3.8675  -3.8670  -3.8652  -3.8622  -3.8620
    -3.8595  -3.8504  -3.8468  -3.8464  -3.8405  -3.8392  -3.8387  -3.8152
    -3.8149  -3.8117  -3.8077  -3.7773  -3.7763  -3.7741  -3.7718  -3.7717
    -3.7613  -3.7589  -3.7131  -3.7120  -3.7047  -3.6800  -3.6762  -3.6645
    -3.6635  -3.6271  -3.6269  -3.5202  -3.4949  -3.4944  -3.4397  -3.3727
    -3.3724  -3.3711  -3.3586  -3.3013  -3.2739  -3.1723  -3.1716  -3.1320
    -3.0729  -3.0725  -3.0377  -3.0375  -3.0169  -3.0112  -2.9629  -2.9558
     2.8925   2.8977   2.9268   3.1491   3.1508   3.2116   3.2881   3.2923
     3.3237   3.3245   3.4400   3.4412   3.4774   3.6959   3.7599   3.7610
     3.7828   3.7842   3.8052   3.8061   3.8114   3.8127   3.9039   3.9676
     4.1206   4.1212   4.2777   4.5361   4.5385   4.6896   4.7079   4.7545
     4.8372   4.8952   5.0253   5.0264   5.1395   5.1401   5.1574   5.1787
     5.2342   5.3416   5.3551   5.3557   5.3571   5.3584   5.4522   5.5435
     5.5715   5.5970   5.6043   5.6051   5.6420   5.6434   5.6737   5.6893
     5.8741   6.0058   6.1154   6.1173   6.1258   6.1263   6.1378   6.1405
     6.2706   6.3087   6.3102   6.3110   6.3116   6.3335   6.3508   6.3607
     6.4015   6.4884   6.5111   6.5120   6.5425   6.6176   6.6629   6.6643
     6.6656   6.6926   6.7216   6.7227   6.8103   6.8395   6.8887   6.8894
     6.9146   6.9162   6.9184   6.9876   6.9889   7.0089   7.0711   7.1404
     7.1754   7.1760   7.2614   7.2626   7.2656   7.3309   7.3480   7.3562
     7.4120   7.4154   7.4164   7.5416   7.5447   7.5456   7.5787   7.5828
     7.6130   7.6203   7.6711   7.6725   7.6791   7.6988   7.7019   7.7266
     7.7276   7.7900   7.7918   7.7946   7.8200   7.8264   7.8424   7.8496
     7.8504   7.8518   7.8527   7.9153   7.9342   7.9371   7.9385   7.9408
     7.9432   7.9444   7.9489   7.9531   7.9548   7.9556   7.9966   8.0490
    10.7288  11.0812  11.2606  12.1411  12.1418  12.8163  12.9616  12.9618
    13.2338  13.2707  13.2716  13.3688  13.3690  13.4091  13.4475  13.4479
    13.4732  13.5109  13.7220  13.7223

          k = 0.0283-0.0525-0.0000 ( 63467 PWs)   bands (ev):

    -9.0588  -9.0133  -9.0106  -8.8851  -8.8830  -8.7262  -8.7190  -8.7155
    -8.7139  -8.7135  -8.7019  -8.5729  -8.5712  -8.4944  -8.4923  -8.4565
    -8.4474  -8.4286  -8.4224  -8.4202  -8.4188  -8.4177  -8.4136  -8.4125
    -8.3971  -8.3951  -8.3862  -8.3855  -8.3750  -8.3682  -8.3675  -8.3633
    -8.3117  -8.3093  -8.3052  -8.3038  -8.2980  -8.2623  -8.2603  -8.2567
    -8.2534  -8.2520  -8.2288  -8.2279  -8.2266  -8.2263  -8.2202  -8.2187
    -4.2923  -4.2911  -4.2820  -4.2818  -4.2771  -4.2747  -4.2690  -4.2689
    -4.2677  -4.2559  -4.2530  -4.2528  -4.2417  -4.2410  -4.2313  -4.2310
    -4.2254  -4.2250  -4.2216  -4.2206  -4.2200  -4.2135  -4.2067  -4.2065
    -4.1924  -4.1918  -4.1913  -4.1828  -4.1826  -4.1735  -4.1727  -4.1724
    -4.1632  -4.1629  -4.1607  -4.1571  -4.1569  -4.1568  -4.1535  -4.1532
    -4.1513  -4.1512  -4.1325  -4.1324  -4.1307  -4.1303  -4.1166  -4.1162
    -4.1114  -4.1110  -4.0959  -4.0957  -4.0943  -4.0933  -4.0930  -4.0912
    -4.0909  -4.0837  -4.0668  -4.0665  -4.0614  -4.0602  -4.0587  -4.0515
    -4.0445  -4.0286  -4.0278  -4.0273  -4.0267  -4.0196  -4.0193  -4.0115
    -4.0093  -4.0056  -4.0052  -4.0037  -4.0033  -4.0026  -3.9997  -3.9995
    -3.9853  -3.9846  -3.9838  -3.9810  -3.9744  -3.9742  -3.9646  -3.9645
    -3.9630  -3.9538  -3.9531  -3.9518  -3.9404  -3.9399  -3.9388  -3.9384
    -3.9253  -3.9251  -3.9213  -3.9206  -3.9188  -3.8879  -3.8876  -3.8827
    -3.8811  -3.8809  -3.8709  -3.8705  -3.8565  -3.8559  -3.8527  -3.8523
    -3.8474  -3.8472  -3.8384  -3.8352  -3.8340  -3.8335  -3.8304  -3.8302
    -3.7856  -3.7819  -3.7817  -3.7774  -3.7770  -3.7759  -3.7588  -3.7586
    -3.7429  -3.7422  -3.7166  -3.7165  -3.6886  -3.6799  -3.6795  -3.6603
    -3.6228  -3.6224  -3.6045  -3.6039  -3.5802  -3.4898  -3.4528  -3.4519
    -3.3611  -3.3601  -3.2767  -3.2505  -3.2500  -3.1818  -3.1814  -3.1483
    -3.1221  -3.0998  -3.0655  -3.0653  -2.9738  -2.9730  -2.9576  -2.9573
     2.9172   3.0067   3.0081   3.0327   3.1863   3.1875   3.2284   3.2295
     3.4643   3.4656   3.4959   3.5511   3.5526   3.5557   3.5563   3.6154
     3.7068   3.7084   3.7304   3.7310   3.7720   3.8899   3.9024   3.9038
     3.9315   4.2401   4.2405   4.6836   4.7776   4.7798   4.8917   4.8925
     4.9951   4.9967   5.0392   5.0506   5.0513   5.1492   5.1503   5.1764
     5.1775   5.1923   5.2696   5.3506   5.3511   5.3653   5.3669   5.3916
     5.5088   5.6331   5.6342   5.6814   5.6820   5.7585   5.7589   5.7693
     5.7698   5.8104   5.9038   5.9052   5.9474   5.9480   6.1478   6.1642
     6.1785   6.1788   6.2352   6.3369   6.3381   6.4212   6.4222   6.4796
     6.5150   6.5169   6.5175   6.5202   6.5212   6.5541   6.7069   6.7088
     6.7136   6.8678   6.8696   6.8831   6.8836   6.8878   6.8889   6.9179
     6.9187   7.0403   7.0439   7.0504   7.0519   7.1046   7.1053   7.1507
     7.1904   7.2051   7.2060   7.2160   7.2180   7.3494   7.3517   7.3555
     7.3563   7.3609   7.3617   7.3731   7.4116   7.4599   7.4615   7.5700
     7.5775   7.5781   7.6039   7.6051   7.6119   7.6533   7.7036   7.7047
     7.7166   7.7185   7.8202   7.8221   7.8269   7.8272   7.8301   7.8710
     7.8722   7.8803   7.8825   7.8989   7.8992   7.9230   7.9429   7.9448
     7.9451   7.9561   7.9582   7.9587   8.0022   8.0363   8.0367   8.0923
    10.8423  11.1957  11.1968  11.9972  11.9978  12.8894  12.8907  12.9160
    13.0072  13.0079  13.2724  13.2754  13.5472  13.5635  13.5643  13.6409
    13.6419  13.6766  13.6771  13.8510

          k = 0.0283-0.0525 0.0363 ( 63467 PWs)   bands (ev):

    -9.0668  -9.0172  -9.0071  -8.8755  -8.8737  -8.7303  -8.7245  -8.7234
    -8.7071  -8.7037  -8.6998  -8.5831  -8.5815  -8.4946  -8.4893  -8.4563
    -8.4506  -8.4484  -8.4472  -8.4455  -8.4372  -8.4288  -8.4188  -8.3870
    -8.3835  -8.3712  -8.3687  -8.3648  -8.3620  -8.3579  -8.3558  -8.3353
    -8.3337  -8.3099  -8.2990  -8.2912  -8.2884  -8.2736  -8.2706  -8.2566
    -8.2445  -8.2421  -8.2402  -8.2382  -8.2359  -8.2327  -8.2284  -8.2267
    -4.3002  -4.2988  -4.2793  -4.2784  -4.2782  -4.2779  -4.2751  -4.2728
    -4.2576  -4.2519  -4.2444  -4.2409  -4.2404  -4.2393  -4.2388  -4.2320
    -4.2297  -4.2250  -4.2240  -4.2203  -4.2198  -4.2194  -4.2165  -4.2100
    -4.1908  -4.1905  -4.1896  -4.1762  -4.1759  -4.1746  -4.1649  -4.1628
    -4.1612  -4.1607  -4.1575  -4.1571  -4.1569  -4.1510  -4.1502  -4.1496
    -4.1451  -4.1404  -4.1322  -4.1321  -4.1288  -4.1193  -4.1189  -4.1169
    -4.1163  -4.1073  -4.1068  -4.1049  -4.1046  -4.0971  -4.0924  -4.0916
    -4.0827  -4.0816  -4.0814  -4.0808  -4.0771  -4.0710  -4.0651  -4.0588
    -4.0564  -4.0559  -4.0440  -4.0276  -4.0273  -4.0205  -4.0162  -4.0116
    -4.0053  -3.9976  -3.9973  -3.9950  -3.9947  -3.9886  -3.9883  -3.9832
    -3.9829  -3.9725  -3.9719  -3.9714  -3.9694  -3.9644  -3.9575  -3.9564
    -3.9534  -3.9501  -3.9495  -3.9491  -3.9455  -3.9396  -3.9395  -3.9358
    -3.9300  -3.9192  -3.9076  -3.9071  -3.8953  -3.8828  -3.8824  -3.8808
    -3.8793  -3.8790  -3.8738  -3.8673  -3.8672  -3.8652  -3.8622  -3.8619
    -3.8595  -3.8504  -3.8468  -3.8465  -3.8404  -3.8392  -3.8387  -3.8152
    -3.8149  -3.8118  -3.8076  -3.7771  -3.7764  -3.7741  -3.7718  -3.7716
    -3.7614  -3.7589  -3.7132  -3.7120  -3.7049  -3.6798  -3.6764  -3.6643
    -3.6636  -3.6272  -3.6267  -3.5200  -3.4949  -3.4944  -3.4400  -3.3729
    -3.3724  -3.3708  -3.3585  -3.3013  -3.2739  -3.1720  -3.1717  -3.1322
    -3.0729  -3.0726  -3.0378  -3.0374  -3.0169  -3.0111  -2.9628  -2.9560
     2.8927   2.8972   2.9265   3.1500   3.1506   3.2124   3.2877   3.2921
     3.3237   3.3247   3.4398   3.4409   3.4781   3.6961   3.7599   3.7609
     3.7824   3.7839   3.8049   3.8061   3.8116   3.8126   3.9039   3.9670
     4.1201   4.1210   4.2788   4.5366   4.5378   4.6898   4.7080   4.7537
     4.8378   4.8952   5.0246   5.0264   5.1395   5.1403   5.1566   5.1792
     5.2347   5.3411   5.3553   5.3561   5.3576   5.3584   5.4516   5.5437
     5.5726   5.5965   5.6039   5.6043   5.6424   5.6435   5.6734   5.6898
     5.8749   6.0054   6.1151   6.1171   6.1254   6.1265   6.1396   6.1402
     6.2702   6.3095   6.3100   6.3107   6.3118   6.3336   6.3508   6.3603
     6.4011   6.4882   6.5113   6.5118   6.5423   6.6183   6.6623   6.6650
     6.6655   6.6927   6.7210   6.7220   6.8105   6.8388   6.8873   6.8897
     6.9153   6.9158   6.9187   6.9876   6.9884   7.0092   7.0708   7.1409
     7.1755   7.1761   7.2614   7.2629   7.2656   7.3312   7.3482   7.3561
     7.4122   7.4155   7.4165   7.5414   7.5452   7.5461   7.5783   7.5824
     7.6132   7.6199   7.6715   7.6722   7.6786   7.6989   7.7016   7.7256
     7.7280   7.7905   7.7920   7.7942   7.8200   7.8264   7.8429   7.8488
     7.8503   7.8517   7.8526   7.9155   7.9344   7.9373   7.9385   7.9410
     7.9428   7.9448   7.9492   7.9533   7.9546   7.9556   7.9967   8.0489
    10.7288  11.0812  11.2605  12.1412  12.1418  12.8163  12.9611  12.9621
    13.2339  13.2711  13.2714  13.3686  13.3688  13.4091  13.4471  13.4481
    13.5109  13.7220  13.7222  13.7927

          k = 0.0284-0.0525-0.0363 ( 63467 PWs)   bands (ev):

    -9.0668  -9.0170  -9.0072  -8.8762  -8.8732  -8.7299  -8.7249  -8.7234
    -8.7062  -8.7041  -8.7002  -8.5833  -8.5813  -8.4935  -8.4903  -8.4566
    -8.4498  -8.4489  -8.4474  -8.4453  -8.4374  -8.4289  -8.4186  -8.3856
    -8.3849  -8.3705  -8.3685  -8.3662  -8.3616  -8.3577  -8.3559  -8.3351
    -8.3341  -8.3096  -8.2992  -8.2910  -8.2885  -8.2725  -8.2716  -8.2566
    -8.2437  -8.2429  -8.2408  -8.2379  -8.2369  -8.2319  -8.2278  -8.2270
    -4.3002  -4.2988  -4.2789  -4.2787  -4.2782  -4.2778  -4.2752  -4.2728
    -4.2576  -4.2520  -4.2442  -4.2411  -4.2404  -4.2393  -4.2387  -4.2320
    -4.2298  -4.2246  -4.2243  -4.2202  -4.2200  -4.2195  -4.2163  -4.2100
    -4.1909  -4.1904  -4.1895  -4.1762  -4.1759  -4.1747  -4.1650  -4.1629
    -4.1610  -4.1609  -4.1574  -4.1571  -4.1569  -4.1506  -4.1505  -4.1496
    -4.1451  -4.1403  -4.1321  -4.1320  -4.1290  -4.1193  -4.1191  -4.1167
    -4.1163  -4.1073  -4.1069  -4.1049  -4.1043  -4.0971  -4.0924  -4.0916
    -4.0827  -4.0816  -4.0813  -4.0809  -4.0771  -4.0711  -4.0652  -4.0589
    -4.0567  -4.0555  -4.0441  -4.0276  -4.0272  -4.0206  -4.0162  -4.0116
    -4.0052  -3.9976  -3.9974  -3.9950  -3.9947  -3.9886  -3.9884  -3.9831
    -3.9829  -3.9728  -3.9718  -3.9713  -3.9695  -3.9646  -3.9575  -3.9564
    -3.9535  -3.9501  -3.9495  -3.9491  -3.9454  -3.9394  -3.9393  -3.9358
    -3.9299  -3.9191  -3.9075  -3.9072  -3.8952  -3.8830  -3.8823  -3.8808
    -3.8792  -3.8789  -3.8739  -3.8674  -3.8673  -3.8652  -3.8622  -3.8619
    -3.8595  -3.8504  -3.8467  -3.8466  -3.8405  -3.8391  -3.8388  -3.8150
    -3.8149  -3.8119  -3.8077  -3.7769  -3.7768  -3.7741  -3.7718  -3.7716
    -3.7614  -3.7589  -3.7131  -3.7119  -3.7048  -3.6799  -3.6764  -3.6640
    -3.6638  -3.6270  -3.6269  -3.5200  -3.4948  -3.4945  -3.4399  -3.3728
    -3.3724  -3.3710  -3.3585  -3.3013  -3.2739  -3.1722  -3.1716  -3.1321
    -3.0730  -3.0726  -3.0377  -3.0374  -3.0170  -3.0111  -2.9627  -2.9560
     2.8923   2.8975   2.9265   3.1498   3.1509   3.2123   3.2880   3.2920
     3.3237   3.3245   3.4398   3.4411   3.4780   3.6961   3.7599   3.7609
     3.7820   3.7845   3.8046   3.8064   3.8114   3.8128   3.9038   3.9671
     4.1199   4.1212   4.2789   4.5361   4.5385   4.6897   4.7081   4.7537
     4.8379   4.8954   5.0254   5.0257   5.1395   5.1401   5.1566   5.1793
     5.2344   5.3414   5.3551   5.3560   5.3572   5.3588   5.4514   5.5436
     5.5723   5.5966   5.6038   5.6045   5.6424   5.6435   5.6732   5.6897
     5.8747   6.0055   6.1152   6.1169   6.1257   6.1263   6.1397   6.1402
     6.2704   6.3091   6.3097   6.3109   6.3129   6.3337   6.3506   6.3606
     6.4012   6.4884   6.5115   6.5118   6.5424   6.6184   6.6624   6.6649
     6.6655   6.6929   6.7210   6.7222   6.8105   6.8388   6.8880   6.8890
     6.9150   6.9157   6.9186   6.9877   6.9883   7.0091   7.0708   7.1410
     7.1754   7.1762   7.2618   7.2622   7.2656   7.3313   7.3482   7.3560
     7.4122   7.4155   7.4163   7.5416   7.5454   7.5460   7.5784   7.5821
     7.6134   7.6198   7.6715   7.6722   7.6787   7.6989   7.7016   7.7268
     7.7269   7.7903   7.7922   7.7942   7.8198   7.8264   7.8429   7.8492
     7.8505   7.8512   7.8529   7.9155   7.9344   7.9378   7.9383   7.9405
     7.9434   7.9441   7.9492   7.9532   7.9546   7.9559   7.9967   8.0489
    10.7288  11.0813  11.2606  12.1413  12.1417  12.8162  12.9615  12.9618
    13.2339  13.2709  13.2715  13.3685  13.3690  13.4091  13.4475  13.4476
    13.4734  13.5109  13.7221  13.7225

 ------ SPIN DOWN ----------


          k = 0.0000 0.0000 0.0000 ( 63395 PWs)   bands (ev):

    -9.2337  -8.8511  -8.8480  -8.8470  -8.7347  -8.7285  -8.7275  -8.7272
    -8.7268  -8.7268  -8.7251  -8.7231  -8.6126  -8.6116  -8.6104  -8.4657
    -8.4648  -8.4623  -8.4457  -8.4443  -8.3660  -8.3623  -8.3604  -8.3602
    -8.3588  -8.3578  -8.3512  -8.3505  -8.3488  -8.3467  -8.3338  -8.3320
    -8.3310  -8.3282  -8.3277  -8.3254  -8.3216  -8.3211  -8.3203  -8.3197
    -8.3177  -8.3136  -8.2497  -8.2482  -8.1607  -8.1595  -8.1589  -8.1583
    -4.3162  -4.3161  -4.2846  -4.2845  -4.2842  -4.2681  -4.2676  -4.2671
    -4.2668  -4.2664  -4.2662  -4.2451  -4.2448  -4.2445  -4.2302  -4.2301
    -4.2178  -4.2175  -4.2175  -4.2155  -4.2154  -4.2150  -4.2149  -4.1932
    -4.1867  -4.1866  -4.1865  -4.1822  -4.1820  -4.1778  -4.1776  -4.1774
    -4.1579  -4.1576  -4.1571  -4.1568  -4.1565  -4.1563  -4.1392  -4.1391
    -4.1390  -4.1260  -4.1259  -4.1258  -4.1235  -4.1233  -4.1231  -4.1159
    -4.1157  -4.1155  -4.1151  -4.1148  -4.1146  -4.0954  -4.0952  -4.0950
    -4.0947  -4.0944  -4.0942  -4.0773  -4.0772  -4.0771  -4.0707  -4.0706
    -4.0703  -4.0702  -4.0643  -4.0511  -4.0510  -4.0168  -4.0162  -4.0156
    -4.0150  -4.0150  -4.0147  -4.0142  -4.0140  -3.9758  -3.9758  -3.9661
    -3.9660  -3.9660  -3.9650  -3.9649  -3.9648  -3.9642  -3.9641  -3.9639
    -3.9503  -3.9502  -3.9500  -3.9333  -3.9333  -3.9333  -3.9287  -3.9286
    -3.9285  -3.8888  -3.8887  -3.8883  -3.8882  -3.8760  -3.8759  -3.8745
    -3.8662  -3.8659  -3.8658  -3.8655  -3.8654  -3.8652  -3.8609  -3.8597
    -3.8596  -3.8593  -3.8591  -3.8587  -3.8586  -3.8470  -3.8469  -3.8469
    -3.8316  -3.8315  -3.8314  -3.7935  -3.7933  -3.7931  -3.7836  -3.7831
    -3.7322  -3.7321  -3.7320  -3.6898  -3.6896  -3.6892  -3.6005  -3.6002
    -3.4772  -3.4768  -3.4766  -3.4761  -3.4761  -3.4758  -3.3528  -3.3527
    -3.3518  -3.3518  -3.3175  -3.3172  -3.3170  -3.3055  -3.3048  -3.3046
    -3.3044  -3.3040  -3.3037  -2.9631  -2.9629  -2.8478  -2.8477  -2.8476
     2.6336   3.0028   3.1884   3.1892   3.1906   3.1911   3.1918   3.1926
     3.2100   3.2109   3.2115   3.2869   3.2888   3.7046   3.7060   3.7064
     3.9306   3.9323   3.9333   3.9336   3.9342   3.9346   4.2677   4.2687
     4.4437   4.4441   4.4450   4.4508   4.4509   4.4519   4.5735   4.5744
     4.8945   4.8976   4.8985   4.9681   5.2063   5.3157   5.3164   5.3183
     5.3184   5.3621   5.3624   5.3632   5.3816   5.3825   5.3838   5.4447
     5.4457   5.4464   5.4469   5.4481   5.4507   5.5938   5.5944   5.8035
     5.9236   5.9237   5.9249   5.9254   5.9258   5.9260   5.9328   5.9334
     5.9339   6.0363   6.0365   6.0382   6.2305   6.2312   6.2320   6.2323
     6.2340   6.6539   6.6550   6.6551   6.6553   6.6565   6.6570   7.0632
     7.0639   7.0643   7.0650   7.0665   7.0675   7.0677   7.1512   7.1521
     7.1530   7.1707   7.1714   7.1723   7.1726   7.1731   7.1743   7.1746
     7.1757   7.1761   7.2596   7.2635   7.2636   7.2641   7.2650   7.2664
     7.3061   7.3067   7.3079   7.3683   7.3699   7.3732   7.3749   7.3751
     7.3754   7.3757   7.3762   7.5641   7.5656   7.5664   7.6620   7.7412
     7.7421   7.7426   7.7485   7.7495   7.8553   7.8555   7.8980   7.8982
     7.9004   7.9005   7.9900   7.9905   7.9913   7.9995   8.0000   8.0274
     8.0279   8.0289   8.0293   8.0301   8.0307   8.0422   8.0431   8.0435
     9.0292  12.1665  12.1678  12.6905  12.6912  12.6917  12.6920  12.6928
    12.6937  12.8711  12.8715  12.8717  13.2477  13.2478  13.2490  13.4081
    13.6087  13.6096  13.6103  13.6107

          k =-0.0000-0.0000 0.0363 ( 63469 PWs)   bands (ev):

    -9.1648  -8.9779  -8.8440  -8.8408  -8.8396  -8.8074  -8.8043  -8.8029
    -8.6441  -8.6416  -8.6399  -8.6118  -8.6098  -8.6091  -8.4848  -8.4521
    -8.4499  -8.4446  -8.4369  -8.4303  -8.4129  -8.4106  -8.4055  -8.4012
    -8.3886  -8.3855  -8.3667  -8.3653  -8.3598  -8.3506  -8.3503  -8.3266
    -8.3243  -8.3233  -8.3218  -8.3203  -8.3190  -8.3081  -8.3037  -8.2679
    -8.2634  -8.2523  -8.2509  -8.2468  -8.1904  -8.1867  -8.1854  -8.1841
    -4.2999  -4.2900  -4.2856  -4.2812  -4.2809  -4.2795  -4.2786  -4.2781
    -4.2642  -4.2553  -4.2549  -4.2501  -4.2486  -4.2482  -4.2270  -4.2241
    -4.2231  -4.2226  -4.2158  -4.2156  -4.2106  -4.2071  -4.2009  -4.1983
    -4.1977  -4.1946  -4.1944  -4.1865  -4.1805  -4.1781  -4.1662  -4.1619
    -4.1616  -4.1611  -4.1609  -4.1545  -4.1541  -4.1539  -4.1502  -4.1493
    -4.1466  -4.1439  -4.1434  -4.1414  -4.1369  -4.1221  -4.1217  -4.1184
    -4.1172  -4.1168  -4.1037  -4.1014  -4.1012  -4.0988  -4.0926  -4.0923
[...]
    -4.1924  -4.1918  -4.1913  -4.1828  -4.1826  -4.1735  -4.1727  -4.1724
    -4.1632  -4.1629  -4.1607  -4.1571  -4.1569  -4.1568  -4.1535  -4.1532
    -4.1513  -4.1512  -4.1325  -4.1324  -4.1307  -4.1303  -4.1166  -4.1162
    -4.1114  -4.1110  -4.0959  -4.0957  -4.0943  -4.0933  -4.0930  -4.0912
    -4.0909  -4.0837  -4.0668  -4.0665  -4.0614  -4.0602  -4.0587  -4.0515
    -4.0445  -4.0286  -4.0278  -4.0273  -4.0267  -4.0196  -4.0193  -4.0115
    -4.0093  -4.0056  -4.0052  -4.0037  -4.0033  -4.0026  -3.9997  -3.9995
    -3.9853  -3.9846  -3.9838  -3.9810  -3.9744  -3.9742  -3.9646  -3.9645
    -3.9630  -3.9538  -3.9531  -3.9518  -3.9404  -3.9399  -3.9388  -3.9384
    -3.9253  -3.9251  -3.9213  -3.9206  -3.9188  -3.8879  -3.8876  -3.8827
    -3.8811  -3.8809  -3.8709  -3.8705  -3.8565  -3.8559  -3.8527  -3.8523
    -3.8474  -3.8472  -3.8384  -3.8352  -3.8340  -3.8335  -3.8304  -3.8302
    -3.7856  -3.7819  -3.7817  -3.7774  -3.7770  -3.7759  -3.7588  -3.7586
    -3.7429  -3.7422  -3.7166  -3.7165  -3.6886  -3.6799  -3.6795  -3.6603
    -3.6228  -3.6224  -3.6045  -3.6039  -3.5802  -3.4898  -3.4528  -3.4519
    -3.3611  -3.3601  -3.2767  -3.2505  -3.2500  -3.1818  -3.1814  -3.1483
    -3.1221  -3.0998  -3.0655  -3.0653  -2.9738  -2.9730  -2.9576  -2.9573
     2.9172   3.0067   3.0081   3.0327   3.1863   3.1875   3.2284   3.2295
     3.4643   3.4656   3.4959   3.5511   3.5526   3.5557   3.5563   3.6154
     3.7068   3.7084   3.7304   3.7310   3.7720   3.8899   3.9024   3.9038
     3.9315   4.2401   4.2405   4.6836   4.7776   4.7798   4.8917   4.8925
     4.9951   4.9967   5.0392   5.0506   5.0513   5.1492   5.1503   5.1764
     5.1775   5.1923   5.2696   5.3506   5.3511   5.3653   5.3669   5.3916
     5.5088   5.6331   5.6342   5.6814   5.6820   5.7585   5.7589   5.7693
     5.7698   5.8104   5.9038   5.9052   5.9474   5.9480   6.1478   6.1642
     6.1785   6.1788   6.2352   6.3369   6.3381   6.4212   6.4222   6.4796
     6.5150   6.5169   6.5175   6.5202   6.5212   6.5541   6.7069   6.7088
     6.7136   6.8678   6.8696   6.8831   6.8836   6.8878   6.8889   6.9179
     6.9187   7.0403   7.0439   7.0504   7.0519   7.1046   7.1053   7.1507
     7.1904   7.2051   7.2060   7.2160   7.2180   7.3494   7.3517   7.3555
     7.3563   7.3609   7.3617   7.3731   7.4116   7.4599   7.4615   7.5700
     7.5775   7.5781   7.6039   7.6051   7.6119   7.6533   7.7036   7.7048
     7.7166   7.7185   7.8202   7.8221   7.8269   7.8272   7.8301   7.8710
     7.8722   7.8803   7.8825   7.8989   7.8992   7.9230   7.9429   7.9448
     7.9451   7.9561   7.9582   7.9587   8.0022   8.0363   8.0367   8.0923
    10.8423  11.1957  11.1968  11.9972  11.9978  12.8894  12.8907  12.9160
    13.0072  13.0079  13.2724  13.2754  13.5472  13.5636  13.5642  13.6409
    13.6419  13.6766  13.6771  13.8510

          k = 0.0283-0.0525 0.0363 ( 63467 PWs)   bands (ev):

    -9.0668  -9.0172  -9.0071  -8.8755  -8.8737  -8.7303  -8.7245  -8.7234
    -8.7071  -8.7037  -8.6998  -8.5831  -8.5815  -8.4946  -8.4893  -8.4563
    -8.4506  -8.4484  -8.4472  -8.4455  -8.4372  -8.4288  -8.4188  -8.3870
    -8.3835  -8.3712  -8.3687  -8.3648  -8.3620  -8.3579  -8.3558  -8.3353
    -8.3337  -8.3099  -8.2990  -8.2912  -8.2884  -8.2736  -8.2706  -8.2566
    -8.2445  -8.2421  -8.2402  -8.2382  -8.2359  -8.2327  -8.2284  -8.2267
    -4.3002  -4.2988  -4.2793  -4.2784  -4.2782  -4.2779  -4.2751  -4.2728
    -4.2576  -4.2519  -4.2444  -4.2409  -4.2404  -4.2393  -4.2388  -4.2320
    -4.2297  -4.2250  -4.2240  -4.2203  -4.2198  -4.2194  -4.2165  -4.2100
    -4.1908  -4.1905  -4.1896  -4.1762  -4.1759  -4.1746  -4.1649  -4.1628
    -4.1612  -4.1607  -4.1575  -4.1571  -4.1569  -4.1510  -4.1502  -4.1496
    -4.1451  -4.1404  -4.1322  -4.1321  -4.1288  -4.1193  -4.1189  -4.1169
    -4.1163  -4.1073  -4.1068  -4.1049  -4.1046  -4.0971  -4.0924  -4.0916
    -4.0827  -4.0816  -4.0814  -4.0808  -4.0771  -4.0710  -4.0651  -4.0588
    -4.0564  -4.0559  -4.0440  -4.0276  -4.0273  -4.0205  -4.0162  -4.0116
    -4.0053  -3.9976  -3.9973  -3.9950  -3.9947  -3.9886  -3.9883  -3.9832
    -3.9829  -3.9725  -3.9719  -3.9714  -3.9694  -3.9644  -3.9575  -3.9564
    -3.9534  -3.9501  -3.9495  -3.9491  -3.9455  -3.9396  -3.9395  -3.9358
    -3.9300  -3.9192  -3.9076  -3.9071  -3.8953  -3.8828  -3.8824  -3.8808
    -3.8793  -3.8790  -3.8738  -3.8673  -3.8672  -3.8652  -3.8622  -3.8619
    -3.8595  -3.8504  -3.8468  -3.8465  -3.8404  -3.8392  -3.8387  -3.8152
    -3.8149  -3.8118  -3.8076  -3.7771  -3.7764  -3.7741  -3.7718  -3.7716
    -3.7614  -3.7589  -3.7132  -3.7120  -3.7049  -3.6798  -3.6764  -3.6643
    -3.6636  -3.6272  -3.6267  -3.5200  -3.4949  -3.4944  -3.4400  -3.3729
    -3.3724  -3.3708  -3.3585  -3.3013  -3.2739  -3.1720  -3.1717  -3.1322
    -3.0729  -3.0726  -3.0378  -3.0374  -3.0169  -3.0111  -2.9628  -2.9560
     2.8927   2.8972   2.9265   3.1500   3.1506   3.2124   3.2877   3.2921
     3.3237   3.3247   3.4398   3.4409   3.4781   3.6961   3.7599   3.7609
     3.7824   3.7839   3.8049   3.8061   3.8116   3.8126   3.9039   3.9670
     4.1201   4.1210   4.2788   4.5366   4.5378   4.6898   4.7080   4.7537
     4.8378   4.8952   5.0246   5.0264   5.1395   5.1403   5.1566   5.1792
     5.2347   5.3411   5.3553   5.3561   5.3576   5.3584   5.4516   5.5437
     5.5726   5.5965   5.6039   5.6043   5.6424   5.6435   5.6734   5.6898
     5.8749   6.0054   6.1151   6.1171   6.1254   6.1265   6.1396   6.1402
     6.2702   6.3095   6.3100   6.3107   6.3118   6.3336   6.3508   6.3603
     6.4011   6.4882   6.5113   6.5118   6.5423   6.6183   6.6623   6.6650
     6.6655   6.6927   6.7210   6.7220   6.8106   6.8388   6.8873   6.8897
     6.9153   6.9158   6.9187   6.9876   6.9884   7.0092   7.0708   7.1409
     7.1755   7.1761   7.2614   7.2629   7.2656   7.3312   7.3482   7.3561
     7.4122   7.4155   7.4165   7.5414   7.5452   7.5461   7.5783   7.5824
     7.6132   7.6199   7.6715   7.6722   7.6786   7.6989   7.7016   7.7256
     7.7280   7.7905   7.7920   7.7942   7.8200   7.8264   7.8429   7.8488
     7.8503   7.8517   7.8526   7.9155   7.9344   7.9373   7.9385   7.9410
     7.9428   7.9448   7.9492   7.9533   7.9546   7.9556   7.9967   8.0489
    10.7288  11.0812  11.2605  12.1412  12.1419  12.8163  12.9611  12.9621
    13.2339  13.2711  13.2714  13.3686  13.3688  13.4091  13.4471  13.4480
    13.4735  13.5109  13.7220  13.7223

          k = 0.0284-0.0525-0.0363 ( 63467 PWs)   bands (ev):

    -9.0668  -9.0170  -9.0072  -8.8762  -8.8732  -8.7299  -8.7249  -8.7234
    -8.7062  -8.7041  -8.7002  -8.5833  -8.5813  -8.4935  -8.4903  -8.4566
    -8.4498  -8.4489  -8.4474  -8.4453  -8.4374  -8.4289  -8.4186  -8.3856
    -8.3849  -8.3705  -8.3685  -8.3662  -8.3616  -8.3577  -8.3559  -8.3351
    -8.3341  -8.3096  -8.2992  -8.2910  -8.2885  -8.2725  -8.2716  -8.2566
    -8.2437  -8.2429  -8.2408  -8.2379  -8.2369  -8.2319  -8.2278  -8.2270
    -4.3002  -4.2988  -4.2789  -4.2787  -4.2782  -4.2778  -4.2752  -4.2728
    -4.2576  -4.2520  -4.2442  -4.2411  -4.2404  -4.2393  -4.2387  -4.2320
    -4.2298  -4.2246  -4.2243  -4.2202  -4.2200  -4.2195  -4.2163  -4.2100
    -4.1909  -4.1904  -4.1895  -4.1762  -4.1759  -4.1747  -4.1650  -4.1629
    -4.1610  -4.1609  -4.1574  -4.1571  -4.1569  -4.1506  -4.1505  -4.1496
    -4.1451  -4.1403  -4.1321  -4.1320  -4.1290  -4.1193  -4.1191  -4.1167
    -4.1163  -4.1073  -4.1069  -4.1049  -4.1043  -4.0971  -4.0924  -4.0916
    -4.0827  -4.0816  -4.0813  -4.0809  -4.0771  -4.0711  -4.0652  -4.0589
    -4.0567  -4.0555  -4.0441  -4.0276  -4.0272  -4.0206  -4.0162  -4.0116
    -4.0052  -3.9976  -3.9974  -3.9950  -3.9947  -3.9886  -3.9884  -3.9831
    -3.9829  -3.9728  -3.9718  -3.9713  -3.9695  -3.9646  -3.9575  -3.9564
    -3.9535  -3.9501  -3.9495  -3.9491  -3.9454  -3.9394  -3.9393  -3.9358
    -3.9299  -3.9191  -3.9075  -3.9072  -3.8952  -3.8830  -3.8823  -3.8808
    -3.8792  -3.8789  -3.8739  -3.8674  -3.8673  -3.8652  -3.8622  -3.8619
    -3.8595  -3.8504  -3.8467  -3.8466  -3.8405  -3.8391  -3.8388  -3.8150
    -3.8149  -3.8119  -3.8077  -3.7769  -3.7768  -3.7741  -3.7718  -3.7716
    -3.7614  -3.7589  -3.7131  -3.7119  -3.7048  -3.6799  -3.6764  -3.6640
    -3.6638  -3.6270  -3.6269  -3.5200  -3.4948  -3.4945  -3.4399  -3.3728
    -3.3724  -3.3710  -3.3585  -3.3013  -3.2739  -3.1722  -3.1716  -3.1321
    -3.0730  -3.0726  -3.0377  -3.0374  -3.0170  -3.0111  -2.9627  -2.9560
     2.8923   2.8975   2.9265   3.1498   3.1509   3.2123   3.2880   3.2920
     3.3237   3.3245   3.4398   3.4411   3.4780   3.6961   3.7599   3.7609
     3.7820   3.7845   3.8046   3.8064   3.8114   3.8128   3.9038   3.9671
     4.1199   4.1212   4.2789   4.5361   4.5385   4.6897   4.7081   4.7537
     4.8379   4.8954   5.0254   5.0257   5.1395   5.1401   5.1566   5.1793
     5.2344   5.3414   5.3551   5.3560   5.3572   5.3588   5.4514   5.5436
     5.5723   5.5966   5.6038   5.6045   5.6424   5.6436   5.6732   5.6897
     5.8747   6.0055   6.1152   6.1169   6.1257   6.1263   6.1397   6.1402
     6.2704   6.3091   6.3097   6.3109   6.3129   6.3337   6.3506   6.3606
     6.4012   6.4884   6.5115   6.5118   6.5424   6.6184   6.6624   6.6649
     6.6655   6.6929   6.7210   6.7222   6.8105   6.8388   6.8880   6.8890
     6.9150   6.9157   6.9186   6.9877   6.9883   7.0091   7.0708   7.1410
     7.1754   7.1762   7.2618   7.2622   7.2656   7.3313   7.3482   7.3560
     7.4122   7.4155   7.4163   7.5416   7.5454   7.5460   7.5784   7.5821
     7.6135   7.6198   7.6715   7.6722   7.6787   7.6989   7.7016   7.7268
     7.7269   7.7903   7.7922   7.7942   7.8198   7.8264   7.8429   7.8492
     7.8505   7.8512   7.8529   7.9155   7.9344   7.9378   7.9383   7.9405
     7.9434   7.9441   7.9492   7.9532   7.9546   7.9559   7.9967   8.0489
    10.7288  11.0813  11.2606  12.1413  12.1417  12.8162  12.9615  12.9618
    13.2339  13.2709  13.2715  13.3685  13.3690  13.4091  13.4475  13.4476
    13.5108  13.7221  13.7225  13.7923

     the Fermi energy is     8.5631 ev

!    total energy              =   -6637.03745919 Ry
     estimated scf accuracy    <          7.0E-09 Ry
     smearing contrib. (-TS)   =      -0.00000000 Ry
     internal energy E=F+TS    =   -6637.03745919 Ry

     The total energy is F=E-TS. E is the sum of the following terms:
     one-electron contribution =   -1621.93155762 Ry
     hartree contribution      =    1436.06838761 Ry
     xc contribution           =   -1885.87978437 Ry
     ewald contribution        =   -4108.33392685 Ry
     one-center paw contrib.   =    -456.96057795 Ry

     total magnetization       =    -0.00 Bohr mag/cell
     absolute magnetization    =     0.00 Bohr mag/cell

     convergence has been achieved in  13 iterations

     Forces acting on atoms (cartesian axes, Ry/au):

     atom    1 type  1   force =     0.00539691   -0.00039479   -0.00029154
     atom    2 type  1   force =    -0.00014482    0.00006011    0.00005422
     atom    3 type  1   force =     0.00005490   -0.00006215    0.00002697
     atom    4 type  1   force =     0.00015699    0.00025972    0.00009779
     atom    5 type  1   force =     0.00010256   -0.00002593   -0.00010107
     atom    6 type  1   force =     0.00017592    0.00018183    0.00019702
     atom    7 type  1   force =     0.00026425    0.00011463    0.00008940
     atom    8 type  1   force =     0.00005642    0.00005661    0.00004134
     atom    9 type  1   force =    -0.00101558   -0.00087281   -0.00058354
     atom   10 type  1   force =    -0.00077482    0.00015602    0.00029920
     atom   11 type  1   force =     0.00000590   -0.00036032   -0.00012840
     atom   12 type  1   force =    -0.00020686   -0.00001400   -0.00004863
     atom   13 type  1   force =     0.00000453   -0.00015078   -0.00013394
     atom   14 type  1   force =    -0.00020714   -0.00006522   -0.00004475
     atom   15 type  1   force =    -0.00013875   -0.00011141   -0.00005810
     atom   16 type  1   force =    -0.00018650   -0.00002977   -0.00006177
     atom   17 type  1   force =     0.00008580    0.00005285    0.00006029
     atom   18 type  1   force =     0.00019364   -0.00003637    0.00004524
     atom   19 type  1   force =    -0.00009800    0.00029189   -0.00043440
     atom   20 type  1   force =    -0.00009689   -0.00006048    0.00025973
     atom   21 type  1   force =    -0.00014469   -0.00003214    0.00030764
     atom   22 type  1   force =    -0.00014383    0.00018565   -0.00035724
     atom   23 type  1   force =     0.00019488    0.00009965    0.00001903
     atom   24 type  1   force =     0.00008303    0.00005160    0.00006094
     atom   25 type  1   force =    -0.00004873   -0.00000360   -0.00000098
     atom   26 type  1   force =    -0.00018523   -0.00014803   -0.00008716
     atom   27 type  1   force =    -0.00025950   -0.00008214   -0.00007543
     atom   28 type  1   force =     0.00022179    0.00010911    0.00015809
     atom   29 type  1   force =    -0.00027541   -0.00009137   -0.00005791
     atom   30 type  1   force =     0.00053942    0.00014492   -0.00016335
     atom   31 type  1   force =    -0.00044630    0.00062619    0.00061352
     atom   32 type  1   force =    -0.00034722   -0.00026285   -0.00018379
     atom   33 type  2   force =     0.00002129    0.00032620   -0.00039831
     atom   34 type  2   force =    -0.00003674    0.00029110   -0.00044831
     atom   35 type  2   force =    -0.00013110    0.00027394   -0.00036312
     atom   36 type  2   force =     0.00006631    0.00030289   -0.00045193
     atom   37 type  2   force =    -0.00060223    0.00009209   -0.00031578
     atom   38 type  2   force =     0.00024503    0.00026412   -0.00041255
     atom   39 type  2   force =     0.00000729    0.00040235   -0.00036694
     atom   40 type  2   force =     0.00007680    0.00018374   -0.00046162
     atom   41 type  2   force =    -0.00015418    0.00054329    0.00017183
     atom   42 type  2   force =    -0.00023091    0.00040661   -0.00020852
     atom   43 type  2   force =    -0.00030563    0.00050087   -0.00004293
     atom   44 type  2   force =    -0.00022577    0.00046884    0.00001034
     atom   45 type  2   force =    -0.00063700    0.00064462    0.00022835
     atom   46 type  2   force =    -0.00017182    0.00047091    0.00003379
     atom   47 type  2   force =    -0.00019144    0.00055576   -0.00000253
     atom   48 type  2   force =    -0.00020032    0.00026624    0.00006591
     atom   49 type  2   force =     0.00028221   -0.00004310   -0.00037361
     atom   50 type  2   force =     0.00028631   -0.00029600   -0.00050119
     atom   51 type  2   force =    -0.00032703   -0.00060551   -0.00000093
     atom   52 type  2   force =     0.00044348   -0.00016314   -0.00042647
     atom   53 type  2   force =     0.00010121   -0.00019831   -0.00031677
     atom   54 type  2   force =     0.00030376   -0.00014258   -0.00044762
     atom   55 type  2   force =     0.00026863   -0.00011846   -0.00039667
     atom   56 type  2   force =     0.00025072   -0.00020400   -0.00047548
     atom   57 type  2   force =    -0.00016106    0.00017540    0.00039873
     atom   58 type  2   force =    -0.00068800    0.00004655    0.00031703
     atom   59 type  2   force =    -0.00023535    0.00001610    0.00045660
     atom   60 type  2   force =    -0.00017698    0.00027506    0.00042027
     atom   61 type  2   force =    -0.00018610    0.00012194    0.00028822
     atom   62 type  2   force =    -0.00020972    0.00028278    0.00060981
     atom   63 type  2   force =    -0.00021680    0.00016057    0.00043538
     atom   64 type  2   force =    -0.00029094    0.00019769    0.00039317
     atom   65 type  2   force =     0.00022755   -0.00023146    0.00037364
     atom   66 type  2   force =    -0.00135005    0.00049187    0.00026930
     atom   67 type  2   force =    -0.00010531   -0.00040644    0.00044606
     atom   68 type  2   force =     0.00004946   -0.00026937    0.00043932
     atom   69 type  2   force =    -0.00001552   -0.00030155    0.00038994
     atom   70 type  2   force =     0.00003633   -0.00028076    0.00048709
     atom   71 type  2   force =     0.00002925   -0.00031114    0.00045735
     atom   72 type  2   force =    -0.00000402   -0.00028016    0.00034032
     atom   73 type  2   force =     0.00027363   -0.00043693    0.00002136
     atom   74 type  2   force =     0.00016072   -0.00054175   -0.00005581
     atom   75 type  2   force =    -0.00055325   -0.00028247   -0.00004975
     atom   76 type  2   force =     0.00048600   -0.00039002   -0.00000223
     atom   77 type  2   force =     0.00021741   -0.00044925   -0.00007871
     atom   78 type  2   force =     0.00028654   -0.00045291    0.00003390
     atom   79 type  2   force =     0.00024405   -0.00045793    0.00000552
     atom   80 type  2   force =     0.00022659   -0.00048488   -0.00001389

     Total force =     0.007238     Total SCF correction =     0.000032


     Computing stress (Cartesian axis) and pressure

          total   stress  (Ry/bohr**3)                   (kbar)     P=       -4.49
  -0.00002167   0.00000922   0.00000629           -3.19        1.36        0.93
   0.00000922  -0.00003370   0.00000389            1.36       -4.96        0.57
   0.00000629   0.00000389  -0.00003612            0.93        0.57       -5.31


     Writing output data file ./calc.save/

     init_run     :     95.02s CPU     98.99s WALL (       1 calls)
     electrons    :   4236.68s CPU   4384.33s WALL (       1 calls)
     forces       :     43.16s CPU     44.27s WALL (       1 calls)
     stress       :    642.04s CPU    643.16s WALL (       1 calls)

     Called by init_run:
     wfcinit      :     88.16s CPU     91.92s WALL (       1 calls)
     potinit      :      2.40s CPU      2.47s WALL (       1 calls)
     hinit0       :      3.12s CPU      3.13s WALL (       1 calls)

     Called by electrons:
     c_bands      :   3846.81s CPU   3972.07s WALL (      13 calls)
     sum_band     :    365.11s CPU    385.87s WALL (      13 calls)
     v_of_rho     :      9.36s CPU      9.62s WALL (      14 calls)
     newd         :      9.00s CPU     10.35s WALL (      14 calls)
     PAW_pot      :      5.30s CPU      5.31s WALL (      14 calls)
     mix_rho      :      1.60s CPU      1.67s WALL (      13 calls)

     Called by c_bands:
     init_us_2    :     33.12s CPU     33.32s WALL (     812 calls)
     cegterg      :   3799.65s CPU   3923.04s WALL (     364 calls)

     Called by *egterg:
     cdiaghg      :    872.51s CPU    873.28s WALL (    2285 calls)
     h_psi        :   1725.86s CPU   1827.81s WALL (    2313 calls)
     s_psi        :    279.47s CPU    279.73s WALL (    2313 calls)
     g_psi        :      5.45s CPU      5.47s WALL (    1921 calls)

     Called by h_psi:
     h_psi:calbec :    318.79s CPU    328.45s WALL (    2313 calls)
     vloc_psi     :   1114.46s CPU   1200.03s WALL (    2313 calls)
     add_vuspsi   :    280.47s CPU    281.54s WALL (    2313 calls)

     General routines
     calbec       :    451.38s CPU    464.97s WALL (    2817 calls)
     fft          :      7.42s CPU      7.77s WALL (     388 calls)
     ffts         :      0.16s CPU      0.17s WALL (      54 calls)
     fftw         :   1113.20s CPU   1199.90s WALL (  968276 calls)
     interpolate  :      0.75s CPU      0.78s WALL (      28 calls)

     Parallel routines
     fft_scatt_xy :    133.38s CPU    142.98s WALL (  968718 calls)
     fft_scatt_yz :    438.81s CPU    478.84s WALL (  968718 calls)

     PWSCF        :      1h23m CPU      1h26m WALL


   This run was terminated on:   1:38:12  16Jul2021            

=------------------------------------------------------------------------------=
   JOB DONE.
=------------------------------------------------------------------------------=
# python dir           : /home/lls34/GitHub/10_QE_Interface/ase-espresso/espresso
# espresso dir         : /opt/womble/qe-6.7/bin
# pseudo dir           : /home/lls34/programs/QuantumExpresso/pseudopotentials/use_pot
# ase-espresso version : 0.3.3


