10
Lattice="5.035813605427246 -0.32572049768099287 -0.2249054266333922 2.490956976834896 4.38869523329808 -0.2249054266333785 2.490956976834899 1.3446265106365805 4.183683526343227" Properties=species:S:1:pos:R:3:spacegroup_kinds:I:1:forces:R:3 spacegroup="P 1" unit_cell=conventional occupancy="_JSON {\"0\": {\"In\": 1}, \"1\": {\"In\": 1}, \"2\": {\"In\": 1}, \"3\": {\"In\": 1}, \"4\": {\"O\": 1}, \"5\": {\"O\": 1}, \"6\": {\"O\": 1}, \"7\": {\"O\": 1}, \"8\": {\"O\": 1}, \"9\": {\"O\": 1}}" n_minim_iter=1 energy=-11282.237616712162 stress="-0.5693843058332974 0.008040454839747732 0.005551821082356973 0.008040454839747732 -0.5799392027459415 0.0029968907055064153 0.005551821082356973 0.0029968907055064153 -0.5822101549617449" free_energy=-11282.237616712162 pbc="T T T"
In       8.73484776       4.71509865       3.25570936        0      -0.15656450      -0.08451401      -0.05835574
In       6.29174356       3.39630322       2.34509965        1       0.15656450       0.08451401       0.05835574
In       3.72598398       2.01129803       1.38877302        2      -0.15656450      -0.08451401      -0.05835574
In       1.28287978       0.69250260       0.47816331        3       0.15656450       0.08451401       0.05835574
O        5.02233869       1.83863940      -0.11977029        4      -0.00000000      -0.14828807       0.21475899
O        5.72474889       4.38943636       0.70856274        5       0.12396956      -0.22965697      -0.00000000
O        6.81088546       1.50490397       1.97207147        6      -0.12396956       0.08136890       0.21475899
O        3.20684209       3.90269727       1.76180120        7       0.12396956      -0.08136890      -0.21475899
O        4.99538886       3.56896185       3.85364296        8      -0.00000000       0.14828807      -0.21475899
O        4.29297866       1.01816488       3.02530993        9      -0.12396956       0.22965697       0.00000000
10
Lattice="5.0160500555141905 -0.3485622982441351 -0.24067736894989802 2.461016426096141 4.384706602004989 -0.24067736894988437 2.4610164260961436 1.3284645059770113 4.185541737690596" Properties=species:S:1:pos:R:3:spacegroup_kinds:I:1:forces:R:3 spacegroup="P 1" unit_cell=conventional occupancy="_JSON {\"0\": {\"In\": 1}, \"1\": {\"In\": 1}, \"2\": {\"In\": 1}, \"3\": {\"In\": 1}, \"4\": {\"O\": 1}, \"5\": {\"O\": 1}, \"6\": {\"O\": 1}, \"7\": {\"O\": 1}, \"8\": {\"O\": 1}, \"9\": {\"O\": 1}}" n_minim_iter=2 energy=-11282.247014394323 stress="-0.5700427669690473 -0.001994640430310626 -0.00137727118912074 -0.001994640430310626 -0.5674243548796889 -0.000743455373988819 -0.00137727118912074 -0.000743455373988819 -0.5668609871124521" free_energy=-11282.247014394323 pbc="T T T"
In       8.66452315       4.67713720       3.22949751        0       0.01414816       0.00763722       0.00527339
In       6.24260120       3.36977602       2.32678299        1      -0.01414816      -0.00763722      -0.00527339
In       3.69548169       1.99483279       1.37740401        2       0.01414816       0.00763722       0.00527339
In       1.27355975       0.68747161       0.47468949        3      -0.01414816      -0.00763722      -0.00527339
O        4.99254575       1.81822528      -0.13761922        4      -0.00000000      -0.26016923       0.37679149
O        5.67851858       4.36799088       0.68536938        5       0.21750277      -0.40292977      -0.00000000
O        6.76758935       1.47369101       1.95515165        6      -0.21750277       0.14276054       0.37679149
O        3.17049355       3.89091780       1.74903534        7       0.21750277      -0.14276054      -0.37679149
O        4.94553715       3.54638353       3.84180621        8       0.00000000       0.26016923      -0.37679149
O        4.25956432       0.99661793       3.01881762        9      -0.21750277       0.40292977      -0.00000000
10
Lattice="4.999918981179466 -0.3673530593089691 -0.25365212541791615 2.436455783279009 4.381531844534357 -0.25365212541790255 2.43645578327901 1.3152065927503624 4.187169965953569" Properties=species:S:1:pos:R:3:spacegroup_kinds:I:1:forces:R:3 spacegroup="P 1" unit_cell=conventional occupancy="_JSON {\"0\": {\"In\": 1}, \"1\": {\"In\": 1}, \"2\": {\"In\": 1}, \"3\": {\"In\": 1}, \"4\": {\"O\": 1}, \"5\": {\"O\": 1}, \"6\": {\"O\": 1}, \"7\": {\"O\": 1}, \"8\": {\"O\": 1}, \"9\": {\"O\": 1}}" n_minim_iter=3 energy=-11282.267318044487 stress="-0.5485862609609891 0.000322984241773709 0.00022301608037989773 0.000322984241773709 -0.5490102500831626 0.0001203847914893977 0.00022301608037989773 0.0001203847914893977 -0.5491014739966701" free_energy=-11282.267318044487 pbc="T T T"
In       8.60622003       4.64566499       3.20776639        0      -0.13779854      -0.07438409      -0.05136117
In       6.20302578       3.34841308       2.31203218        1       0.13779854       0.07438409       0.05136117
In       3.66980476       1.98097230       1.36783353        2      -0.13779854      -0.07438409      -0.05136117
In       1.26661051       0.68372039       0.47209932        3       0.13779854       0.07438409       0.05136117
O        4.96816712       1.79297928      -0.13998429        4       0.00000000       0.01120857      -0.01623287
O        5.64774909       4.33729187       0.66631430        5      -0.00937042       0.01735895       0.00000000
O        6.72504093       1.45272643       1.95360069        6       0.00937042      -0.00615039      -0.01623287
O        3.14778960       3.87665894       1.72626502        7      -0.00937042       0.00615039       0.01623287
O        4.90466341       3.53640610       3.81985000        8      -0.00000000      -0.01120857       0.01623287
O        4.22508144       0.99209350       3.01355141        9       0.00937042      -0.01735895       0.00000000
10
Lattice="5.000289620233609 -0.3669197950041449 -0.25335296250365275 2.4370213721438394 4.3816039590423985 -0.25335296250363915 2.437021372143842 1.3155118994211907 4.187131407059801" Properties=species:S:1:pos:R:3:spacegroup_kinds:I:1:forces:R:3 spacegroup="P 1" unit_cell=conventional occupancy="_JSON {\"0\": {\"In\": 1}, \"1\": {\"In\": 1}, \"2\": {\"In\": 1}, \"3\": {\"In\": 1}, \"4\": {\"O\": 1}, \"5\": {\"O\": 1}, \"6\": {\"O\": 1}, \"7\": {\"O\": 1}, \"8\": {\"O\": 1}, \"9\": {\"O\": 1}}" n_minim_iter=4 energy=-11282.26993874186 stress="-0.5488433257571311 -0.002370527806969205 -0.0016368161418082233 -0.002370527806969205 -0.5457314773463879 -0.0008835585667223094 -0.0016368161418082233 -0.0008835585667223094 -0.5450619436563695" free_energy=-11282.26993874186 pbc="T T T"
In       8.60036081       4.64250216       3.20558250        0       0.02218605       0.01197610       0.00826933
In       6.21113773       3.35279193       2.31505571        1      -0.02218605      -0.01197610      -0.00826933
In       3.66319463       1.97740413       1.36536976        2       0.02218605       0.01197610       0.00826933
In       1.27397154       0.68769390       0.47484297        3      -0.02218605      -0.01197610      -0.00826933
O        4.96872790       1.79231418      -0.13812428        4      -0.00000000      -0.02523109       0.03654106
O        5.64949922       4.33606781       0.66675341        5       0.02109332      -0.03907594      -0.00000000
O        6.72497794       1.45389342       1.95544142        6      -0.02109332       0.01384485       0.03654106
O        3.14935441       3.87630264       1.72498406        7       0.02109332      -0.01384485      -0.03654106
O        4.90560446       3.53788188       3.81854976        8      -0.00000000       0.02523109      -0.03654106
O        4.22483313       0.99412825       3.01367207        9      -0.02109332       0.03907594       0.00000000
10
Lattice="5.004879774603833 -0.36156000239561276 -0.24965210102311752 2.4440209034648976 4.382500315687091 -0.2496521010231039 2.4440209034649 1.3192902687241743 4.186658378157019" Properties=species:S:1:pos:R:3:spacegroup_kinds:I:1:forces:R:3 spacegroup="P 1" unit_cell=conventional occupancy="_JSON {\"0\": {\"In\": 1}, \"1\": {\"In\": 1}, \"2\": {\"In\": 1}, \"3\": {\"In\": 1}, \"4\": {\"O\": 1}, \"5\": {\"O\": 1}, \"6\": {\"O\": 1}, \"7\": {\"O\": 1}, \"8\": {\"O\": 1}, \"9\": {\"O\": 1}}" n_minim_iter=5 energy=-11282.270554866343 stress="-0.5494286163783638 -0.0005361138842807253 -0.00037017910357737925 -0.0005361138842807253 -0.5487248468897259 -0.0001998238593502741 -0.00037017910357737925 -0.0001998238593502741 -0.5485734264744541" free_energy=-11282.270554866343 pbc="T T T"
In       8.61550475       4.65067691       3.21122705        0       0.00523962       0.00282836       0.00195295
In       6.22387761       3.35966896       2.31980421        1      -0.00523962      -0.00282836      -0.00195295
In       3.66904396       1.98056162       1.36754997        2       0.00523962       0.00282836       0.00195295
In       1.27741682       0.68955367       0.47612712        3      -0.00523962      -0.00282836      -0.00195295
O        4.97567028       1.79696687      -0.13376565        4      -0.00000000      -0.00800406       0.01159192
O        5.66038933       4.34087465       0.67218644        5       0.00669143      -0.01239606      -0.00000000
O        6.73497213       1.46126516       1.95956354        6      -0.00669143       0.00439200       0.01159192
O        3.15794944       3.87896542       1.72779063        7       0.00669143      -0.00439200      -0.01159192
O        4.91725129       3.54326371       3.82111982        8       0.00000000       0.00800406      -0.01159192
O        4.23253224       0.99935594       3.01516773        9      -0.00669143       0.01239606       0.00000000
10
Lattice="5.006036726525981 -0.3602107911527334 -0.24872048961898813 2.445783695584797 4.382727191578482 -0.24872048961897447 2.445783695584798 1.3202418295255856 4.186540460729908" Properties=species:S:1:pos:R:3:spacegroup_kinds:I:1:forces:R:3 spacegroup="P 1" unit_cell=conventional occupancy="_JSON {\"0\": {\"In\": 1}, \"1\": {\"In\": 1}, \"2\": {\"In\": 1}, \"3\": {\"In\": 1}, \"4\": {\"O\": 1}, \"5\": {\"O\": 1}, \"6\": {\"O\": 1}, \"7\": {\"O\": 1}, \"8\": {\"O\": 1}, \"9\": {\"O\": 1}}" n_minim_iter=6 energy=-11282.27058961323 stress="-0.5493363694455553 2.4784360437267562e-06 1.7113240607629758e-06 2.4784360437267562e-06 -0.5493396229472967 9.237789105475866e-07 1.7113240607629758e-06 9.237789105475866e-07 -0.5493403229580127" free_energy=-11282.27058961323 pbc="T T T"
In       8.61919913       4.65267115       3.21260405        0       0.00011253       0.00006074       0.00004194
In       6.22720704       3.36146620       2.32104517        1      -0.00011253      -0.00006074      -0.00004194
In       3.67039707       1.98129203       1.36805431        2       0.00011253       0.00006074       0.00004194
In       1.27840498       0.69008708       0.47649543        3      -0.00011253      -0.00006074      -0.00004194
O        4.97741939       1.79802044      -0.13249718        4       0.00000000       0.00013754      -0.00019919
O        5.66323130       4.34190286       0.67355438        5      -0.00011498       0.00021301       0.00000000
O        6.73739117       1.46318626       1.96077305        6       0.00011498      -0.00007547      -0.00019919
O        3.16021294       3.87957197       1.72832643        7      -0.00011498       0.00007547       0.00019919
O        4.92018472       3.54473779       3.82159666        8      -0.00000000      -0.00013754       0.00019919
O        4.23437280       1.00085537       3.01554510        9       0.00011498      -0.00021301       0.00000000
