10
Lattice="6.1675127860093415 0.061335102499578076 0.04235102639681709 3.4355254515702742 5.122415527073155 0.04235102639681753 3.435525451570272 1.8545075820690629 4.775116340937189" Properties=species:S:1:pos:R:3:spacegroup_kinds:I:1:forces:R:3 spacegroup="P 1" unit_cell=conventional occupancy="_JSON {\"0\": {\"In\": 1}, \"1\": {\"In\": 1}, \"2\": {\"In\": 1}, \"3\": {\"In\": 1}, \"4\": {\"O\": 1}, \"5\": {\"O\": 1}, \"6\": {\"O\": 1}, \"7\": {\"O\": 1}, \"8\": {\"O\": 1}, \"9\": {\"O\": 1}}" n_minim_iter=6 energy=-11287.14255947639 stress="0.04871405119119101 3.8603376985485915e-05 2.6655089225066708e-05 3.8603376985485915e-05 0.04866337561696168 1.4388502442443933e-05 2.6655089225066708e-05 1.4388502442443933e-05 0.04865247245039112" free_energy=-11287.14255947639 pbc="T T T"
In      11.10812189       5.99619958       4.14029155        0      -0.00038934      -0.00021017      -0.00014512
In       8.44972365       4.56118774       3.14943604        1       0.00038934       0.00021017       0.00014512
In       4.58884005       2.47707048       1.71038236        2      -0.00038934      -0.00021017      -0.00014512
In       1.93044180       1.04205864       0.71952685        3       0.00038934       0.00021017       0.00014512
O        6.34339732       2.44559225       0.28700125        4       0.00000000      -0.00230690       0.00334098
O        7.51327570       5.36641044       1.25730563        5       0.00192858      -0.00357274       0.00000000
O        8.60904439       2.35787547       2.67455942        6      -0.00192858       0.00126584       0.00334098
O        4.42951931       4.68038275       2.18525898        7       0.00192858      -0.00126584      -0.00334098
O        6.69516638       4.59266597       4.57281715        8       0.00000000       0.00230690      -0.00334098
O        5.52528800       1.67184778       3.60251277        9      -0.00192858       0.00357274       0.00000000
