10
Lattice="5.6716459005783975 0.0019265045584296665 0.00133022432641066 3.113766574847914 4.740467134189145 0.0013302243264190978 3.1137665748479124 1.6808211155033945 4.432479080323127" Properties=species:S:1:pos:R:3:spacegroup_kinds:I:1:forces:R:3 spacegroup="P 1" unit_cell=conventional occupancy="_JSON {\"0\": {\"In\": 1}, \"1\": {\"In\": 1}, \"2\": {\"In\": 1}, \"3\": {\"In\": 1}, \"4\": {\"O\": 1}, \"5\": {\"O\": 1}, \"6\": {\"O\": 1}, \"7\": {\"O\": 1}, \"8\": {\"O\": 1}, \"9\": {\"O\": 1}}" n_minim_iter=1 energy=-11287.0137258977 stress="-0.11905892363432193 0.002651649277562086 0.0018309265652835885 0.002651649277562086 -0.12253980690914723 0.0009883399927099483 0.0018309265652835885 0.0009883399927099483 -0.12328874076132008" free_energy=-11287.0137258977 pbc="T T T"
In      10.21699538       5.51516665       3.80814507        0       0.08324389       0.04493532       0.03102721
In       7.63177321       4.11965549       2.84456422        1      -0.08324389      -0.04493532      -0.03102721
In       4.26740585       2.30355928       1.59057531        2       0.08324389       0.04493532       0.03102721
In       1.68218368       0.90804811       0.62699446        3      -0.08324389      -0.04493532      -0.03102721
O        5.81061772       2.24537438       0.18458334        4       0.00000000       0.07499127      -0.10860652
O        6.83362201       4.96602579       1.11011511        5      -0.06269308       0.11614062      -0.00000000
O        7.90138000       2.09675966       2.40082288        6       0.06269308      -0.04114935      -0.10860652
O        3.99779906       4.32645511       2.03431665        7      -0.06269308       0.04114935       0.10860652
O        6.08856134       4.17784039       4.25055619        8       0.00000000      -0.07499127       0.10860652
O        5.06555705       1.45718897       3.32502442        9       0.06269308      -0.11614062      -0.00000000
10
Lattice="5.646965463644527 -0.02361454404377774 -0.01630551083131188 3.078871435969408 4.733849097199459 -0.016305510831303424 3.0788714359694076 1.6619846083839491 4.432538810460036" Properties=species:S:1:pos:R:3:spacegroup_kinds:I:1:forces:R:3 spacegroup="P 1" unit_cell=conventional occupancy="_JSON {\"0\": {\"In\": 1}, \"1\": {\"In\": 1}, \"2\": {\"In\": 1}, \"3\": {\"In\": 1}, \"4\": {\"O\": 1}, \"5\": {\"O\": 1}, \"6\": {\"O\": 1}, \"7\": {\"O\": 1}, \"8\": {\"O\": 1}, \"9\": {\"O\": 1}}" n_minim_iter=2 energy=-11287.017775134987 stress="-0.11970743020223955 -0.00117604684140021 -0.0008120438189316748 -0.00117604684140021 -0.11816360545295664 -0.00043834384077356687 -0.0008120438189316748 -0.00043834384077356687 -0.1178314418825153" free_energy=-11287.017775134987 pbc="T T T"
In      10.13705972       5.47201713       3.77835093        0       0.19127040       0.10324837       0.07129155
In       7.57000279       4.08631162       2.82154075        1      -0.19127040      -0.10324837      -0.07129155
In       4.23470555       2.28590755       1.57838704        2       0.19127040       0.10324837       0.07129155
In       1.66764862       0.90020204       0.62157686        3      -0.19127040      -0.10324837      -0.07129155
O        5.77465982       2.22348077       0.16171143        4       0.00000000       0.03728543      -0.05399882
O        6.77718535       4.94281273       1.08367644        5      -0.03117080       0.05774475      -0.00000000
O        7.85100573       2.05983242       2.37798084        6       0.03117080      -0.02045933      -0.05399882
O        3.95370261       4.31238676       2.02194695        7      -0.03117080       0.02045933       0.05399882
O        6.03004852       4.14873841       4.23821636        8       0.00000000      -0.03728543       0.05399882
O        5.02752300       1.42940645       3.31625135        9       0.03117080      -0.05774475       0.00000000
10
Lattice="5.6441121745218785 -0.026579422246986662 -0.018352717568241902 3.074827120935839 4.733090626707943 -0.018352717568233437 3.074827120935838 1.6598014742463179 4.432554880535884" Properties=species:S:1:pos:R:3:spacegroup_kinds:I:1:forces:R:3 spacegroup="P 1" unit_cell=conventional occupancy="_JSON {\"0\": {\"In\": 1}, \"1\": {\"In\": 1}, \"2\": {\"In\": 1}, \"3\": {\"In\": 1}, \"4\": {\"O\": 1}, \"5\": {\"O\": 1}, \"6\": {\"O\": 1}, \"7\": {\"O\": 1}, \"8\": {\"O\": 1}, \"9\": {\"O\": 1}}" n_minim_iter=3 energy=-11287.029374364565 stress="-0.1115473328397378 0.001454486455612356 0.0010043024588296387 0.001454486455612356 -0.11345667191461418 0.0005421256662369147 0.0010043024588296387 0.0005421256662369147 -0.11386747818221615" free_energy=-11287.029374364565 pbc="T T T"
In      10.14231456       5.47485371       3.78030955        0       0.02659541       0.01435629       0.00991281
In       7.54833507       4.07461532       2.81346462        1      -0.02659541      -0.01435629      -0.00991281
In       4.24543135       2.29169737       1.58238483        2       0.02659541       0.01435629       0.00991281
In       1.65145186       0.89145898       0.61553990        3      -0.02659541      -0.01435629      -0.00991281
O        5.77049770       2.22553214       0.15241186        4      -0.00000000       0.01783503      -0.02582968
O        6.76681231       4.94723420       1.08060965        5      -0.01491018       0.02762151      -0.00000000
O        7.84901020       2.05303246       2.36868930        6       0.01491018      -0.00978647      -0.02582968
O        3.94475623       4.31328023       2.02716015        7      -0.01491018       0.00978647       0.02582968
O        6.02326873       4.14078055       4.24343759        8      -0.00000000      -0.01783503       0.02582968
O        5.02695411       1.41907849       3.31523980        9       0.01491018      -0.02762151      -0.00000000
10
Lattice="5.627297008320336 -0.04410405049200928 -0.03045322711584325 3.0509495953166006 4.72864921028811 -0.030453227115834813 3.0509495953166006 1.6469123098590515 4.4326888675650205" Properties=species:S:1:pos:R:3:spacegroup_kinds:I:1:forces:R:3 spacegroup="P 1" unit_cell=conventional occupancy="_JSON {\"0\": {\"In\": 1}, \"1\": {\"In\": 1}, \"2\": {\"In\": 1}, \"3\": {\"In\": 1}, \"4\": {\"O\": 1}, \"5\": {\"O\": 1}, \"6\": {\"O\": 1}, \"7\": {\"O\": 1}, \"8\": {\"O\": 1}, \"9\": {\"O\": 1}}" n_minim_iter=4 energy=-11287.032195216587 stress="-0.10763157869262892 0.0006247047417578666 0.0004313498454213659 0.0006247047417578666 -0.10845164351396551 0.00023284402112442397 0.0004313498454213659 0.00023284402112442397 -0.10862808559874988" free_energy=-11287.032195216587 pbc="T T T"
In      10.09498332       5.44930416       3.76266795        0       0.01356752       0.00732379       0.00505698
In       7.49881098       4.04788206       2.79500568        1      -0.01356752      -0.00732379      -0.00505698
In       4.23038522       2.28357542       1.57677674        2       0.01356752       0.00732379       0.00505698
In       1.63421288       0.88215332       0.60911447        3      -0.01356752      -0.00732379      -0.00505698
O        5.74594756       2.21261516       0.13374205        4      -0.00000000      -0.01347987       0.01952230
O        6.72651196       4.93459821       1.06249238        5       0.01126924      -0.02087657      -0.00000000
O        7.81633276       2.02661006       2.35008649        6      -0.01126924       0.00739670       0.01952230
O        3.91286345       4.30484742       2.02169593        7       0.01126924      -0.00739670      -0.01952230
O        5.98324865       4.11884232       4.23804036        8       0.00000000       0.01347987      -0.01952230
O        5.00268425       1.39685928       3.30929004        9      -0.01126924       0.02087657       0.00000000
10
Lattice="5.6201191399133235 -0.051612058450717355 -0.035637401109012964 3.040734210029962 4.726768284499587 -0.035637401109004534 3.0407342100299624 1.6413980123418646 4.432766743783068" Properties=species:S:1:pos:R:3:spacegroup_kinds:I:1:forces:R:3 spacegroup="P 1" unit_cell=conventional occupancy="_JSON {\"0\": {\"In\": 1}, \"1\": {\"In\": 1}, \"2\": {\"In\": 1}, \"3\": {\"In\": 1}, \"4\": {\"O\": 1}, \"5\": {\"O\": 1}, \"6\": {\"O\": 1}, \"7\": {\"O\": 1}, \"8\": {\"O\": 1}, \"9\": {\"O\": 1}}" n_minim_iter=5 energy=-11287.032558831272 stress="-0.10672183182469205 0.00012641288838436651 8.728632358749826e-05 0.00012641288838436651 -0.10688777704041577 4.711743555378426e-05 8.728632358749826e-05 4.711743555378426e-05 -0.10692348119306004" free_energy=-11287.032558831272 pbc="T T T"
In      10.07355366       5.43773635       3.75468054        0       0.01537597       0.00830000       0.00573103
In       7.47882769       4.03709501       2.78755738        1      -0.01537597      -0.00830000      -0.00573103
In       4.22275988       2.27945924       1.57393457        2       0.01537597       0.00830000       0.00573103
In       1.62803391       0.87881789       0.60681141        3      -0.01537597      -0.00830000      -0.00573103
O        5.73545646       2.20629829       0.12689311        4       0.00000000      -0.01568541       0.02271647
O        6.70994094       4.92797901       1.05473559        5       0.01311308      -0.02429233       0.00000000
O        7.80170620       2.01573497       2.34327648        6      -0.01311308       0.00860692       0.02271647
O        3.89988137       4.30081928       2.01821546        7       0.01311308      -0.00860692      -0.02271647
O        5.96613110       4.11025596       4.23459884        8       0.00000000       0.01568541      -0.02271647
O        4.99164663       1.38857524       3.30675636        9      -0.01311308       0.02429233       0.00000000
10
Lattice="5.61622205007559 -0.05569531007851645 -0.03845682898027034 3.0351821729826383 4.725750867336165 -0.03845682898026187 3.0351821729826396 1.6384010050586022 4.432814267984469" Properties=species:S:1:pos:R:3:spacegroup_kinds:I:1:forces:R:3 spacegroup="P 1" unit_cell=conventional occupancy="_JSON {\"0\": {\"In\": 1}, \"1\": {\"In\": 1}, \"2\": {\"In\": 1}, \"3\": {\"In\": 1}, \"4\": {\"O\": 1}, \"5\": {\"O\": 1}, \"6\": {\"O\": 1}, \"7\": {\"O\": 1}, \"8\": {\"O\": 1}, \"9\": {\"O\": 1}}" n_minim_iter=6 energy=-11287.032689147054 stress="-0.10623881031774034 -5.768624638518264e-05 -3.983154199941672e-05 -5.768624638518264e-05 -0.10616308420495583 -2.1501192498163002e-05 -3.983154199941672e-05 -2.1501192498163002e-05 -0.10614679125874495" free_energy=-11287.032689147054 pbc="T T T"
In      10.06199172       5.43149518       3.75037110        0       0.00931041       0.00502579       0.00347023
In       7.46788789       4.03118967       2.78347982        1      -0.00931041      -0.00502579      -0.00347023
In       4.21869852       2.27726690       1.57242079        2       0.00931041       0.00502579       0.00347023
In       1.62459469       0.87696139       0.60552952        3      -0.00931041      -0.00502579      -0.00347023
O        5.72975763       2.20255945       0.12361169        4       0.00000000      -0.00934599       0.01353538
O        6.70119254       4.92391100       1.05051833        5       0.00781329      -0.01447433      -0.00000000
O        7.79350489       2.00999088       2.34001882        6      -0.00781329       0.00512835       0.01353538
O        3.89308152       4.29846570       2.01588179        7       0.00781329      -0.00512835      -0.01353538
O        5.95682878       4.10589712       4.23228893        8       0.00000000       0.00934599      -0.01353538
O        4.98539386       1.38454557       3.30538229        9      -0.00781329       0.01447433       0.00000000
10
Lattice="5.615107240053542 -0.05686427413436141 -0.03926398223458089 3.0335931925909465 4.725460316714186 -0.039263982234572524 3.0335931925909474 1.637543268381726 4.432828544994622" Properties=species:S:1:pos:R:3:spacegroup_kinds:I:1:forces:R:3 spacegroup="P 1" unit_cell=conventional occupancy="_JSON {\"0\": {\"In\": 1}, \"1\": {\"In\": 1}, \"2\": {\"In\": 1}, \"3\": {\"In\": 1}, \"4\": {\"O\": 1}, \"5\": {\"O\": 1}, \"6\": {\"O\": 1}, \"7\": {\"O\": 1}, \"8\": {\"O\": 1}, \"9\": {\"O\": 1}}" n_minim_iter=7 energy=-11287.03272338404 stress="-0.10609384228654109 -4.939163399202012e-05 -3.410422914208037e-05 -4.939163399202012e-05 -0.1060290047079355 -1.840957136128417e-05 -3.410422914208037e-05 -1.840957136128417e-05 -0.1060150544979616" free_energy=-11287.03272338404 pbc="T T T"
In      10.05876479       5.42975328       3.74916834        0       0.00226614       0.00122327       0.00084465
In       7.46467566       4.02945570       2.78228254        1      -0.00226614      -0.00122327      -0.00084465
In       4.21761798       2.27668362       1.57201805        2       0.00226614       0.00122327       0.00084465
In       1.62352885       0.87638605       0.60513225        3      -0.00226614      -0.00122327      -0.00084465
O        5.72812703       2.20128681       0.12296574        4      -0.00000000      -0.00238406       0.00345272
O        6.69885845       4.92243336       1.04931117        5       0.00199308      -0.00369224      -0.00000000
O        7.79098880       2.00845794       2.33938001        6      -0.00199308       0.00130818       0.00345272
O        3.89130483       4.29768138       2.01492057        7       0.00199308      -0.00130818      -0.00345272
O        5.95416660       4.10485251       4.23133485        8      -0.00000000       0.00238406      -0.00345272
O        4.98343518       1.38370596       3.30498942        9      -0.00199308       0.00369224       0.00000000
