10
Lattice="5.733091264055429 0.011632752409135552 0.00803225207539875 3.155597459706891 4.786509734160029 0.008032252075404357 3.1555974597068883 1.7034015603958008 4.473160300763128" Properties=species:S:1:pos:R:3:spacegroup_kinds:I:1:forces:R:3 spacegroup="P 1" unit_cell=conventional occupancy="_JSON {\"0\": {\"In\": 1}, \"1\": {\"In\": 1}, \"2\": {\"In\": 1}, \"3\": {\"In\": 1}, \"4\": {\"O\": 1}, \"5\": {\"O\": 1}, \"6\": {\"O\": 1}, \"7\": {\"O\": 1}, \"8\": {\"O\": 1}, \"9\": {\"O\": 1}}" n_minim_iter=1 energy=-11287.334670020195 stress="-0.08172436802604394 0.0003095776005846801 0.00021375898230355413 0.0003095776005846801 -0.08213075792913882 0.00011538778046842159 0.00021375898230355413 0.00011538778046842159 -0.08221819526191139" free_energy=-11287.334670020195 pbc="T T T"
In      10.33016415       5.57625552       3.85032608        0       0.04304283       0.02323466       0.01604320
In       7.73626513       4.17606056       2.88351114        1      -0.04304283      -0.02323466      -0.01604320
In       4.30802106       2.32548349       1.60571367        2       0.04304283       0.02323466       0.01604320
In       1.71412204       0.92528854       0.63889873        3      -0.04304283      -0.02323466      -0.01604320
O        5.87761718       2.26798912       0.20409252        4       0.00000000       0.07601410      -0.11008784
O        6.92305904       5.01066277       1.13033846        5      -0.06354817       0.11772471      -0.00000000
O        7.98777279       2.13348439       2.44067267        6       0.06354817      -0.04171060      -0.11008784
O        4.05651341       4.36805967       2.04855214        7      -0.06354817       0.04171060       0.11008784
O        6.16666901       4.23355494       4.28513229        8      -0.00000000      -0.07601411       0.11008784
O        5.12122715       1.49088129       3.35888635        9       0.06354817      -0.11772470      -0.00000000
10
Lattice="5.721441821289941 -0.0003667110158903405 -0.0002532088034566844 3.139173544722175 4.78335510964835 -0.0002532088034510639 3.139173544722173 1.694535878771323 4.473145909163973" Properties=species:S:1:pos:R:3:spacegroup_kinds:I:1:forces:R:3 spacegroup="P 1" unit_cell=conventional occupancy="_JSON {\"0\": {\"In\": 1}, \"1\": {\"In\": 1}, \"2\": {\"In\": 1}, \"3\": {\"In\": 1}, \"4\": {\"O\": 1}, \"5\": {\"O\": 1}, \"6\": {\"O\": 1}, \"7\": {\"O\": 1}, \"8\": {\"O\": 1}, \"9\": {\"O\": 1}}" n_minim_iter=2 energy=-11287.338099918512 stress="-0.08098793002560495 -0.0015027506006720227 -0.0010376281734940703 -0.0015027506006720227 -0.07901523345600096 -0.000560114993807954 -0.0010376281734940703 -0.000560114993807954 -0.07859079542773659" free_energy=-11287.338099918512 pbc="T T T"
In      10.29437042       5.55693395       3.83698480        0       0.11449816       0.06180647       0.04267650
In       7.70531295       4.15935248       2.87197444        1      -0.11449816      -0.06180647      -0.04267650
In       4.29447597       2.31817181       1.60066506        2       0.11449816       0.06180647       0.04267650
In       1.70541850       0.92059034       0.63565469        3      -0.11449816      -0.06180647      -0.04267650
O        5.86066814       2.26137411       0.18799784        4       0.00000000       0.00241590      -0.00349884
O        6.89339225       5.00542788       1.11790667        5      -0.00201970       0.00374155       0.00000000
O        7.96711758       2.11408944       2.42457080        6       0.00201970      -0.00132566      -0.00349884
O        4.03267134       4.36343485       2.04806870        7      -0.00201970       0.00132566       0.00349884
O        6.13912078       4.21615018       4.28464165        8      -0.00000000      -0.00241590       0.00349884
O        5.10639667       1.47209640       3.35473283        9       0.00201970      -0.00374155      -0.00000000
10
Lattice="5.730472028112201 0.008938332166535909 0.00617179275980171 3.1519076789694123 4.785798527102034 0.006171792759807325 3.1519076789694105 1.7014098050005095 4.473154402486682" Properties=species:S:1:pos:R:3:spacegroup_kinds:I:1:forces:R:3 spacegroup="P 1" unit_cell=conventional occupancy="_JSON {\"0\": {\"In\": 1}, \"1\": {\"In\": 1}, \"2\": {\"In\": 1}, \"3\": {\"In\": 1}, \"4\": {\"O\": 1}, \"5\": {\"O\": 1}, \"6\": {\"O\": 1}, \"7\": {\"O\": 1}, \"8\": {\"O\": 1}, \"9\": {\"O\": 1}}" n_minim_iter=3 energy=-11287.33981242784 stress="-0.07848044991179717 0.00026846914489638484 0.00018537417290422233 0.00026846914489638484 -0.07883287576425095 0.00010006556878700557 0.00018537417290422233 0.00010006556878700557 -0.07890870239426674" free_energy=-11287.33981242784 pbc="T T T"
In      10.32669120       5.57438081       3.84903162        0       0.06703928       0.03618802       0.02498732
In       7.72473988       4.16983920       2.87921537        1      -0.06703928      -0.03618802      -0.02498732
In       4.30954751       2.32630748       1.60628262        2       0.06703928       0.03618802       0.02498732
In       1.70759619       0.92176587       0.63646638        3      -0.06703928      -0.03618802      -0.02498732
O        5.87380787       2.27176085       0.19286285        4       0.00000000      -0.01734048       0.02511345
O        6.91199731       5.01762819       1.12754629        5       0.01449673      -0.02685558       0.00000000
O        7.98752610       2.12624266       2.42944005        6      -0.01449673       0.00951510       0.02511345
O        4.04676129       4.36990401       2.05605794        7       0.01449673      -0.00951510      -0.02511345
O        6.16047953       4.22438583       4.29263514        8      -0.00000000       0.01734048      -0.02511345
O        5.12229009       1.47851848       3.35795170        9      -0.01449673       0.02685558       0.00000000
10
Lattice="5.723682255880215 0.0019441798994981768 0.0013424289010444948 3.142334836452396 4.783960087807094 0.0013424289010501144 3.142334836452394 1.6962423541170806 4.473146297623848" Properties=species:S:1:pos:R:3:spacegroup_kinds:I:1:forces:R:3 spacegroup="P 1" unit_cell=conventional occupancy="_JSON {\"0\": {\"In\": 1}, \"1\": {\"In\": 1}, \"2\": {\"In\": 1}, \"3\": {\"In\": 1}, \"4\": {\"O\": 1}, \"5\": {\"O\": 1}, \"6\": {\"O\": 1}, \"7\": {\"O\": 1}, \"8\": {\"O\": 1}, \"9\": {\"O\": 1}}" n_minim_iter=4 energy=-11287.341029009569 stress="-0.07715704172890753 0.00042425247551320966 0.0002929403730405569 0.00042425247551320966 -0.07771396807658683 0.00015813014582771983 0.0002929403730405569 0.00015813014582771983 -0.07783379426898263" free_energy=-11287.341029009569 pbc="T T T"
In      10.31073452       5.56576734       3.84308414        0      -0.00833137      -0.00449730      -0.00310532
In       7.70179338       4.15745261       2.87066260        1       0.00833137       0.00449730       0.00310532
In       4.30655855       2.32469403       1.60516856        2      -0.00833137      -0.00449730      -0.00310532
In       1.69761742       0.91637929       0.63274702        3       0.00833137       0.00449730       0.00310532
O        5.86392911       2.26597529       0.18627686        4      -0.00000000       0.00072145      -0.00104484
O        6.89631929       5.01158821       1.12030022        5      -0.00060313       0.00111732      -0.00000000
O        7.97387377       2.11599706       2.42285001        6       0.00060313      -0.00039587      -0.00104484
O        4.03447816       4.36614957       2.05298115        7      -0.00060313       0.00039587       0.00104484
O        6.14442282       4.21617134       4.28955430        8      -0.00000000      -0.00072145       0.00104484
O        5.11203265       1.47055843       3.35553094        9       0.00060313      -0.00111732       0.00000000
