10
Lattice="5.784282287557668 0.011736621765917601 0.008103972406691681 3.1837739279128408 4.82924868963965 0.00810397240669319 3.1837739279128385 1.7186113076849634 4.513101345400125" Properties=species:S:1:pos:R:3:spacegroup_kinds:I:1:forces:R:3 spacegroup="P 1" unit_cell=conventional occupancy="_JSON {\"0\": {\"In\": 1}, \"1\": {\"In\": 1}, \"2\": {\"In\": 1}, \"3\": {\"In\": 1}, \"4\": {\"O\": 1}, \"5\": {\"O\": 1}, \"6\": {\"O\": 1}, \"7\": {\"O\": 1}, \"8\": {\"O\": 1}, \"9\": {\"O\": 1}}" n_minim_iter=5 energy=-11287.543602834807 stress="-0.04595365541693208 -0.00013072984846546404 -9.026712341488298e-05 -0.00013072984846546404 -0.045782043226894116 -4.872648147088709e-05 -9.026712341488298e-05 -4.872648147088709e-05 -0.045745119787375145" free_energy=-11287.543602834807 pbc="T T T"
In      10.42240264       5.62604615       3.88470581        0       0.00550107       0.00296950       0.00205040
In       7.80534258       4.21334879       2.90925813        1      -0.00550107      -0.00296950      -0.00205040
In       4.34648757       2.34624784       1.62005116        2       0.00550107       0.00296950       0.00205040
In       1.72942751       0.93355048       0.64460349        3      -0.00550107      -0.00296950      -0.00205040
O        5.93009868       2.28824009       0.20591487        4      -0.00000000      -0.00106565       0.00154334
O        6.98487534       5.05540320       1.14043130        5       0.00089089      -0.00165040      -0.00000000
O        8.05909596       2.15253436       2.46246555        6      -0.00089089       0.00058475       0.00154334
O        4.09273419       4.40706227       2.06684375        7       0.00089089      -0.00058475      -0.00154334
O        6.22173147       4.27135654       4.32339442        8      -0.00000000       0.00106565      -0.00154334
O        5.16695482       1.50419343       3.38887800        9      -0.00089089       0.00165040       0.00000000
