10
Lattice="5.790976459978353 0.018613811578935272 0.012852575334498195 3.1931965315302513 4.831071386869385 0.012852575334501883 3.193196531530245 1.7236976591318227 4.513123343497753" Properties=species:S:1:pos:R:3:spacegroup_kinds:I:1:forces:R:3 spacegroup="P 1" unit_cell=conventional occupancy="_JSON {\"0\": {\"In\": 1}, \"1\": {\"In\": 1}, \"2\": {\"In\": 1}, \"3\": {\"In\": 1}, \"4\": {\"O\": 1}, \"5\": {\"O\": 1}, \"6\": {\"O\": 1}, \"7\": {\"O\": 1}, \"8\": {\"O\": 1}, \"9\": {\"O\": 1}}" n_minim_iter=5 energy=-11287.651404986347 stress="-0.02015056482134021 0.00022253516784893416 0.00015365740706893644 0.00022253516784893416 -0.020442692044753876 8.294475793032759e-05 0.00015365740706893644 8.294475793032759e-05 -0.020505545049588104" free_energy=-11287.651404986347 pbc="T T T"
In      10.43736940       5.63412525       3.89028431        0       0.00338020       0.00182464       0.00125989
In       7.82868489       4.22594905       2.91795843        1      -0.00338020      -0.00182464      -0.00125989
In       4.34868464       2.34743382       1.62087007        2       0.00338020       0.00182464       0.00125989
In       1.74000013       0.93925762       0.64854418        3      -0.00338020      -0.00182464      -0.00125989
O        5.93983062       2.28903913       0.21948323        4      -0.00000000      -0.00102183       0.00147987
O        7.00440659       5.05377399       1.14755970        5       0.00085426      -0.00158253      -0.00000000
O        8.06845117       2.16530228       2.47604490        6      -0.00085426       0.00056070       0.00147987
O        4.10891836       4.40808059       2.06278360        7       0.00085426      -0.00056070      -0.00147987
O        6.23753892       4.28434374       4.31934527        8      -0.00000000       0.00102183      -0.00147987
O        5.17296294       1.51960888       3.39126880        9      -0.00085426       0.00158253       0.00000000
