10
Lattice="5.562626531878899 -0.05633280122586183 -0.038897007659504435 3.0052401955323487 4.681294552238072 -0.03889700765949614 3.0052401955323496 1.6222382302556022 4.391397816904757" Properties=species:S:1:pos:R:3:spacegroup_kinds:I:1:forces:R:3 spacegroup="P 1" unit_cell=conventional occupancy="_JSON {\"0\": {\"In\": 1}, \"1\": {\"In\": 1}, \"2\": {\"In\": 1}, \"3\": {\"In\": 1}, \"4\": {\"O\": 1}, \"5\": {\"O\": 1}, \"6\": {\"O\": 1}, \"7\": {\"O\": 1}, \"8\": {\"O\": 1}, \"9\": {\"O\": 1}}" n_minim_iter=7 energy=-11287.03272338404 stress="-0.10609384228654109 -4.939163399202012e-05 -3.410422914208037e-05 -4.939163399202012e-05 -0.1060290047079355 -1.840957136128417e-05 -3.410422914208037e-05 -1.840957136128417e-05 -0.1060150544979616" free_energy=-11287.03272338404 pbc="T T T"
In       9.96475214       5.37900495       3.71412733        0       0.00226614       0.00122327       0.00084465
In       7.39490825       3.99179503       2.75627838        1      -0.00226614      -0.00122327      -0.00084465
In       4.17819868       2.25540496       1.55732543        2       0.00226614       0.00122327       0.00084465
In       1.60835479       0.86819504       0.59947648        3      -0.00226614      -0.00122327      -0.00084465
O        5.67459000       2.18071283       0.12181646        4      -0.00000000      -0.00238406       0.00345272
O        6.63624864       4.87642662       1.03950394        5       0.00199308      -0.00369224      -0.00000000
O        7.71817156       1.98968620       2.31751537        6      -0.00199308       0.00130818       0.00345272
O        3.85493537       4.25751379       1.99608844        7       0.00199308      -0.00130818      -0.00345272
O        5.89851693       4.06648716       4.19178735        8      -0.00000000       0.00238406      -0.00345272
O        4.93685830       1.37077337       3.27409986        9      -0.00199308       0.00369224       0.00000000
