10
Lattice="6.441869546104717 0.11790043617316515 0.08140859444393606 3.633359900346528 5.320740512037325 0.08140859444394351 3.6333599003465293 1.9612992476881685 4.946737532627168" Properties=species:S:1:pos:R:3:spacegroup_kinds:I:1:forces:R:3 spacegroup="P 1" unit_cell=conventional occupancy="_JSON {\"0\": {\"In\": 1}, \"1\": {\"In\": 1}, \"2\": {\"In\": 1}, \"3\": {\"In\": 1}, \"4\": {\"O\": 1}, \"5\": {\"O\": 1}, \"6\": {\"O\": 1}, \"7\": {\"O\": 1}, \"8\": {\"O\": 1}, \"9\": {\"O\": 1}}" n_minim_iter=5 energy=-11286.349987635376 stress="0.0753943968976754 -4.128689688559084e-06 -2.8508026494638137e-06 -4.128689688559084e-06 0.07539981672756702 -1.5388725766389047e-06 -2.8508026494638137e-06 -1.5388725766389047e-06 0.07540098283872619" free_energy=-11286.349987635376 pbc="T T T"
In      11.65136569       6.28944432       4.34277292        0      -0.00174361      -0.00094120      -0.00064989
In       8.91151834       4.81046599       3.32155917        1       0.00174361       0.00094120       0.00064989
In       4.79707102       2.58947422       1.78799556        2      -0.00174361      -0.00094120      -0.00064989
In       2.05722367       1.11049589       0.76678181        3       0.00174361       0.00094120       0.00064989
O        6.64808212       2.60031153       0.31680359        4      -0.00000000      -0.00178945       0.00259158
O        7.88676807       5.64005504       1.35879728        5       0.00149599      -0.00277136       0.00000000
O        9.04275606       2.51021164       2.79017236        6      -0.00149599       0.00098191       0.00259158
O        4.66583330       4.88972856       2.31938237        7       0.00149599      -0.00098191      -0.00259158
O        7.06050724       4.79962868       4.79275114        8       0.00000000       0.00178945      -0.00259158
O        5.82182129       1.75988517       3.75075745        9      -0.00149599       0.00277136      -0.00000000
