1
Lattice="4.028559796229535 0.7569070052694824 -4.203810542884582e-10 1.0339078037433582 3.966514452234047 -8.530242951932827e-10 -2.531233799838871 -2.361710728318214 2.1948531004882526" Properties=species:S:1:pos:R:3:spacegroup_kinds:I:1:forces:R:3 spacegroup="P 1" unit_cell=conventional occupancy="_JSON {\"0\": {\"In\": 1}}" n_minim_iter=2 energy=-1970.2505998700549 stress="0.06123262575813838 -0.004565290354749353 1.2451447611790568e-12 -0.004565290354749353 0.06186607022151192 1.1329492597354648e-12 1.2451447611790568e-12 1.1329492597354648e-12 0.06612561163926746" free_energy=-1970.2505998700549 pbc="T T T"
In       0.00000000       0.00000000       0.00000000        0       0.00000000      -0.00000000      -0.00000000
