1
Lattice="3.66412108988161 0.5173315795837645 -3.4855337364653285e-10 0.7696841241294274 3.619530587467519 -7.667182187429012e-10 -2.2169026068628805 -2.0684310831066006 2.121403075955357" Properties=species:S:1:pos:R:3:spacegroup_kinds:I:1:forces:R:3 spacegroup="P 1" unit_cell=conventional occupancy="_JSON {\"0\": {\"In\": 1}}" n_minim_iter=2 energy=-1970.165647642858 stress="-0.12907329391579916 -2.7700565254146536e-07 -5.884924549302133e-16 -2.7700565254146536e-07 -0.12907325548069537 -7.77893202252536e-15 -5.884924549302133e-16 -7.77893202252536e-15 -0.1290729970258073" free_energy=-1970.165647642858 pbc="T T T"
In       0.00000000       0.00000000       0.00000000        0       0.00000000      -0.00000000       0.00000000
