1
Lattice="3.514116049948924 0.3482911900960974 -3.050805302887903e-10 0.5906672550537148 3.4815844897710724 -7.274327297675454e-10 -2.0523916523572496 -1.9149378395103445 2.142666549361546" Properties=species:S:1:pos:R:3:spacegroup_kinds:I:1:forces:R:3 spacegroup="P 1" unit_cell=conventional occupancy="_JSON {\"0\": {\"In\": 1}}" n_minim_iter=2 energy=-1969.922044963892 stress="-0.15816061692714262 -0.004525651150450179 1.2556778220995087e-12 -0.004525651150450179 -0.15753267249377528 1.1003386976967632e-12 1.2556778220995087e-12 1.1003386976967632e-12 -0.15331011554219337" free_energy=-1969.922044963892 pbc="T T T"
In       0.00000000       0.00000000       0.00000000        0      -0.00000000       0.00000000      -0.00000000
