1
Lattice="3.7221844424158697 0.5682164798372271 -3.625109302030464e-10 0.824465561147175 3.673932978403883 -7.811501985003797e-10 -2.2733250016387228 -2.121074728701038 2.1238084714755874" Properties=species:S:1:pos:R:3:spacegroup_kinds:I:1:forces:R:3 spacegroup="P 1" unit_cell=conventional occupancy="_JSON {\"0\": {\"In\": 1}}" n_minim_iter=2 energy=-1970.3020027266932 stress="-0.0530571852895291 -3.771420202416241e-05 6.535945707616301e-14 -3.771420202416241e-05 -0.05305195235802743 6.093134091189704e-14 6.535945707616301e-14 6.093134091189704e-14 -0.05301676397048636" free_energy=-1970.3020027266932 pbc="T T T"
In       0.00000000       0.00000000       0.00000000        0       0.00000000       0.00000000       0.00000000
