1
Lattice="4.058850856886688 0.7625982490807076 -4.235419327806895e-10 1.0416818385302828 3.996338989028201 -8.594382525315623e-10 -2.5502663475598 -2.3794686186176435 2.211356375048718" Properties=species:S:1:pos:R:3:spacegroup_kinds:I:1:forces:R:3 spacegroup="P 1" unit_cell=conventional occupancy="_JSON {\"0\": {\"In\": 1}}" n_minim_iter=2 energy=-1970.2505998700549 stress="0.06123262575813838 -0.004565290354749353 1.2451447611790568e-12 -0.004565290354749353 0.06186607022151192 1.1329492597354648e-12 1.2451447611790568e-12 1.1329492597354648e-12 0.06612561163926746" free_energy=-1970.2505998700549 pbc="T T T"
In       0.00000000       0.00000000       0.00000000        0       0.00000000      -0.00000000      -0.00000000
