1
Lattice="3.291547224535185 0.1657074016824217 -2.540494647506473e-10 0.393117338266855 3.2721859410295746 -6.7278744319449e-10 -1.842332281258184 -1.7189466709363792 2.1243295841814125" Properties=species:S:1:pos:R:3:spacegroup_kinds:I:1:forces:R:3 spacegroup="P 1" unit_cell=conventional occupancy="_JSON {\"0\": {\"In\": 1}}" n_minim_iter=1 energy=-1969.4754389017633 stress="-0.3068863005712659 0.0010600565121565205 -5.035860583073257e-14 0.0010600565121565205 -0.30703338583339623 -5.017358743476696e-13 -5.035860583073257e-14 -5.017358743476696e-13 -0.30802244770426435" free_energy=-1969.4754389017633 pbc="T T T"
In       0.00000000       0.00000000       0.00000000        0       0.00000000       0.00000000      -0.00000000
