1
Lattice="4.187898574226142 0.850787550731362 -4.4963956381953627e-10 1.1385910385149864 4.118973703666757 -8.901806653980725e-10 -2.6632448062202947 -2.484880626757592 2.234911474173026" Properties=species:S:1:pos:R:3:spacegroup_kinds:I:1:forces:R:3 spacegroup="P 1" unit_cell=conventional occupancy="_JSON {\"0\": {\"In\": 1}}" n_minim_iter=2 energy=-1970.0745171915478 stress="0.08731128228872818 0.0013201495722674993 -1.7832967579725438e-13 0.0013201495722674993 0.08712810852108792 -2.1574629589213795e-13 -1.7832967579725438e-13 -2.1574629589213795e-13 0.08589637267353951" free_energy=-1970.0745171915478 pbc="T T T"
In       0.00000000       0.00000000       0.00000000        0      -0.00000000      -0.00000000      -0.00000000
