80
Lattice="11.757482574446419 0.010462428501882209 0.0072241598627979945 6.460334182896735 9.823573087024766 0.007224159862798427 6.460334182896731 3.48730897027875 9.183752856562304" Properties=species:S:1:pos:R:3:spacegroup_kinds:I:1:forces:R:3 spacegroup="P 1" unit_cell=conventional occupancy="_JSON {\"0\": {\"In\": 1}, \"1\": {\"In\": 1}, \"2\": {\"In\": 1}, \"3\": {\"In\": 1}, \"4\": {\"O\": 1}, \"5\": {\"O\": 1}, \"6\": {\"O\": 1}, \"7\": {\"O\": 1}, \"8\": {\"O\": 1}, \"9\": {\"O\": 1}}" n_minim_iter=4 energy=-90301.46868015923 stress="-9.29150468009358e-05 0.00012629559891554377 -0.00012197457351955607 0.00012629559891554377 -0.00014112550485958732 3.3402268449901444e-05 -0.00012197457351955607 3.3402268449901444e-05 -1.9650114629705837e-05" free_energy=-11287.684771021655 pbc="T T T"
In      10.57682323       5.70940287       3.94226245        0       0.00212417       0.00071477      -0.00064850
In      16.45556452       5.71463408       3.94587453        0       0.00454779       0.00268194       0.00456536
In      13.80699032      10.62118941       3.94587453        0       0.00455015       0.00352514      -0.00290740
In      19.68573161      10.62642063       3.94948661        0       0.00188235      -0.00005652       0.00208129
In      13.80699032       7.45305736       8.53413888        0       0.03923376       0.01635448      -0.00743644
In      19.68573161       7.45828857       8.53775096        0      -0.01083616       0.00872537      -0.00224016
In      17.03715741      12.36484390       8.53775096        0       0.00299704      -0.00360517       0.00028551
In      22.91589870      12.37007511       8.54136304        0      -0.00007307       0.00447037       0.00110660
In       7.93178998       4.28160550       2.95638843        1      -0.00200720      -0.00385092      -0.00511481
In      13.81053127       4.28683671       2.96000051        1      -0.00540186      -0.00070081       0.00151061
In      11.16195707       9.19339204       2.96000051        1      -0.00129943      -0.00469228       0.00218313
In      17.04069836       9.19862326       2.96361259        1      -0.00388922      -0.00130534      -0.00285363
In      11.16195707       6.02525999       7.54826486        1       0.03047761      -0.00446061       0.01188885
In      17.04069836       6.03049120       7.55187694        1      -0.01344909      -0.00194050       0.00506494
In      14.39212416      10.93704653       7.55187694        1      -0.00354941      -0.00342543      -0.00113026
In      20.27086545      10.94227774       7.55548902        1      -0.00103840       0.00216875      -0.00131652
In       4.40728550       2.37906675       1.64271216        2       0.10620340      -0.00435254      -0.07693050
In      10.28602679       2.38429796       1.64632424        2      -0.00266448       0.00260004      -0.00153209
In       7.63745259       7.29085329       1.64632424        2       0.00202655      -0.00157857       0.00037115
In      13.51619388       7.29608451       1.64993632        2       0.00294309       0.00385129       0.00176823
In       7.63745259       4.12272124       6.23458859        2       0.00162204       0.00179195       0.00060215
In      13.51619388       4.12795245       6.23820067        2       0.00502674      -0.00024452      -0.00014994
In      10.86761968       9.03450778       6.23820067        2       0.00209179       0.00313593      -0.00007699
In      16.74636097       9.03973899       6.24181275        2       0.00230490       0.00172640       0.00092071
In       1.76225225       0.95126938       0.65683814        3      -0.00537509      -0.00295565       0.00024979
In       7.64099354       0.95650059       0.66045022        3       0.12997012      -0.10653170       0.03002361
In       4.99241934       5.86305592       0.66045022        3      -0.00072581      -0.00349207      -0.00225147
In      10.87116063       5.86828714       0.66406230        3      -0.00445877      -0.00197268      -0.00065963
In       4.99241934       2.69492387       5.24871457        3      -0.00290768      -0.00014610       0.00078527
In      10.87116063       2.70015508       5.25232665        3      -0.00373263      -0.00349068      -0.00385743
In       8.22258643       7.60671041       5.25232665        3      -0.00340710      -0.00160758      -0.00101241
In      14.10132772       7.61194162       5.25593873        3      -0.00342718      -0.00190695       0.00034563
O        6.06647367       2.31292001       0.21733958        4      -0.45009582       0.09978183       0.04353474
O       11.90288081       2.31811355       0.22092565        4       0.01067104       0.00040659      -0.00099892
O        9.25430661       7.22466888       0.22092565        4       0.00339113       0.00706793      -0.00118477
O       15.13304790       7.22990010       0.22453773        4       0.00086835      -0.00277965      -0.00075358
O        9.25430661       4.05653683       4.80919000        4       0.00342262       0.00233163       0.00550195
O       15.13304790       4.06176804       4.81280208        4       0.00091178      -0.00073688      -0.00388239
O       12.48447370       8.96832337       4.81280208        4       0.00027542       0.00015429      -0.00099242
O       18.36321499       8.97355458       4.81641416        4       0.00063440      -0.00042446      -0.00135522
O        7.09991736       5.12275534       1.15338723        5      -0.00020810       0.01591801       0.00446828
O       12.97865865       5.12798655       1.15699931        5       0.00202878      -0.00025641       0.00118695
O       10.33008445      10.03454188       1.15699931        5       0.01441144       0.01716220      -0.00658223
O       16.20882574      10.03977310       1.16061139        5      -0.00815574       0.00557458      -0.00028950
O       10.33008445       6.86640983       5.74526366        5      -0.00214708       0.00265486      -0.00299721
O       16.20882574       6.87164104       5.74887574        5       0.00150124       0.00109819      -0.00118337
O       13.56025154      11.77819637       5.74887574        5       0.00092799       0.00106757       0.00158971
O       19.43899283      11.78342758       5.75248782        5      -0.00029524       0.00035742       0.00025804
O        8.17852876       2.18563119       2.51325178        6       0.01661050      -0.00078888       0.01842672
O       14.05727005       2.19086240       2.51686386        6      -0.00672461       0.00113134       0.00342355
O       11.40869585       7.09741773       2.51686386        6       0.00170353       0.00128276      -0.00097058
O       17.28743714       7.10264895       2.52047594        6       0.00055786      -0.00011809      -0.00117275
O       11.40869585       3.92928568       7.10512821        6       0.00071132       0.00953413       0.01175898
O       17.28743714       3.93451689       7.10874029        6       0.00283649       0.00067537      -0.00207615
O       14.63886294       8.84107222       7.10874029        6      -0.00156461      -0.00283439       0.00274658
O       20.51760423       8.84630343       7.11235237        6       0.00226831      -0.00134291       0.00013175
O        4.16054672       4.47504107       2.08584881        7       0.00465745      -0.01266353      -0.00944119
O       10.03928801       4.48027228       2.08946089        7       0.00360989       0.00194834       0.00200857
O        7.39071381       9.38682761       2.08946089        7       0.00148555      -0.00080560      -0.00002816
O       13.26945510       9.39205883       2.09307297        7      -0.00449152      -0.00679429       0.00548454
O        7.39071381       6.21869556       6.67772524        7       0.00299347      -0.00010164       0.00336041
O       13.26945510       6.22392677       6.68133732        7      -0.00518908       0.00382127      -0.02446611
O       10.62088090      11.13048210       6.68133732        7      -0.00134996      -0.00238389      -0.00070397
O       16.49962219      11.13571331       6.68494940        7      -0.00087606       0.00241737       0.00050463
O        6.31493596       4.34778992       4.38178702        8      -0.00096546       0.00145536       0.00200462
O       12.19367725       4.35302113       4.38539910        8      -0.00090558      -0.00052680      -0.00063371
O        9.54510305       9.25957646       4.38539910        8       0.00171860       0.00177213      -0.00213378
O       15.42384434       9.26480768       4.38901118        8       0.00160475      -0.00219503       0.00376963
O        9.54510305       6.09144441       8.97366345        8       0.05917746      -0.00823102       0.01043936
O       15.42384434       6.09667562       8.97727553        8       0.06686220       0.00664576      -0.00967151
O       12.77527014      11.00323095       8.97727553        8      -0.00081918      -0.00190611       0.00119846
O       18.65401143      11.00846216       8.98088761        8      -0.00090681       0.00161004       0.00214389
O        5.23915812       1.53791692       3.44571336        9      -0.00344182       0.00134876      -0.00857195
O       11.11789941       1.54314813       3.44932544        9       0.00205923      -0.00180769      -0.00079489
O        8.46932521       6.44970346       3.44932544        9      -0.00003822      -0.00021748       0.00203798
O       14.34806650       6.45493468       3.45293752        9      -0.00063665      -0.00295610      -0.00190615
O        8.46932521       3.28157141       8.03758979        9       0.00462242       0.00129607       0.00118891
O       14.34806650       3.28680262       8.04120187        9       0.00565165      -0.01584545      -0.00868713
O       11.69949230       8.19335795       8.04120187        9      -0.00304600      -0.02381717       0.01212656
O       17.57823359       8.19858916       8.04481395        9       0.00392375       0.00158988      -0.00145185
