10
Lattice="5.6974865818315035 -0.026517271971146048 -0.018309803676110434 3.1041667821750494 4.777677794107075 -0.018309803676115708 3.104166782175047 1.6756391168400098 4.474234448856042" Properties=species:S:1:pos:R:3:spacegroup_kinds:I:1:forces:R:3 spacegroup="P 1" unit_cell=conventional occupancy="_JSON {\"0\": {\"In\": 1}, \"1\": {\"In\": 1}, \"2\": {\"In\": 1}, \"3\": {\"In\": 1}, \"4\": {\"O\": 1}, \"5\": {\"O\": 1}, \"6\": {\"O\": 1}, \"7\": {\"O\": 1}, \"8\": {\"O\": 1}, \"9\": {\"O\": 1}}" n_minim_iter=1 energy=-11287.274024664757 stress="-0.0905012809268382 0.0014102612016042228 0.0009737655426485522 0.0014102612016042228 -0.09235256445418581 0.0005256417415849723 0.0009737655426485522 0.0005256417415849723 -0.09275087970553343" free_energy=-11287.274024664757 pbc="T T T"
In      10.21677748       5.51504903       3.80806386        0       0.02582089       0.01393820       0.00962413
In       7.64195275       4.12515044       2.84835841        1      -0.02582089      -0.01393820      -0.00962413
In       4.26386741       2.30164921       1.58925644        2       0.02582089       0.01393820       0.00962413
In       1.68904268       0.91175062       0.62955099        3      -0.02582089      -0.01393820      -0.00962413
O        5.82519833       2.23286660       0.17419764        4      -0.00000000       0.05028555      -0.07282632
O        6.84271897       4.97257214       1.09109391        5      -0.04203897       0.07787833      -0.00000000
O        7.91184448       2.08039419       2.41131486        6       0.04203897      -0.02759278      -0.07282632
O        3.99397567       4.34640546       2.02629998        7      -0.04203897       0.02759278       0.07282632
O        6.08062182       4.19393305       4.26341721        8      -0.00000000      -0.05028555       0.07282632
O        5.06310119       1.45422751       3.34652094        9       0.04203897      -0.07787833       0.00000000
10
Lattice="5.69000829227649 -0.03429931544797865 -0.02368319534380575 3.093557454182177 4.775696084016372 -0.023683195343811015 3.093557454182175 1.669912167795156 4.474285119712501" Properties=species:S:1:pos:R:3:spacegroup_kinds:I:1:forces:R:3 spacegroup="P 1" unit_cell=conventional occupancy="_JSON {\"0\": {\"In\": 1}, \"1\": {\"In\": 1}, \"2\": {\"In\": 1}, \"3\": {\"In\": 1}, \"4\": {\"O\": 1}, \"5\": {\"O\": 1}, \"6\": {\"O\": 1}, \"7\": {\"O\": 1}, \"8\": {\"O\": 1}, \"9\": {\"O\": 1}}" n_minim_iter=2 energy=-11287.27478168404 stress="-0.09185640965110535 -0.0004243340410349512 -0.000292996692573942 -0.0004243340410349512 -0.09129937623105147 -0.0001581605484547956 -0.000292996692573942 -0.0001581605484547956 -0.09117952699821334" free_energy=-11287.27478168404 pbc="T T T"
In      10.19235536       5.50186589       3.79896108        0       0.05040433       0.02720842       0.01878703
In       7.62332945       4.11509752       2.84141701        1      -0.05040433      -0.02720842      -0.01878703
In       4.25379376       2.29621142       1.58550172        2       0.05040433       0.02720842       0.01878703
In       1.68476785       0.90944306       0.62795765        3      -0.05040433      -0.02720842      -0.01878703
O        5.81428495       2.22627300       0.16714231        4      -0.00000000       0.03769163      -0.05458711
O        6.82552271       4.96562975       1.08304649        5      -0.03151039       0.05837385      -0.00000000
O        7.89660464       2.06912496       2.40428487        6       0.03151039      -0.02068222      -0.05458711
O        3.98051857       4.34218398       2.02263386        7      -0.03151039       0.02068222       0.05458711
O        6.06283826       4.18503594       4.25977642        8       0.00000000      -0.03769163       0.05458711
O        5.05160050       1.44567920       3.34387224        9       0.03151039      -0.05837385       0.00000000
10
Lattice="5.691378634095528 -0.03287201400801274 -0.022697663755909255 3.0955026217942674 4.776058505128348 -0.02269766375591452 3.0955026217942647 1.6709621754681803 4.474274850353236" Properties=species:S:1:pos:R:3:spacegroup_kinds:I:1:forces:R:3 spacegroup="P 1" unit_cell=conventional occupancy="_JSON {\"0\": {\"In\": 1}, \"1\": {\"In\": 1}, \"2\": {\"In\": 1}, \"3\": {\"In\": 1}, \"4\": {\"O\": 1}, \"5\": {\"O\": 1}, \"6\": {\"O\": 1}, \"7\": {\"O\": 1}, \"8\": {\"O\": 1}, \"9\": {\"O\": 1}}" n_minim_iter=3 energy=-11287.277333199521 stress="-0.09020447618356485 -0.00013768724289974036 -9.507110634024211e-05 -0.00013768724289974036 -0.09002373085519164 -5.1319686350217276e-05 -9.507110634024211e-05 -5.1319686350217276e-05 -0.08998484236613327" free_energy=-11287.277333199521 pbc="T T T"
In      10.20098509       5.50652425       3.80217762        0       0.04005567       0.02162218       0.01492981
In       7.62259073       4.11469876       2.84114167        1      -0.04005567      -0.02162218      -0.01492981
In       4.25979315       2.29944992       1.58773785        2       0.04005567       0.02162218       0.01492981
In       1.68139879       0.90762443       0.62670191        3      -0.04005567      -0.02162218      -0.01492981
O        5.81628529       2.23127473       0.16294320        4       0.00000000       0.00431981      -0.00625619
O        6.82550429       4.97277610       1.08452222        5      -0.00361138       0.00669018       0.00000000
O        7.90256892       2.06911014       2.40008063        6       0.00361138      -0.00237037      -0.00625619
O        3.97981497       4.34503853       2.02879890        7      -0.00361138       0.00237037       0.00625619
O        6.06609860       4.18287394       4.26593632        8       0.00000000      -0.00431981       0.00625619
O        5.05687960       1.44137258       3.34435731        9       0.00361138      -0.00669018      -0.00000000
10
Lattice="5.6917672094943015 -0.032467393399742604 -0.022418278911616206 3.0960541064501075 4.7761613319319665 -0.022418278911621466 3.096054106450105 1.6712598686420674 4.474272018925315" Properties=species:S:1:pos:R:3:spacegroup_kinds:I:1:forces:R:3 spacegroup="P 1" unit_cell=conventional occupancy="_JSON {\"0\": {\"In\": 1}, \"1\": {\"In\": 1}, \"2\": {\"In\": 1}, \"3\": {\"In\": 1}, \"4\": {\"O\": 1}, \"5\": {\"O\": 1}, \"6\": {\"O\": 1}, \"7\": {\"O\": 1}, \"8\": {\"O\": 1}, \"9\": {\"O\": 1}}" n_minim_iter=4 energy=-11287.27776421537 stress="-0.08934521352264344 1.0563297284914422e-05 7.293809606840043e-06 1.0563297284914422e-05 -0.08935908021548176 3.937220474033764e-06 7.293809606840043e-06 3.937220474033764e-06 -0.08936206372043526" free_energy=-11287.27776421537 pbc="T T T"
In      10.20489547       5.50863509       3.80363512        0       0.02540073       0.01371139       0.00946752
In       7.62091767       4.11379564       2.84051808        1      -0.02540073      -0.01371139      -0.00946752
In       4.26295776       2.30115818       1.58891739        2       0.02540073       0.01371139       0.00946752
In       1.67897996       0.90631873       0.62580035        3      -0.02540073      -0.01371139      -0.00946752
O        5.81685246       2.23340209       0.16072543        4       0.00000000      -0.00815109       0.01180486
O        6.82490613       4.97590074       1.08494059        5       0.00681435      -0.01262377      -0.00000000
O        7.90485291       2.06871672       2.39786144        6      -0.00681435       0.00447268       0.01180486
O        3.97902252       4.34623710       2.03157403        7       0.00681435      -0.00447268      -0.01180486
O        6.06702297       4.18155172       4.26871004        8      -0.00000000       0.00815109      -0.01180486
O        5.05896930       1.43905308       3.34449488        9      -0.00681435       0.01262377      -0.00000000
10
Lattice="5.691257059086811 -0.032998618782732116 -0.022785082573806216 3.095330068708214 4.77602633862061 -0.022785082573811455 3.095330068708212 1.6708690307626877 4.474275743539267" Properties=species:S:1:pos:R:3:spacegroup_kinds:I:1:forces:R:3 spacegroup="P 1" unit_cell=conventional occupancy="_JSON {\"0\": {\"In\": 1}, \"1\": {\"In\": 1}, \"2\": {\"In\": 1}, \"3\": {\"In\": 1}, \"4\": {\"O\": 1}, \"5\": {\"O\": 1}, \"6\": {\"O\": 1}, \"7\": {\"O\": 1}, \"8\": {\"O\": 1}, \"9\": {\"O\": 1}}" n_minim_iter=5 energy=-11287.277865728818 stress="-0.08899456778766332 7.257591137715125e-05 5.01126479944636e-05 7.257591137715125e-05 -0.08908983991992885 2.7050966320241117e-05 5.01126479944636e-05 2.7050966320241117e-05 -0.08911033831615271" free_energy=-11287.277865728818 pbc="T T T"
In      10.20504523       5.50871592       3.80369094        0       0.00348521       0.00188133       0.00129903
In       7.61783058       4.11212921       2.83936744        1      -0.00348521      -0.00188133      -0.00129903
In       4.26408663       2.30176755       1.58933815        2       0.00348521       0.00188133       0.00129903
In       1.67687198       0.90518084       0.62501465        3      -0.00348521      -0.00188133      -0.00129903
O        5.81610783       2.23334266       0.15967824        4      -0.00000000      -0.00521221       0.00754862
O        6.82340619       4.97603195       1.08439131        5       0.00435744      -0.00807227      -0.00000000
O        7.90413955       2.06773328       2.39681611        6      -0.00435744       0.00286006       0.00754862
O        3.97777766       4.34616348       2.03188947        7       0.00435744      -0.00286006      -0.00754862
O        6.06580937       4.18055410       4.26902734        8      -0.00000000       0.00521221      -0.00754862
O        5.05851102       1.43786482       3.34431427        9      -0.00435744       0.00807227      -0.00000000
