10
Lattice="6.116699714222359 0.10140447267789338 0.0700183634512593 3.4411414022653513 5.057948606961346 0.07001836345125169 3.441141402265357 1.8575390901429993 4.705028715159269" Properties=species:S:1:pos:R:3:spacegroup_kinds:I:1:forces:R:3 spacegroup="P 1" unit_cell=conventional occupancy="_JSON {\"0\": {\"In\": 1}, \"1\": {\"In\": 1}, \"2\": {\"In\": 1}, \"3\": {\"In\": 1}, \"4\": {\"O\": 1}, \"5\": {\"O\": 1}, \"6\": {\"O\": 1}, \"7\": {\"O\": 1}, \"8\": {\"O\": 1}, \"9\": {\"O\": 1}}" n_minim_iter=1 energy=-11287.39796360064 stress="0.05657808801469607 0.0003157255893981746 0.00021800408375353467 0.0003157255893981746 0.05616362750030753 0.00011767929876182668 0.00021800408375353467 0.00011767929876182668 0.05607445372302967" free_energy=-11287.39796360064 pbc="T T T"
In      11.06456903       5.97268961       4.12405825        0      -0.03202388      -0.01728659      -0.01193615
In       8.43390475       4.55264865       3.14353992        1       0.03202388       0.01728659       0.01193615
In       4.56507778       2.46424353       1.70152553        2      -0.03202388      -0.01728659      -0.01193615
In       1.93441349       1.04420257       0.72100720        3       0.03202388       0.01728659       0.01193615
O        6.30809549       2.44281621       0.32244657        4       0.00000000       0.00643598      -0.00932095
O        7.49538620       5.32181520       1.28128473        5      -0.00538051       0.00996755       0.00000000
O        8.56194619       2.38367014       2.67496093        6       0.00538051      -0.00353157      -0.00932095
O        4.43703634       4.63322204       2.17010452        7      -0.00538051       0.00353157       0.00932095
O        6.69088704       4.57407597       4.52261888        8       0.00000000      -0.00643598       0.00932095
O        5.50359633       1.69507698       3.56378072        9       0.00538051      -0.00996755       0.00000000
10
Lattice="6.112799170762056 0.09748316596896522 0.06731075627083678 3.4357228568994405 5.05683943983743 0.0673107562708292 3.435722856899446 1.8546141420945803 4.704950822500469" Properties=species:S:1:pos:R:3:spacegroup_kinds:I:1:forces:R:3 spacegroup="P 1" unit_cell=conventional occupancy="_JSON {\"0\": {\"In\": 1}, \"1\": {\"In\": 1}, \"2\": {\"In\": 1}, \"3\": {\"In\": 1}, \"4\": {\"O\": 1}, \"5\": {\"O\": 1}, \"6\": {\"O\": 1}, \"7\": {\"O\": 1}, \"8\": {\"O\": 1}, \"9\": {\"O\": 1}}" n_minim_iter=2 energy=-11287.398054992165 stress="0.055933640360403 -0.0002748753269504689 -0.00018979755092663665 -0.0002748753269504689 0.05629447576245423 -0.00010245332235410665 -0.00018979755092663665 -0.00010245332235410665 0.056372111758854" free_energy=-11287.398054992165 pbc="T T T"
In      11.05156758       5.96567139       4.11921226        0      -0.02349728      -0.01268391      -0.00875806
In       8.42479975       4.54773375       3.14014625        1       0.02349728       0.01268391       0.00875806
In       4.55944514       2.46120301       1.69942609        2      -0.02349728      -0.01268391      -0.00875806
In       1.93267731       1.04326537       0.72036008        3       0.02349728       0.01268391       0.00875806
O        6.30246081       2.43932061       0.31906211        4      -0.00000000       0.00539410      -0.00781203
O        7.48666278       5.31801409       1.27720384        5      -0.00450949       0.00835395       0.00000000
O        8.55398170       2.37800909       2.67153752        6       0.00450949      -0.00295986      -0.00781203
O        4.43026319       4.63092767       2.16803482        7      -0.00450949       0.00295986       0.00781203
O        6.68178408       4.56961615       4.52051023        8       0.00000000      -0.00539410       0.00781203
O        5.49758212       1.69092267       3.56236850        9       0.00450949      -0.00835395       0.00000000
10
Lattice="6.118386688566351 0.10309922318002795 0.07118856485839649 3.443483901810342 5.058428979299717 0.07118856485838894 3.443483901810347 1.85880357885904 4.7050633157914685" Properties=species:S:1:pos:R:3:spacegroup_kinds:I:1:forces:R:3 spacegroup="P 1" unit_cell=conventional occupancy="_JSON {\"0\": {\"In\": 1}, \"1\": {\"In\": 1}, \"2\": {\"In\": 1}, \"3\": {\"In\": 1}, \"4\": {\"O\": 1}, \"5\": {\"O\": 1}, \"6\": {\"O\": 1}, \"7\": {\"O\": 1}, \"8\": {\"O\": 1}, \"9\": {\"O\": 1}}" n_minim_iter=3 energy=-11287.398338053175 stress="0.056518618275161046 0.0003461110896586548 0.00023898484423706044 0.0003461110896586548 0.05606426999102175 0.000129004780699918 0.00023898484423706044 0.000129004780699918 0.055966514108106255" free_energy=-11287.398338053175 pbc="T T T"
In      11.06714340       5.97407926       4.12501778        0      -0.01915662      -0.01034080      -0.00714018
In       8.44088835       4.55641842       3.14614289        1       0.01915662       0.01034080       0.00714018
In       4.56446616       2.46391337       1.70129756        2      -0.01915662      -0.01034080      -0.00714018
In       1.93821110       1.04625253       0.72242267        3       0.01915662       0.01034080       0.00714018
O        6.31053197       2.44497976       0.32296462        4       0.00000000      -0.00348690       0.00504993
O        7.49861248       5.32446931       1.28304868        5       0.00291507      -0.00540025       0.00000000
O        8.56593537       2.38575930       2.67549628        6      -0.00291507       0.00191334       0.00504993
O        4.43941914       4.63457250       2.17194418        7       0.00291507      -0.00191334      -0.00504993
O        6.69482253       4.57535203       4.52447583        8       0.00000000       0.00348690      -0.00504993
O        5.50674202       1.69586248       3.56439177        9      -0.00291507       0.00540025      -0.00000000
10
Lattice="6.117651957604499 0.10236119465856273 0.07067896653508095 3.4424637433573233 5.058219712925117 0.07067896653507338 3.442463743357328 1.8582528940765504 4.705048178519626" Properties=species:S:1:pos:R:3:spacegroup_kinds:I:1:forces:R:3 spacegroup="P 1" unit_cell=conventional occupancy="_JSON {\"0\": {\"In\": 1}, \"1\": {\"In\": 1}, \"2\": {\"In\": 1}, \"3\": {\"In\": 1}, \"4\": {\"O\": 1}, \"5\": {\"O\": 1}, \"6\": {\"O\": 1}, \"7\": {\"O\": 1}, \"8\": {\"O\": 1}, \"9\": {\"O\": 1}}" n_minim_iter=4 energy=-11287.398457205765 stress="0.05624238648967678 0.0001326039208295534 9.156114531662936e-05 0.0001326039208295534 0.05606831415890279 4.942499633894043e-05 9.156114531662936e-05 4.942499633894043e-05 0.05603086140769135" free_energy=-11287.398457205765 pbc="T T T"
In      11.06338499       5.97205046       4.12361692        0      -0.01050653      -0.00567146      -0.00391606
In       8.44048419       4.55620025       3.14599225        1       0.01050653       0.00567146       0.00391606
In       4.56209527       2.46263356       1.70041387        2      -0.01050653      -0.00567146      -0.00391606
In       1.93919446       1.04678335       0.72278919        3       0.01050653       0.00567146       0.00391606
O        6.30947084       2.44449741       0.32207302        4      -0.00000000      -0.00701898       0.01016527
O        7.49682295       5.32402562       1.28228050        5       0.00586790      -0.01087044       0.00000000
O        8.56458248       2.38459715       2.67459711        6      -0.00586790       0.00385147       0.01016527
O        4.43799697       4.63423667       2.17180901        7       0.00586790      -0.00385147      -0.01016527
O        6.69310861       4.57433641       4.52433310        8      -0.00000000       0.00701898      -0.01016527
O        5.50575651       1.69480820       3.56412562        9      -0.00586790       0.01087044      -0.00000000
10
Lattice="6.117121108466883 0.1018278773612857 0.07031071843547092 3.4417265989192556 5.0580685632512505 0.07031071843546335 3.441726598919261 1.8578549811608274 4.705037306616536" Properties=species:S:1:pos:R:3:spacegroup_kinds:I:1:forces:R:3 spacegroup="P 1" unit_cell=conventional occupancy="_JSON {\"0\": {\"In\": 1}, \"1\": {\"In\": 1}, \"2\": {\"In\": 1}, \"3\": {\"In\": 1}, \"4\": {\"O\": 1}, \"5\": {\"O\": 1}, \"6\": {\"O\": 1}, \"7\": {\"O\": 1}, \"8\": {\"O\": 1}, \"9\": {\"O\": 1}}" n_minim_iter=5 energy=-11287.39850598004 stress="0.05602924470262001 -3.554632597825352e-05 -2.4544238442077468e-05 -3.554632597825352e-05 0.05607590721295622 -1.3249058127079623e-05 -2.4544238442077468e-05 -1.3249058127079623e-05 0.05608594694388976" free_energy=-11287.39850598004 pbc="T T T"
In      11.06053749       5.97051337       4.12255559        0      -0.00388258      -0.00209583      -0.00144714
In       8.44032398       4.55611377       3.14593253        1       0.00388258       0.00209583       0.00144714
In       4.56025034       2.46163766       1.69972621        2      -0.00388258      -0.00209583      -0.00144714
In       1.94003682       1.04723806       0.72310316        3       0.00388258       0.00209583       0.00144714
O        6.30870414       2.44401732       0.32161926        4       0.00000000      -0.00826163       0.01196495
O        7.49563987       5.32350133       1.28172541        5       0.00690676      -0.01279496      -0.00000000
O        8.56349500       2.38382957       2.67413791        6      -0.00690676       0.00453334       0.01196495
O        4.43707932       4.63392187       2.17152084        7       0.00690676      -0.00453334      -0.01196495
O        6.69187018       4.57373411       4.52403949        8       0.00000000       0.00826163      -0.01196495
O        5.50493444       1.69425010       3.56393334        9      -0.00690676       0.01279496       0.00000000
10
Lattice="6.117150733760273 0.10185764228994901 0.07033127070045701 3.441767738593683 5.05807699747762 0.07033127070044945 3.4417677385936893 1.857877188488127 4.705037911913787" Properties=species:S:1:pos:R:3:spacegroup_kinds:I:1:forces:R:3 spacegroup="P 1" unit_cell=conventional occupancy="_JSON {\"0\": {\"In\": 1}, \"1\": {\"In\": 1}, \"2\": {\"In\": 1}, \"3\": {\"In\": 1}, \"4\": {\"O\": 1}, \"5\": {\"O\": 1}, \"6\": {\"O\": 1}, \"7\": {\"O\": 1}, \"8\": {\"O\": 1}, \"9\": {\"O\": 1}}" n_minim_iter=6 energy=-11287.398555635147 stress="0.05584921413156836 -0.00018125836237848467 -0.0001251563521236749 -0.00018125836237848467 0.056087156310517174 -6.755979711567624e-05 -0.0001251563521236749 -6.755979711567624e-05 0.05613835106124845" free_energy=-11287.398555635147 pbc="T T T"
In      11.05881707       5.96958468       4.12191434        0       0.00425741       0.00229817       0.00158685
In       8.44221226       4.55713307       3.14663635        1      -0.00425741      -0.00229817      -0.00158685
In       4.55847396       2.46067877       1.69906411        2       0.00425741       0.00229817       0.00158685
In       1.94186916       1.04822716       0.72378612        3      -0.00425741      -0.00229817      -0.00158685
O        6.30874692       2.44365756       0.32220441        4      -0.00000000      -0.00590222       0.00854792
O        7.49602906       5.32293193       1.28175639        5       0.00493429      -0.00914090       0.00000000
O        8.56323253       2.38408451       2.67472336        6      -0.00493429       0.00323868       0.00854792
O        4.43745369       4.63372733       2.17097709        7       0.00493429      -0.00323868      -0.00854792
O        6.69193930       4.57415428       4.52349605        8      -0.00000000       0.00590222      -0.00854792
O        5.50465716       1.69487991       3.56394407        9      -0.00493429       0.00914090      -0.00000000
10
Lattice="6.11832002811457 0.10303226922303976 0.07114233409193135 3.443391349922348 5.058409989928541 0.07114233409192379 3.4433913499223525 1.8587536190550915 4.705061938121383" Properties=species:S:1:pos:R:3:spacegroup_kinds:I:1:forces:R:3 spacegroup="P 1" unit_cell=conventional occupancy="_JSON {\"0\": {\"In\": 1}, \"1\": {\"In\": 1}, \"2\": {\"In\": 1}, \"3\": {\"In\": 1}, \"4\": {\"O\": 1}, \"5\": {\"O\": 1}, \"6\": {\"O\": 1}, \"7\": {\"O\": 1}, \"8\": {\"O\": 1}, \"9\": {\"O\": 1}}" n_minim_iter=7 energy=-11287.398598186728 stress="0.05609012369942756 -3.270787523294435e-06 -2.25843364060166e-06 -3.270787523294435e-06 0.05609441734006129 -1.2191090053266763e-06 -2.25843364060166e-06 -1.2191090053266763e-06 0.05609534114480536" free_energy=-11287.398598186728 pbc="T T T"
In      11.06273065       5.97169725       4.12337303        0      -0.00016767      -0.00009051      -0.00006249
In       8.44492345       4.55859658       3.14764688        1       0.00016767       0.00009051       0.00006249
In       4.56017929       2.46159931       1.69969973        2      -0.00016767      -0.00009051      -0.00006249
In       1.94237208       1.04849864       0.72397358        3       0.00016767       0.00009051       0.00006249
O        6.31043570       2.44420270       0.32394573        4       0.00000000       0.00003053      -0.00004421
O        7.49906317       5.32329338       1.28297899        5      -0.00002552       0.00004728      -0.00000000
O        8.56519958       2.38605624       2.67647670        6       0.00002552      -0.00001675      -0.00004421
O        4.43990315       4.63413965       2.17086991        7      -0.00002552       0.00001675       0.00004421
O        6.69466704       4.57599319       4.52340088        8       0.00000000      -0.00003053       0.00004421
O        5.50603957       1.69690251       3.56436762        9       0.00002552      -0.00004728       0.00000000
