10
Lattice="5.355020839461417 -0.10236274182350381 -0.07068003483072564 2.852841156959635 4.5329927923102735 -0.07068003483075012 2.8528411569596237 1.5399727437915522 4.263977400366911" Properties=species:S:1:pos:R:3:spacegroup_kinds:I:1:forces:R:3 spacegroup="P 1" unit_cell=conventional occupancy="_JSON {\"0\": {\"In\": 1}, \"1\": {\"In\": 1}, \"2\": {\"In\": 1}, \"3\": {\"In\": 1}, \"4\": {\"O\": 1}, \"5\": {\"O\": 1}, \"6\": {\"O\": 1}, \"7\": {\"O\": 1}, \"8\": {\"O\": 1}, \"9\": {\"O\": 1}}" n_minim_iter=1 energy=-11284.264685618005 stress="-0.3146363476913932 0.0003240178628733381 0.0002237297819504432 0.0003240178628733381 -0.3150616936737921 0.00012077004857649136 0.0002237297819504432 0.00012077004857649136 -0.3151532095276668" free_energy=-11284.264685618005 pbc="T T T"
In       9.60150612       5.18292359       3.57873591        0       0.14727849       0.07950140       0.05489460
In       6.98954862       3.77298061       2.60519009        1      -0.14727849      -0.07950140      -0.05489460
In       4.07115454       2.19762219       1.51742724        2       0.14727849       0.07950140       0.05489460
In       1.45919704       0.78767922       0.54388143        3      -0.14727849      -0.07950140      -0.05489460
O        5.44268621       2.09627295       0.04699145        4      -0.00000000      -0.04037910       0.05847924
O        6.32168770       4.72207440       0.95997430        5       0.03375713      -0.06253599      -0.00000000
O        7.41652588       1.85215066       2.17898015        6      -0.03375713       0.02215689       0.05847924
O        3.64417728       4.11845215       1.94363719        7       0.03375713      -0.02215689      -0.05847924
O        5.61801695       3.87432985       4.07562589        8      -0.00000000       0.04037910      -0.05847924
O        4.73901546       1.24852841       3.16264303        9      -0.03375713       0.06253599       0.00000000
10
Lattice="5.346351432392334 -0.11160365864963392 -0.07706075804606329 2.840358611372506 4.5308158177164515 -0.07706075804608778 2.8403586113724937 1.533234625922487 4.264202377511253" Properties=species:S:1:pos:R:3:spacegroup_kinds:I:1:forces:R:3 spacegroup="P 1" unit_cell=conventional occupancy="_JSON {\"0\": {\"In\": 1}, \"1\": {\"In\": 1}, \"2\": {\"In\": 1}, \"3\": {\"In\": 1}, \"4\": {\"O\": 1}, \"5\": {\"O\": 1}, \"6\": {\"O\": 1}, \"7\": {\"O\": 1}, \"8\": {\"O\": 1}, \"9\": {\"O\": 1}}" n_minim_iter=2 energy=-11284.268652148583 stress="-0.3114805197389896 0.0011648070626317714 0.0008042829090118668 0.0011648070626317714 -0.3130095897630046 0.00043415447640598017 0.0008042829090118668 0.00043415447640598017 -0.3133385787615372" free_energy=-11284.268652148583 pbc="T T T"
In       9.57968244       5.17114310       3.57060164        0       0.00839518       0.00453174       0.00312910
In       6.96092055       3.75752709       2.59451965        1      -0.00839518      -0.00453174      -0.00312910
In       4.06614811       2.19491971       1.51556121        2       0.00839518       0.00453174       0.00312910
In       1.44738622       0.78130370       0.53947922        3      -0.00839518      -0.00453174      -0.00312910
O        5.42994288       2.08608051       0.04216298        4       0.00000000       0.03571470      -0.05172400
O        6.30356668       4.71022665       0.95045946        5      -0.02985767       0.05531213       0.00000000
O        7.39667770       1.84018895       2.17426417        6       0.02985767      -0.01959743      -0.05172400
O        3.63039096       4.11225784       1.93581670        7      -0.02985767       0.01959743       0.05172400
O        5.59712578       3.86636628       4.06791788        8       0.00000000      -0.03571470       0.05172400
O        4.72350199       1.24222014       3.15962141        9       0.02985767      -0.05531213       0.00000000
10
Lattice="5.340918853603515 -0.11740816084949231 -0.08106868525036268 2.8325250439340257 4.529459211925647 -0.08106868525038718 2.8325250439340124 1.5290060412666306 4.264353809195074" Properties=species:S:1:pos:R:3:spacegroup_kinds:I:1:forces:R:3 spacegroup="P 1" unit_cell=conventional occupancy="_JSON {\"0\": {\"In\": 1}, \"1\": {\"In\": 1}, \"2\": {\"In\": 1}, \"3\": {\"In\": 1}, \"4\": {\"O\": 1}, \"5\": {\"O\": 1}, \"6\": {\"O\": 1}, \"7\": {\"O\": 1}, \"8\": {\"O\": 1}, \"9\": {\"O\": 1}}" n_minim_iter=3 energy=-11284.269009832351 stress="-0.3124825733769363 -0.0002080356198614933 -0.00014364567256946832 -0.0002080356198614933 -0.31220948005409693 -7.754039073173971e-05 -0.00014364567256946832 -7.754039073173971e-05 -0.312150722314609" free_energy=-11284.269009832351 pbc="T T T"
In       9.56207491       5.16163850       3.56403885        0       0.02068371       0.01116513       0.00770937
In       6.94687851       3.74994715       2.58928581        1      -0.02068371      -0.01116513      -0.00770937
In       4.05909044       2.19110995       1.51293063        2       0.02068371       0.01116513       0.00770937
In       1.44389404       0.77941860       0.53817759        3      -0.02068371      -0.01116513      -0.00770937
O        5.42195167       2.08104502       0.03715859        4      -0.00000000       0.01614224      -0.02337808
O        6.29106161       4.70490474       0.94448543        5      -0.01349499       0.02499983       0.00000000
O        7.38536676       1.83193310       2.16933550        6       0.01349499      -0.00885760      -0.02337808
O        3.62060219       4.10912400       1.93288094        7      -0.01349499       0.00885760       0.02337808
O        5.58401728       3.86001208       4.06505785        8      -0.00000000      -0.01614224       0.02337808
O        4.71490734       1.23615236       3.15773102        9       0.01349499      -0.02499983       0.00000000
10
Lattice="5.345279751252256 -0.11274786372204591 -0.07785081557022609 2.838813995374125 4.530547737259729 -0.07785081557025061 2.8388139953741116 1.5324008372864342 4.264231609910291" Properties=species:S:1:pos:R:3:spacegroup_kinds:I:1:forces:R:3 spacegroup="P 1" unit_cell=conventional occupancy="_JSON {\"0\": {\"In\": 1}, \"1\": {\"In\": 1}, \"2\": {\"In\": 1}, \"3\": {\"In\": 1}, \"4\": {\"O\": 1}, \"5\": {\"O\": 1}, \"6\": {\"O\": 1}, \"7\": {\"O\": 1}, \"8\": {\"O\": 1}, \"9\": {\"O\": 1}}" n_minim_iter=4 energy=-11284.269775220891 stress="-0.31202727223124593 4.529844386573845e-05 3.1277939122947904e-05 4.529844386573845e-05 -0.31208673657857555 1.688393189515345e-05 3.1277939122947904e-05 1.688393189515345e-05 -0.3120995307063488" free_energy=-11284.269775220891 pbc="T T T"
In       9.58228138       5.17254601       3.57157034        0      -0.01225096      -0.00661311      -0.00456626
In       6.95208024       3.75275506       2.59122464        1       0.01225096       0.00661311       0.00456626
In       4.07082751       2.19744566       1.51730535        2      -0.01225096      -0.00661311      -0.00456626
In       1.44062637       0.77765471       0.53695965        3       0.01225096       0.00661311       0.00456626
O        5.42836682       2.08784815       0.03717847        4       0.00000000       0.00803439      -0.01163585
O        6.29879284       4.71345223       0.94928168        5      -0.00671679       0.01244303       0.00000000
O        7.39675479       1.83704646       2.16929428        6       0.00671679      -0.00440864      -0.01163585
O        3.62615296       4.11315427       1.93923570        7      -0.00671679       0.00440864       0.01163585
O        5.59454094       3.86235258       4.07135151        8       0.00000000      -0.00803439       0.01163585
O        4.72411491       1.23674849       3.15924830        9       0.00671679      -0.01244303       0.00000000
10
Lattice="5.346518956716315 -0.11142483489070806 -0.07693728275335152 2.840600033182785 4.530857744383427 -0.07693728275337602 2.84060003318277 1.5333649461846837 4.2641978363027295" Properties=species:S:1:pos:R:3:spacegroup_kinds:I:1:forces:R:3 spacegroup="P 1" unit_cell=conventional occupancy="_JSON {\"0\": {\"In\": 1}, \"1\": {\"In\": 1}, \"2\": {\"In\": 1}, \"3\": {\"In\": 1}, \"4\": {\"O\": 1}, \"5\": {\"O\": 1}, \"6\": {\"O\": 1}, \"7\": {\"O\": 1}, \"8\": {\"O\": 1}, \"9\": {\"O\": 1}}" n_minim_iter=5 energy=-11284.269818664901 stress="-0.31227299578375417 -1.5266967548629042e-06 -1.0541620944241343e-06 -1.5266967548629042e-06 -0.3122709916532088 -5.690408803033798e-07 -1.0541620944241343e-06 -5.690408803033798e-07 -0.31227056045235746" free_energy=-11284.269818664901 pbc="T T T"
In       9.58601255       5.17456011       3.57296104        0      -0.00143668      -0.00077552      -0.00053549
In       6.95556599       3.75463668       2.59252387        1       0.00143668       0.00077552       0.00053549
In       4.07215304       2.19816119       1.51779941        2      -0.00143668      -0.00077552      -0.00053549
In       1.44170648       0.77823775       0.53736223        3       0.00143668       0.00077552       0.00053549
O        5.43018924       2.08935496       0.03779968        4       0.00000000       0.00098050      -0.00142001
O        6.30134441       4.71522161       0.95064354        5      -0.00081970       0.00151852       0.00000000
O        7.39963410       1.83873175       2.16989860        6       0.00081970      -0.00053802      -0.00142001
O        3.62808493       4.11406611       1.94042467        7      -0.00081970       0.00053802       0.00142001
O        5.59752979       3.86344290       4.07252359        8      -0.00000000      -0.00098050       0.00142001
O        4.72637462       1.23757626       3.15967974        9       0.00081970      -0.00151852       0.00000000
