10
Lattice="6.197112385448047 0.08988245716944064 0.06206257364971024 3.4756331292390334 5.131496382627246 0.06206257364969158 3.4756331292390437 1.876157834231238 4.776624191729687" Properties=species:S:1:pos:R:3:spacegroup_kinds:I:1:forces:R:3 spacegroup="P 1" unit_cell=conventional occupancy="_JSON {\"0\": {\"In\": 1}, \"1\": {\"In\": 1}, \"2\": {\"In\": 1}, \"3\": {\"In\": 1}, \"4\": {\"O\": 1}, \"5\": {\"O\": 1}, \"6\": {\"O\": 1}, \"7\": {\"O\": 1}, \"8\": {\"O\": 1}, \"9\": {\"O\": 1}}" n_minim_iter=3 energy=-11286.930132269179 stress="0.08286148010839471 -1.0349568256457586e-05 -7.146231573821181e-06 -1.0349568256457586e-05 0.0828750662335655 -3.857558851481861e-06 -7.146231573821181e-06 -3.857558851481861e-06 0.08287798937237469" free_energy=-11286.930132269179 pbc="T T T"
In      11.18428540       6.03731289       4.16867971        0       0.00238891       0.00128954       0.00089041
In       8.53828258       4.60899214       3.18244430        1      -0.00238891      -0.00128954      -0.00089041
In       4.61009608       2.48854455       1.71830504        2       0.00238891       0.00128954       0.00089041
In       1.96409326       1.06022380       0.73206963        3      -0.00238891      -0.00128954      -0.00089041
O        6.38565086       2.47011529       0.31370865        4       0.00000000       0.00516144      -0.00747509
O        7.57940383       5.39296611       1.28724991        5      -0.00431499       0.00799364       0.00000000
O        8.66753102       2.40030169       2.70202075        6       0.00431499      -0.00283220      -0.00747509
O        4.48084764       4.69723500       2.19872859        7      -0.00431499       0.00283220       0.00747509
O        6.76272780       4.62742139       4.58704069        8      -0.00000000      -0.00516144       0.00747509
O        5.56897482       1.70457057       3.61349943        9       0.00431499      -0.00799364      -0.00000000
