10
Lattice="5.760269534422328 -0.01439582971539781 -0.009940118128681598 3.14875074596527 4.823513355313776 -0.009940118128686316 3.148750745965268 1.6997056825089818 4.514131199653535" Properties=species:S:1:pos:R:3:spacegroup_kinds:I:1:forces:R:3 spacegroup="P 1" unit_cell=conventional occupancy="_JSON {\"0\": {\"In\": 1}, \"1\": {\"In\": 1}, \"2\": {\"In\": 1}, \"3\": {\"In\": 1}, \"4\": {\"O\": 1}, \"5\": {\"O\": 1}, \"6\": {\"O\": 1}, \"7\": {\"O\": 1}, \"8\": {\"O\": 1}, \"9\": {\"O\": 1}}" n_minim_iter=1 energy=-11287.512020562026 stress="-0.05418613090627436 0.002349552722758041 0.0016223331390538016 0.002349552722758041 -0.0572704448248548 0.0008757405967128897 0.0016223331390538016 0.0008757405967128897 -0.05793405429283931" free_energy=-11287.512020562026 pbc="T T T"
In      10.34155675       5.58240528       3.85457240        0      -0.00287203      -0.00155033      -0.00107048
In       7.74509980       4.18082955       2.88680405        1       0.00287203       0.00155033       0.00107048
In       4.31267123       2.32799367       1.60744692        2      -0.00287203      -0.00155033      -0.00107048
In       1.71621429       0.92641794       0.63967857        3       0.00287203       0.00155033       0.00107048
O        5.89457753       2.25967722       0.19218812        4      -0.00000000       0.04313635      -0.06247245
O        6.93418615       5.02243444       1.11362262        5      -0.03606220       0.06680621       0.00000000
O        8.00371965       2.11886020       2.44925372        6       0.03606220      -0.02366986      -0.06247245
O        4.05405138       4.38996302       2.04499724        7      -0.03606220       0.02366986       0.06247245
O        6.16319351       4.24914600       4.30206284        8       0.00000000      -0.04313635       0.06247245
O        5.12358488       1.48638878       3.38062834        9       0.03606220      -0.06680621       0.00000000
10
Lattice="5.748621659445474 -0.026481749034579418 -0.018285275587575665 3.132255413701878 4.820407481719029 -0.018285275587580408 3.132255413701875 1.690801449609986 4.51418354734418" Properties=species:S:1:pos:R:3:spacegroup_kinds:I:1:forces:R:3 spacegroup="P 1" unit_cell=conventional occupancy="_JSON {\"0\": {\"In\": 1}, \"1\": {\"In\": 1}, \"2\": {\"In\": 1}, \"3\": {\"In\": 1}, \"4\": {\"O\": 1}, \"5\": {\"O\": 1}, \"6\": {\"O\": 1}, \"7\": {\"O\": 1}, \"8\": {\"O\": 1}, \"9\": {\"O\": 1}}" n_minim_iter=2 energy=-11287.513632883678 stress="-0.05584114172810648 -9.339392842740861e-05 -6.448719516727169e-05 -9.339392842740861e-05 -0.05571854128775106 -3.481039293131951e-05 -6.448719516727169e-05 -3.481039293131951e-05 -0.055692163035663676" free_energy=-11287.513632883678 pbc="T T T"
In      10.30325140       5.56172793       3.84029498        0       0.02787207       0.01504543       0.01038866
In       7.71644733       4.16536285       2.87612452        1      -0.02787207      -0.01504543      -0.01038866
In       4.29668516       2.31936434       1.60148848        2       0.02787207       0.01504543       0.01038866
In       1.70988109       0.92299926       0.63731802        3      -0.02787207      -0.01504543      -0.01038866
O        5.87759396       2.24910453       0.18169196        4       0.00000000       0.03036367      -0.04397435
O        6.90770569       5.01112875       1.10111798        5      -0.02538418       0.04702489       0.00000000
O        7.97973764       2.10152117       2.43878373        6       0.02538418      -0.01666121      -0.04397435
O        4.03339486       4.38320602       2.03882927        7      -0.02538418       0.01666121       0.04397435
O        6.13553854       4.23562266       4.29592104        8      -0.00000000      -0.03036367       0.04397435
O        5.10542681       1.47359844       3.37649502        9       0.02538418      -0.04702489       0.00000000
10
Lattice="5.748348716726371 -0.026765451704584532 -0.018481168294632228 3.1318684672227004 4.820334974097831 -0.01848116829463698 3.1318684672226955 1.6905925746679695 4.514185149345317" Properties=species:S:1:pos:R:3:spacegroup_kinds:I:1:forces:R:3 spacegroup="P 1" unit_cell=conventional occupancy="_JSON {\"0\": {\"In\": 1}, \"1\": {\"In\": 1}, \"2\": {\"In\": 1}, \"3\": {\"In\": 1}, \"4\": {\"O\": 1}, \"5\": {\"O\": 1}, \"6\": {\"O\": 1}, \"7\": {\"O\": 1}, \"8\": {\"O\": 1}, \"9\": {\"O\": 1}}" n_minim_iter=3 energy=-11287.514743131547 stress="-0.05527648134386747 -0.000191877724366351 -0.0001324888725322197 -0.000191877724366351 -0.05502459887665093 -7.151791486355526e-05 -0.0001324888725322197 -7.151791486355526e-05 -0.054970404785719996" free_energy=-11287.514743131547 pbc="T T T"
In      10.30435556       5.56232396       3.84070653        0       0.03216696       0.01736383       0.01198948
In       7.71377292       4.16391920       2.87512769        1      -0.03216696      -0.01736383      -0.01198948
In       4.29831274       2.32024291       1.60209512        2       0.03216696       0.01736383       0.01198948
In       1.70773010       0.92183815       0.63651629        3      -0.03216696      -0.01736383      -0.01198948
O        5.87719578       2.25119671       0.17805643        4       0.00000000       0.00498989      -0.00722663
O        6.90512827       5.01448805       1.10082454        5      -0.00417157       0.00772794       0.00000000
O        7.98113174       2.09983023       2.43514900        6       0.00417157      -0.00273806      -0.00722663
O        4.03095392       4.38433187       2.04207382        7      -0.00417157       0.00273806       0.00722663
O        6.13488988       4.23296540       4.29916639        8      -0.00000000      -0.00498989       0.00722663
O        5.10695739       1.46967405       3.37639828        9       0.00417157      -0.00772794       0.00000000
10
Lattice="5.74912940957763 -0.025954042985240892 -0.017920901975818134 3.1329751921797806 4.820542399523493 -0.017920901975822853 3.1329751921797766 1.691189988325095 4.514180613103593" Properties=species:S:1:pos:R:3:spacegroup_kinds:I:1:forces:R:3 spacegroup="P 1" unit_cell=conventional occupancy="_JSON {\"0\": {\"In\": 1}, \"1\": {\"In\": 1}, \"2\": {\"In\": 1}, \"3\": {\"In\": 1}, \"4\": {\"O\": 1}, \"5\": {\"O\": 1}, \"6\": {\"O\": 1}, \"7\": {\"O\": 1}, \"8\": {\"O\": 1}, \"9\": {\"O\": 1}}" n_minim_iter=4 energy=-11287.515009982235 stress="-0.05474201376487936 7.055801011098647e-06 4.871932345746207e-06 7.055801011098647e-06 -0.05475127608474754 2.629884438296393e-06 4.871932345746207e-06 2.629884438296393e-06 -0.054753268930995976" free_energy=-11287.515009982235 pbc="T T T"
In      10.30862672       5.56462954       3.84229850        0       0.02450619       0.01322852       0.00913411
In       7.71399298       4.16403798       2.87520971        1      -0.02450619      -0.01322852      -0.00913411
In       4.30108682       2.32174037       1.60312910        2       0.02450619       0.01322852       0.00913411
In       1.70645308       0.92114881       0.63604031        3      -0.02450619      -0.01322852      -0.00913411
O        5.87833466       2.25326330       0.17679535        4       0.00000000      -0.00631037       0.00913902
O        6.90576981       5.01734801       1.10166380        5       0.00527550      -0.00977300       0.00000000
O        7.98387470       2.10024906       2.43388566        6      -0.00527550       0.00346264       0.00913902
O        4.03120510       4.38552930       2.04445315        7       0.00527550      -0.00346264      -0.00913902
O        6.13674515       4.23251505       4.30154346        8      -0.00000000       0.00631037      -0.00913902
O        5.10931000       1.46843035       3.37667501        9      -0.00527550       0.00977300      -0.00000000
10
Lattice="5.7487965127184575 -0.026300014668383102 -0.018159790561443387 3.1325032903487715 4.820453938310119 -0.018159790561448126 3.132503290348768 1.690935254213549 4.514182530139933" Properties=species:S:1:pos:R:3:spacegroup_kinds:I:1:forces:R:3 spacegroup="P 1" unit_cell=conventional occupancy="_JSON {\"0\": {\"In\": 1}, \"1\": {\"In\": 1}, \"2\": {\"In\": 1}, \"3\": {\"In\": 1}, \"4\": {\"O\": 1}, \"5\": {\"O\": 1}, \"6\": {\"O\": 1}, \"7\": {\"O\": 1}, \"8\": {\"O\": 1}, \"9\": {\"O\": 1}}" n_minim_iter=5 energy=-11287.515109384147 stress="-0.05447467143027534 8.306023269713055e-05 5.7351923192104245e-05 8.306023269713055e-05 -0.05458370657799801 3.095875194393631e-05 5.7351923192104245e-05 3.095875194393631e-05 -0.05460716617510444" free_energy=-11287.515109384147 pbc="T T T"
In      10.30941183       5.56505335       3.84259113        0       0.00568475       0.00306865       0.00211886
In       7.71129282       4.16258043       2.87420329        1      -0.00568475      -0.00306865      -0.00211886
In       4.30251028       2.32250876       1.60365966        2       0.00568475       0.00306865       0.00211886
In       1.70439127       0.92003584       0.63527182        3      -0.00568475      -0.00306865      -0.00211886
O        5.87784903       2.25350478       0.17570717        4       0.00000000      -0.00624414       0.00904312
O        6.90455770       5.01786722       1.10130595        5       0.00522014      -0.00967044       0.00000000
O        7.98364366       2.09945445       2.43279844        6      -0.00522014       0.00342630       0.00904312
O        4.03015945       4.38563474       2.04506451        7       0.00522014      -0.00342630      -0.00904312
O        6.13595407       4.23158441       4.30215578        8       0.00000000       0.00624414      -0.00904312
O        5.10924540       1.46722197       3.37655700        9      -0.00522014       0.00967044       0.00000000
10
Lattice="5.748359689563623 -0.026754045856331857 -0.018473292716688443 3.131884023604216 4.8203378888063755 -0.01847329271669316 3.131884023604213 1.6906009720522646 4.514185084608523" Properties=species:S:1:pos:R:3:spacegroup_kinds:I:1:forces:R:3 spacegroup="P 1" unit_cell=conventional occupancy="_JSON {\"0\": {\"In\": 1}, \"1\": {\"In\": 1}, \"2\": {\"In\": 1}, \"3\": {\"In\": 1}, \"4\": {\"O\": 1}, \"5\": {\"O\": 1}, \"6\": {\"O\": 1}, \"7\": {\"O\": 1}, \"8\": {\"O\": 1}, \"9\": {\"O\": 1}}" n_minim_iter=6 energy=-11287.515135666734 stress="-0.05457858596972847 3.223727149190866e-05 2.2259382640264205e-05 3.223727149190866e-05 -0.05462090460434628 1.2015686704345083e-05 2.2259382640264205e-05 1.2015686704345083e-05 -0.05463000972321959" free_energy=-11287.515135666734 pbc="T T T"
In      10.30800353       5.56429315       3.84206623        0       0.00197829       0.00106789       0.00073736
In       7.71018808       4.16198409       2.87379153        1      -0.00197829      -0.00106789      -0.00073736
In       4.30193967       2.32220074       1.60344698        2       0.00197829       0.00106789       0.00073736
In       1.70412421       0.91989168       0.63517228        3      -0.00197829      -0.00106789      -0.00073736
O        5.87721178       2.25280397       0.17575305        4       0.00000000      -0.00219685       0.00318160
O        6.90381790       5.01697246       1.10083633        5       0.00183658      -0.00340231       0.00000000
O        7.98248969       2.09897013       2.43284560        6      -0.00183658       0.00120546       0.00318160
O        4.02963806       4.38521470       2.04439291        7       0.00183658      -0.00120546      -0.00318160
O        6.13491596       4.23138086       4.30148545        8       0.00000000       0.00219685      -0.00318160
O        5.10830984       1.46721237       3.37640217        9      -0.00183658       0.00340231       0.00000000
