10
Lattice="6.363483485793177 0.08029426461130386 0.05544206142132685 3.55890880973108 5.27584470269079 0.055442061421304256 3.5589088097310904 1.9211103118220791 4.9139542446888855" Properties=species:S:1:pos:R:3:spacegroup_kinds:I:1:forces:R:3 spacegroup="P 1" unit_cell=conventional occupancy="_JSON {\"0\": {\"In\": 1}, \"1\": {\"In\": 1}, \"2\": {\"In\": 1}, \"3\": {\"In\": 1}, \"4\": {\"O\": 1}, \"5\": {\"O\": 1}, \"6\": {\"O\": 1}, \"7\": {\"O\": 1}, \"8\": {\"O\": 1}, \"9\": {\"O\": 1}}" n_minim_iter=1 energy=-11285.600845563946 stress="0.11730548073652709 -0.001127072308326799 -0.0007782275917202942 -0.001127072308326799 0.11878501544728974 -0.0004200897327483243 -0.0007782275917202942 -0.0004200897327483243 0.11910334661351517" free_energy=-11285.600845563946 pbc="T T T"
In      11.47101643       6.19209121       4.27555197        0      -0.01446082      -0.00780600      -0.00538993
In       8.75093524       4.72378272       3.26170559        1       0.01446082       0.00780600       0.00538993
In       4.73036588       2.55346657       1.76313279        2      -0.01446082      -0.00780600      -0.00538993
In       2.01028468       1.08515808       0.74928640        3       0.01446082       0.00780600       0.00538993
O        6.55206702       2.54279632       0.29428432        4       0.00000000       0.03771131      -0.05461561
O        7.76024840       5.55568054       1.31165166        5      -0.03152685       0.05840434       0.00000000
O        8.90279445       2.44505275       2.75126145        6       0.03152685      -0.02069302      -0.05461561
O        4.57850666       4.83219654       2.27357693        7      -0.03152685       0.02069302       0.05461561
O        6.92923409       4.73445297       4.73055405        8      -0.00000000      -0.03771131       0.05461561
O        5.72105271       1.72156875       3.71318672        9       0.03152685      -0.05840434       0.00000000
10
Lattice="6.371853571034094 0.0887486491373926 0.06127969513581579 3.5705695659680097 5.278203030199454 0.061279695135793226 3.570569565968021 1.927404825182229 4.914091276004836" Properties=species:S:1:pos:R:3:spacegroup_kinds:I:1:forces:R:3 spacegroup="P 1" unit_cell=conventional occupancy="_JSON {\"0\": {\"In\": 1}, \"1\": {\"In\": 1}, \"2\": {\"In\": 1}, \"3\": {\"In\": 1}, \"4\": {\"O\": 1}, \"5\": {\"O\": 1}, \"6\": {\"O\": 1}, \"7\": {\"O\": 1}, \"8\": {\"O\": 1}, \"9\": {\"O\": 1}}" n_minim_iter=2 energy=-11285.60151328317 stress="0.1181123976995519 0.00017205693468135867 0.00011880289653789422 0.00017205693468135867 0.11788653445671046 6.413018149823221e-05 0.00011880289653789422 6.413018149823221e-05 0.11783793856446415" free_energy=-11285.60151328317 pbc="T T T"
In      11.49787693       6.20659059       4.28556359        0      -0.01071085      -0.00578175      -0.00399222
In       8.77161214       4.73494418       3.26941242        1       0.01071085       0.00578175       0.00399222
In       4.74138058       2.55941234       1.76723825        2      -0.01071085      -0.00578175      -0.00399222
In       2.01511579       1.08776592       0.75108708        3       0.01071085       0.00578175       0.00399222
O        6.56417497       2.55077235       0.30092086        4       0.00000000       0.03286133      -0.04759160
O        7.77862811       5.56454601       1.32044236        5      -0.02747224       0.05089307       0.00000000
O        8.92029138       2.45699372       2.75796650        6       0.02747224      -0.01803173      -0.04759160
O        4.59270133       4.83736280       2.27868417        7      -0.02747224       0.01803173       0.04759160
O        6.94881775       4.74358417       4.73572981        8      -0.00000000      -0.03286133       0.04759160
O        5.73436460       1.72981050       3.71620831        9       0.02747224      -0.05089307      -0.00000000
10
Lattice="6.3683029534931 0.0851644079530868 0.058804826963709714 3.565624821057495 5.2772014476718265 0.05880482696368713 3.565624821057505 1.9247356361288468 4.9140315279818365" Properties=species:S:1:pos:R:3:spacegroup_kinds:I:1:forces:R:3 spacegroup="P 1" unit_cell=conventional occupancy="_JSON {\"0\": {\"In\": 1}, \"1\": {\"In\": 1}, \"2\": {\"In\": 1}, \"3\": {\"In\": 1}, \"4\": {\"O\": 1}, \"5\": {\"O\": 1}, \"6\": {\"O\": 1}, \"7\": {\"O\": 1}, \"8\": {\"O\": 1}, \"9\": {\"O\": 1}}" n_minim_iter=3 energy=-11285.603333472744 stress="0.1164503718408748 7.65142153493373e-06 5.283199403837815e-06 7.65142153493373e-06 0.11644032763691826 2.851887792352935e-06 5.283199403837815e-06 2.851887792352935e-06 0.11643816656348792" free_energy=-11285.603333472744 pbc="T T T"
In      11.48454134       6.19939200       4.28059306        0      -0.02146585      -0.01158734      -0.00800089
In       8.76478757       4.73126025       3.26686872        1       0.02146585       0.01158734       0.00800089
In       4.73476504       2.55584125       1.76477247        2      -0.02146585      -0.01158734      -0.00800089
In       2.01501127       1.08770950       0.75104813        3       0.02146585       0.01158734       0.00800089
O        6.55903963       2.55317374       0.28973100        4       0.00000000      -0.00226904       0.00328615
O        7.76599830       5.56974294       1.31671512        5       0.00189693      -0.00351411      -0.00000000
O        8.91770578       2.44875693       2.74674676        6      -0.00189693       0.00124507       0.00328615
O        4.58184682       4.83834458       2.28489443        7       0.00189693      -0.00124507      -0.00328615
O        6.94051298       4.73392776       4.74191019        8       0.00000000       0.00226904      -0.00328615
O        5.73355431       1.71735857       3.71492606        9      -0.00189693       0.00351411       0.00000000
10
Lattice="6.366229219910988 0.08306958176306085 0.057358378915935974 3.5627356329997832 5.276617272952093 0.05735837891591338 3.5627356329997935 1.9231760432122524 4.913997734600888" Properties=species:S:1:pos:R:3:spacegroup_kinds:I:1:forces:R:3 spacegroup="P 1" unit_cell=conventional occupancy="_JSON {\"0\": {\"In\": 1}, \"1\": {\"In\": 1}, \"2\": {\"In\": 1}, \"3\": {\"In\": 1}, \"4\": {\"O\": 1}, \"5\": {\"O\": 1}, \"6\": {\"O\": 1}, \"7\": {\"O\": 1}, \"8\": {\"O\": 1}, \"9\": {\"O\": 1}}" n_minim_iter=4 energy=-11285.6038802035 stress="0.11609088031408579 -8.174953663304146e-05 -5.644690538016876e-05 -8.174953663304146e-05 0.11619819488023259 -3.0470219504643674e-05 -5.644690538016876e-05 -3.0470219504643674e-05 0.11622128428214723" free_energy=-11285.6038802035 pbc="T T T"
In      11.47101381       6.19208979       4.27555099        0      -0.00772473      -0.00416983      -0.00287921
In       8.76653693       4.73220456       3.26752075        1       0.00772473       0.00416983       0.00287921
In       4.72516356       2.55065835       1.76119374        2      -0.00772473      -0.00416983      -0.00287921
In       2.02068669       1.09077312       0.75316351        3       0.00772473       0.00416983       0.00287921
O        6.55603974       2.55177203       0.28725457        4       0.00000000       0.00022845      -0.00033086
O        7.76096413       5.56843618       1.31453700        5      -0.00019099       0.00035381      -0.00000000
O        8.91385097       2.44548303       2.74425343        6       0.00019099      -0.00012536      -0.00033086
O        4.57784952       4.83737988       2.28446106        7      -0.00019099       0.00012536       0.00033086
O        6.93566076       4.73109088       4.74145993        8      -0.00000000      -0.00022845       0.00033086
O        5.73073636       1.71442673       3.71417749        9       0.00019099      -0.00035381       0.00000000
