10
Lattice="6.165385877921624 0.10382485628719144 0.07168960432231616 3.469880016640928 5.097322365181001 0.0716896043222989 3.469880016640933 1.8730522857251681 4.741256144618428" Properties=species:S:1:pos:R:3:spacegroup_kinds:I:1:forces:R:3 spacegroup="P 1" unit_cell=conventional occupancy="_JSON {\"0\": {\"In\": 1}, \"1\": {\"In\": 1}, \"2\": {\"In\": 1}, \"3\": {\"In\": 1}, \"4\": {\"O\": 1}, \"5\": {\"O\": 1}, \"6\": {\"O\": 1}, \"7\": {\"O\": 1}, \"8\": {\"O\": 1}, \"9\": {\"O\": 1}}" n_minim_iter=1 energy=-11287.186184593125 stress="0.07240727080014879 0.000841996479782176 0.0005813867370318384 0.000841996479782176 0.07130196193200132 0.00031383441248941863 0.0005813867370318384 0.00031383441248941863 0.07106414780194147" free_energy=-11287.186184593125 pbc="T T T"
In      11.14783193       6.01763519       4.15509253        0      -0.01018024      -0.00549532      -0.00379444
In       8.50988695       4.59366409       3.17186050        1       0.01018024       0.00549532       0.00379444
In       4.59525897       2.48053543       1.71277486        2      -0.01018024      -0.00549532      -0.00379444
In       1.95731400       1.05656433       0.72954282        3       0.01018024       0.00549532       0.00379444
O        6.35897942       2.46300500       0.32643772        4      -0.00000000       0.01129913      -0.01636402
O        7.55675054       5.36424340       1.29284845        5      -0.00944613       0.01749921      -0.00000000
O        8.63108832       2.40441124       2.69706580        6       0.00944613      -0.00620008      -0.01636402
O        4.47405760       4.66978828       2.18756956        7      -0.00944613       0.00620008       0.01636402
O        6.74616650       4.61119452       4.55819763        8       0.00000000      -0.01129913       0.01636402
O        5.54839538       1.70995612       3.59178691        9       0.00944613      -0.01749921       0.00000000
10
Lattice="6.159358566093902 0.09776635241577025 0.06750629253302702 3.4615077595277937 5.095607935870647 0.06750629253300977 3.4615077595278 1.8685329146670266 4.74113510485046" Properties=species:S:1:pos:R:3:spacegroup_kinds:I:1:forces:R:3 spacegroup="P 1" unit_cell=conventional occupancy="_JSON {\"0\": {\"In\": 1}, \"1\": {\"In\": 1}, \"2\": {\"In\": 1}, \"3\": {\"In\": 1}, \"4\": {\"O\": 1}, \"5\": {\"O\": 1}, \"6\": {\"O\": 1}, \"7\": {\"O\": 1}, \"8\": {\"O\": 1}, \"9\": {\"O\": 1}}" n_minim_iter=2 energy=-11287.18647827077 stress="0.07135008743333031 -3.092947905789716e-05 -2.1356369780045634e-05 -3.092947905789716e-05 0.07139068929813819 -1.1528236999985321e-05 -2.1356369780045634e-05 -1.1528236999985321e-05 0.07139942504458563" free_energy=-11287.18647827077 pbc="T T T"
In      11.12837961       6.00713477       4.14784214        0      -0.00466714      -0.00251933      -0.00173956
In       8.49518152       4.58572605       3.16637940        1       0.00466714       0.00251933       0.00173957
In       4.58719257       2.47618117       1.70976830        2      -0.00466714      -0.00251933      -0.00173957
In       1.95399448       1.05477245       0.72830555        3       0.00466714       0.00251933       0.00173957
O        6.35027281       2.45755241       0.32128316        4      -0.00000000       0.01102105      -0.01596130
O        7.54331461       5.35829012       1.28654322        5      -0.00921365       0.01706854      -0.00000000
O        8.61873877       2.39569270       2.69185071        6       0.00921365      -0.00604749      -0.01596130
O        4.46363533       4.66621451       2.18429698        7      -0.00921365       0.00604749       0.01596130
O        6.73210129       4.60435480       4.55486453        8      -0.00000000      -0.01102105       0.01596130
O        5.53905949       1.70361709       3.58960448        9       0.00921365      -0.01706854      -0.00000000
10
Lattice="6.159516153951433 0.09792487324520434 0.06761574893822105 3.4617267556315823 5.0956526962630795 0.06761574893820381 3.46172675563159 1.8686511294614279 4.741138180521654" Properties=species:S:1:pos:R:3:spacegroup_kinds:I:1:forces:R:3 spacegroup="P 1" unit_cell=conventional occupancy="_JSON {\"0\": {\"In\": 1}, \"1\": {\"In\": 1}, \"2\": {\"In\": 1}, \"3\": {\"In\": 1}, \"4\": {\"O\": 1}, \"5\": {\"O\": 1}, \"6\": {\"O\": 1}, \"7\": {\"O\": 1}, \"8\": {\"O\": 1}, \"9\": {\"O\": 1}}" n_minim_iter=3 energy=-11287.186586551798 stress="0.0713253837912793 -8.564154985602182e-06 -5.913428907684695e-06 -8.564154985602182e-06 0.07133662616267795 -3.1920877944625625e-06 -5.913428907684695e-06 -3.1920877944625625e-06 0.07133904502869508" free_energy=-11287.186586551798 pbc="T T T"
In      11.12852948       6.00721567       4.14789800        0      -0.00148426      -0.00080121      -0.00055322
In       8.49592503       4.58612740       3.16665652        1       0.00148426       0.00080121       0.00055322
In       4.58704465       2.47610132       1.70971316        2      -0.00148426      -0.00080121      -0.00055322
In       1.95444019       1.05501305       0.72847168        3       0.00148426       0.00080121       0.00055322
O        6.35050050       2.45851328       0.32023300        4       0.00000000       0.00238223      -0.00345008
O        7.54298196       5.35971302       1.28670817        5      -0.00199156       0.00368942       0.00000000
O        8.61974579       2.39547179       2.69080209        6       0.00199156      -0.00130718      -0.00345008
O        4.46322389       4.66675692       2.18556759        7      -0.00199156       0.00130718       0.00345008
O        6.73246918       4.60371543       4.55613668        8      -0.00000000      -0.00238223       0.00345008
O        5.53998771       1.70251569       3.58966151        9       0.00199156      -0.00368942       0.00000000
