10
Lattice="5.998813766660309 0.029528395176301 0.02038894193704918 3.316366048387025 4.998835340987016 0.02038894193704546 3.3163660483870268 1.7901849566677264 4.667334174469903" Properties=species:S:1:pos:R:3:spacegroup_kinds:I:1:forces:R:3 spacegroup="P 1" unit_cell=conventional occupancy="_JSON {\"0\": {\"In\": 1}, \"1\": {\"In\": 1}, \"2\": {\"In\": 1}, \"3\": {\"In\": 1}, \"4\": {\"O\": 1}, \"5\": {\"O\": 1}, \"6\": {\"O\": 1}, \"7\": {\"O\": 1}, \"8\": {\"O\": 1}, \"9\": {\"O\": 1}}" n_minim_iter=1 energy=-11287.544844478067 stress="0.04025309920518623 -0.0010448901641301612 -0.0007214819756035693 -0.0010448901641301612 0.041624751454489926 -0.0003894582683365268 -0.0007214819756035693 -0.0003894582683365268 0.04191987103165388" free_energy=-11287.544844478067 pbc="T T T"
In      10.81901769       5.84014022       4.03253475        0      -0.00777599      -0.00419751      -0.00289832
In       8.12830111       4.38768283       3.02963334        1       0.00777599       0.00419751       0.00289832
In       4.50324476       2.43086587       1.67847872        2      -0.00777599      -0.00419751      -0.00289832
In       1.81252818       0.97840849       0.67557731        3       0.00777599       0.00419751       0.00289832
O        6.15729335       2.36930582       0.24599487        4       0.00000000      -0.02028359       0.02937583
O        7.27215302       5.22534026       1.19741696        5       0.01695719      -0.03141365       0.00000000
O        8.35879973       2.25787709       2.57966195        6      -0.01695719       0.01113005       0.02937583
O        4.27274614       4.56067162       2.12845011        7       0.01695719      -0.01113005      -0.02937583
O        6.47425252       4.44924288       4.46211720        8       0.00000000       0.02028359      -0.02937583
O        5.35939285       1.59320844       3.51069510        9      -0.01695719       0.03141365      -0.00000000
10
Lattice="6.006899792311064 0.0377958987487557 0.026097536979099823 3.327714701512367 5.001058738923928 0.02609753697909608 3.3277147015123694 1.796310995774087 4.667390748380177" Properties=species:S:1:pos:R:3:spacegroup_kinds:I:1:forces:R:3 spacegroup="P 1" unit_cell=conventional occupancy="_JSON {\"0\": {\"In\": 1}, \"1\": {\"In\": 1}, \"2\": {\"In\": 1}, \"3\": {\"In\": 1}, \"4\": {\"O\": 1}, \"5\": {\"O\": 1}, \"6\": {\"O\": 1}, \"7\": {\"O\": 1}, \"8\": {\"O\": 1}, \"9\": {\"O\": 1}}" n_minim_iter=2 energy=-11287.545353651443 stress="0.041272606987269624 7.627888978550486e-05 5.266950184943437e-05 7.627888978550486e-05 0.041172473869207596 2.8431164856372632e-05 5.266950184943437e-05 2.8431164856372632e-05 0.04115092960116776" free_energy=-11287.545353651443 pbc="T T T"
In      10.84530994       5.85433286       4.04233457        0      -0.02495934      -0.01347313      -0.00930301
In       8.14818386       4.39841561       3.03704417        1       0.02495934       0.01347313       0.00930301
In       4.51414534       2.43675004       1.68254166        2      -0.02495934      -0.01347313      -0.00930301
In       1.81701926       0.98083279       0.67725126        3       0.02495934       0.01347313       0.00930301
O        6.16903220       2.37661123       0.25314063        4      -0.00000000      -0.01714857       0.02483551
O        7.29038763       5.23321821       1.20599399        5       0.01433629      -0.02655836      -0.00000000
O        8.37539147       2.26976726       2.58683600        6      -0.01433629       0.00940979       0.02483551
O        4.28693774       4.56539839       2.13274982        7       0.01433629      -0.00940979      -0.02483551
O        6.49329701       4.45855441       4.46644520        8      -0.00000000       0.01714857      -0.02483551
O        5.37194157       1.60194744       3.51359183        9      -0.01433629       0.02655836      -0.00000000
10
Lattice="6.009153803424283 0.04009728239331699 0.027686610046690662 3.330875494851507 5.001680283970733 0.027686610046686926 3.330875494851509 1.798017202086752 4.667408954916804" Properties=species:S:1:pos:R:3:spacegroup_kinds:I:1:forces:R:3 spacegroup="P 1" unit_cell=conventional occupancy="_JSON {\"0\": {\"In\": 1}, \"1\": {\"In\": 1}, \"2\": {\"In\": 1}, \"3\": {\"In\": 1}, \"4\": {\"O\": 1}, \"5\": {\"O\": 1}, \"6\": {\"O\": 1}, \"7\": {\"O\": 1}, \"8\": {\"O\": 1}, \"9\": {\"O\": 1}}" n_minim_iter=3 energy=-11287.546159091844 stress="0.04082306004513035 -2.473320426707079e-05 -1.707793018868345e-05 -2.473320426707079e-05 0.0408555279130599 -9.218721108851783e-06 -1.707793018868345e-05 -9.218721108851783e-06 0.04086251357818231" free_energy=-11287.546159091844 pbc="T T T"
In      10.84831227       5.85595352       4.04345362        0      -0.02981847      -0.01609611      -0.01111413
In       8.15804493       4.40373864       3.04071965        1       0.02981847       0.01609611       0.01111413
In       4.51285987       2.43605614       1.68206253        2      -0.02981847      -0.01609611      -0.01111413
In       1.82259253       0.98384126       0.67932856        3       0.02981847       0.01609611       0.01111413
O        6.17230310       2.37551759       0.25966067        4       0.00000000       0.01263564      -0.01829963
O        7.29808271       5.23056879       1.20838216        5      -0.01056346       0.01956909      -0.00000000
O        8.37739900       2.27479488       2.59336515        6       0.01056346      -0.00693345      -0.01829963
O        4.29350581       4.56499990       2.12941703        7      -0.01056346       0.00693345       0.01829963
O        6.49860170       4.46427719       4.46312151        8       0.00000000      -0.01263564       0.01829963
O        5.37282210       1.60922599       3.51440002        9       0.01056346      -0.01956909       0.00000000
10
Lattice="6.034386942589827 0.0657663154641948 0.04541071668159584 3.3661809091726496 5.008690154907754 0.04541071668159211 3.3661809091726527 1.817075177197001 4.667684329672891" Properties=species:S:1:pos:R:3:spacegroup_kinds:I:1:forces:R:3 spacegroup="P 1" unit_cell=conventional occupancy="_JSON {\"0\": {\"In\": 1}, \"1\": {\"In\": 1}, \"2\": {\"In\": 1}, \"3\": {\"In\": 1}, \"4\": {\"O\": 1}, \"5\": {\"O\": 1}, \"6\": {\"O\": 1}, \"7\": {\"O\": 1}, \"8\": {\"O\": 1}, \"9\": {\"O\": 1}}" n_minim_iter=4 energy=-11287.550377078385 stress="0.037642894546832 -0.0014670322887180387 -0.0010129651804835404 -0.0014670322887180387 0.03956870283611251 -0.0005468018311823727 -0.0010129651804835404 -0.0005468018311823727 0.0399830525592497" free_energy=-11287.550377078385 pbc="T T T"
In      10.89324435       5.88020800       4.06020100        0       0.00220492       0.00119022       0.00082183
In       8.25687880       4.45708948       3.07755765        1      -0.00220492      -0.00119022      -0.00082183
In       4.50986997       2.43444218       1.68094811        2       0.00220492       0.00119022       0.00082183
In       1.87350442       1.01132366       0.69830477        3      -0.00220492      -0.00119022      -0.00082183
O        6.20888067       2.39652187       0.28435376        4      -0.00000000      -0.01173086       0.01698928
O        7.35629608       5.25246366       1.23503716        5       0.00980706      -0.01816784       0.00000000
O        8.42764616       2.31270696       2.61819592        6      -0.00980706       0.00643698       0.01698928
O        4.33910261       4.57882470       2.14030985        7       0.00980706      -0.00643698      -0.01698928
O        6.55786810       4.49500978       4.47415201        8      -0.00000000       0.01173086      -0.01698928
O        5.41045269       1.63906800       3.52346861        9      -0.00980706       0.01816784       0.00000000
10
Lattice="6.053980341488597 0.0855806498990291 0.05909223617837458 3.393497117555837 5.014197775906696 0.05909223617837075 3.3934971175558415 1.8318205534936163 4.667987220214141" Properties=species:S:1:pos:R:3:spacegroup_kinds:I:1:forces:R:3 spacegroup="P 1" unit_cell=conventional occupancy="_JSON {\"0\": {\"In\": 1}, \"1\": {\"In\": 1}, \"2\": {\"In\": 1}, \"3\": {\"In\": 1}, \"4\": {\"O\": 1}, \"5\": {\"O\": 1}, \"6\": {\"O\": 1}, \"7\": {\"O\": 1}, \"8\": {\"O\": 1}, \"9\": {\"O\": 1}}" n_minim_iter=5 energy=-11287.552652907207 stress="0.03518054953661492 -0.0020409246552797367 -0.0014092297959442637 -0.0020409246552797367 0.03785972002819631 -0.0007607067334299747 -0.0014092297959442637 -0.0007607067334299747 0.03843616034877611" free_energy=-11287.552652907207 pbc="T T T"
In      10.93234801       5.90131628       4.07477597        0       0.03827070       0.02065864       0.01426450
In       8.32911386       4.49608220       3.10448158        1      -0.03827070      -0.02065864      -0.01426450
In       4.51186073       2.43551680       1.68169012        2       0.03827070       0.02065864       0.01426450
In       1.90862657       1.03028271       0.71139573        3      -0.03827070      -0.02065864      -0.01426450
O        6.23723382       2.41249577       0.30383176        4       0.00000000      -0.02426535       0.03514243
O        7.40160965       5.26902385       1.25563516        5       0.02028596      -0.03758028       0.00000000
O        8.46635511       2.34217116       2.63782537        6      -0.02028596       0.01331493       0.03514243
O        4.37461947       4.58942783       2.14834632        7       0.02028596      -0.01331493      -0.03514243
O        6.60374077       4.51910322       4.48233993        8      -0.00000000       0.02426535      -0.03514243
O        5.43936494       1.66257514       3.53053654        9      -0.02028596       0.03758028      -0.00000000
10
Lattice="6.064281573753365 0.09595764910820624 0.0662574083150082 3.407824851812665 5.017115571277471 0.0662574083150045 3.407824851812668 1.839554710084135 4.668177071225849" Properties=species:S:1:pos:R:3:spacegroup_kinds:I:1:forces:R:3 spacegroup="P 1" unit_cell=conventional occupancy="_JSON {\"0\": {\"In\": 1}, \"1\": {\"In\": 1}, \"2\": {\"In\": 1}, \"3\": {\"In\": 1}, \"4\": {\"O\": 1}, \"5\": {\"O\": 1}, \"6\": {\"O\": 1}, \"7\": {\"O\": 1}, \"8\": {\"O\": 1}, \"9\": {\"O\": 1}}" n_minim_iter=6 energy=-11287.553890322797 stress="0.03615361825168207 -0.0009198868062448075 -0.000635168912764995 -0.0009198868062448075 0.03736117560965848 -0.0003428662018527021 -0.000635168912764995 -0.0003428662018527021 0.03762098914248445" free_energy=-11287.553890322797 pbc="T T T"
In      10.96141464       5.91700654       4.08560987        0       0.03004497       0.01621837       0.01119856
In       8.35848229       4.51193537       3.11542797        1      -0.03004497      -0.01621837      -0.01119856
In       4.52144900       2.44069258       1.68526393        2       0.03004497       0.01621837       0.01119856
In       1.91851665       1.03562140       0.71508202        3      -0.03004497      -0.01621837      -0.01119856
O        6.25212361       2.42110308       0.31370691        4       0.00000000      -0.02058601       0.02981380
O        7.42520024       5.27808127       1.26643038        5       0.01721001      -0.03188201       0.00000000
O        8.48687184       2.35749276       2.64779545        6      -0.01721001       0.01129599       0.02981380
O        4.39305945       4.59513518       2.15289645        7       0.01721001      -0.01129599      -0.02981380
O        6.62780768       4.53152486       4.48698498        8      -0.00000000       0.02058601      -0.02981380
O        5.45473105       1.67454667       3.53426151        9      -0.01721001       0.03188201       0.00000000
10
Lattice="6.064992936202746 0.09667322755724207 0.06675150517877887 3.4088134190799058 5.017317620304317 0.06675150517877529 3.4088134190799098 1.8400883418439131 4.668190951607477" Properties=species:S:1:pos:R:3:spacegroup_kinds:I:1:forces:R:3 spacegroup="P 1" unit_cell=conventional occupancy="_JSON {\"0\": {\"In\": 1}, \"1\": {\"In\": 1}, \"2\": {\"In\": 1}, \"3\": {\"In\": 1}, \"4\": {\"O\": 1}, \"5\": {\"O\": 1}, \"6\": {\"O\": 1}, \"7\": {\"O\": 1}, \"8\": {\"O\": 1}, \"9\": {\"O\": 1}}" n_minim_iter=7 energy=-11287.554450422464 stress="0.037382901510810945 -0.00013597587466526669 -9.388943083055371e-05 -0.00013597587466526669 0.03756140028619648 -5.068181382652756e-05 -9.388943083055371e-05 -5.068181382652756e-05 0.03759980541658569" free_energy=-11287.554450422464 pbc="T T T"
In      10.96898011       5.92109041       4.08842972        0      -0.00215719      -0.00116446      -0.00080404
In       8.35494956       4.51002839       3.11411123        1       0.00215719       0.00116446       0.00080404
In       4.52767022       2.44405081       1.68758274        2      -0.00215719      -0.00116446      -0.00080404
In       1.91363968       1.03298880       0.71326425        3       0.00215719       0.00116446       0.00080404
O        6.25315142       2.42133585       0.31491099        4      -0.00000000      -0.00699773       0.01013450
O        7.42713016       5.27814738       1.26717500        5       0.00585014      -0.01083754       0.00000000
O        8.48798609       2.35874786       2.64900646        6      -0.00585014       0.00383981       0.01013450
O        4.39463369       4.59533134       2.15268750        7       0.00585014      -0.00383981      -0.01013450
O        6.62946837       4.53274335       4.48678298        8      -0.00000000       0.00699773      -0.01013450
O        5.45548962       1.67593182       3.53451897        9      -0.00585014       0.01083754       0.00000000
10
Lattice="6.06891104548348 0.10061221787057358 0.06947132263955234 3.414256386776669 5.018431769161637 0.06947132263954879 3.414256386776674 1.8430264731443207 4.668269176653088" Properties=species:S:1:pos:R:3:spacegroup_kinds:I:1:forces:R:3 spacegroup="P 1" unit_cell=conventional occupancy="_JSON {\"0\": {\"In\": 1}, \"1\": {\"In\": 1}, \"2\": {\"In\": 1}, \"3\": {\"In\": 1}, \"4\": {\"O\": 1}, \"5\": {\"O\": 1}, \"6\": {\"O\": 1}, \"7\": {\"O\": 1}, \"8\": {\"O\": 1}, \"9\": {\"O\": 1}}" n_minim_iter=8 energy=-11287.554544859067 stress="0.03744494677075123 7.277717755110474e-05 5.0251619337079e-05 7.277717755110474e-05 0.037349410432037704 2.7125983353445972e-05 5.0251619337079e-05 2.7125983353445972e-05 0.03732885519096071" free_energy=-11287.554544859067 pbc="T T T"
In      10.97812356       5.92602607       4.09183773        0       0.00038260       0.00020653       0.00014260
In       8.36801218       4.51707963       3.11898001        1      -0.00038260      -0.00020653      -0.00014260
In       4.52941165       2.44499084       1.68823182        2       0.00038260       0.00020653       0.00014260
In       1.91930027       1.03604440       0.71537410        3      -0.00038260      -0.00020653      -0.00014260
O        6.25881148       2.42373093       0.31992735        4       0.00000000       0.00167289      -0.00242277
O        7.43682610       5.28023682       1.27127428        5      -0.00139854       0.00259084       0.00000000
O        8.49505325       2.36504696       2.65406194        6       0.00139854      -0.00091795      -0.00242277
O        4.40237058       4.59702351       2.15314989        7      -0.00139854       0.00091795       0.00242277
O        6.63861235       4.53833954       4.48728448        8      -0.00000000      -0.00167289       0.00242277
O        5.46059773       1.68183365       3.53593755        9       0.00139854      -0.00259084       0.00000000
