10
Lattice="5.549456264726244 -0.07151381798799068 -0.049379286410528966 2.9853219765310173 4.678614298776237 -0.049379286410544766 2.9853219765310137 1.6114863121924334 4.392605369966261" Properties=species:S:1:pos:R:3:spacegroup_kinds:I:1:forces:R:3 spacegroup="P 1" unit_cell=conventional occupancy="_JSON {\"0\": {\"In\": 1}, \"1\": {\"In\": 1}, \"2\": {\"In\": 1}, \"3\": {\"In\": 1}, \"4\": {\"O\": 1}, \"5\": {\"O\": 1}, \"6\": {\"O\": 1}, \"7\": {\"O\": 1}, \"8\": {\"O\": 1}, \"9\": {\"O\": 1}}" n_minim_iter=6 energy=-11286.462069690431 stress="-0.15408405399984487 1.8671092030325258e-06 1.289213275565822e-06 1.8671092030325258e-06 -0.15408650499713966 6.959213850005561e-07 1.289213275565822e-06 6.959213850005561e-07 -0.1540870323454921" free_energy=-11286.462069690431 pbc="T T T"
In       9.94336056       5.36745771       3.70615412        0       0.00066161       0.00035714       0.00024660
In       7.33678977       3.96042249       2.73461608        1      -0.00066161      -0.00035714      -0.00024660
In       4.18331045       2.25816431       1.55923072        2       0.00066161       0.00035714       0.00024660
In       1.57673966       0.85112910       0.58769268        3      -0.00066161      -0.00035714      -0.00024660
O        5.65475319       2.17687619       0.09583971        4       0.00000000      -0.00026182       0.00037918
O        6.59733427       4.87723485       1.02408242        5       0.00021888      -0.00040549      -0.00000000
O        7.69749409       1.96358144       2.29214240        6      -0.00021888       0.00014367       0.00037918
O        3.82260614       4.25500536       2.00170440        7       0.00021888      -0.00014367      -0.00037918
O        5.86534704       4.04171061       4.19800709        8      -0.00000000       0.00026182      -0.00037918
O        4.92276595       1.34135196       3.26976439        9      -0.00021888       0.00040549      -0.00000000
