10
Lattice="6.06891104548348 0.10061221787057358 0.06947132263955234 3.414256386776669 5.018431769161637 0.06947132263954879 3.414256386776674 1.8430264731443207 4.668269176653088" Properties=species:S:1:pos:R:3:spacegroup_kinds:I:1:forces:R:3 spacegroup="P 1" unit_cell=conventional occupancy="_JSON {\"0\": {\"In\": 1}, \"1\": {\"In\": 1}, \"2\": {\"In\": 1}, \"3\": {\"In\": 1}, \"4\": {\"O\": 1}, \"5\": {\"O\": 1}, \"6\": {\"O\": 1}, \"7\": {\"O\": 1}, \"8\": {\"O\": 1}, \"9\": {\"O\": 1}}" n_minim_iter=8 energy=-11287.554544859067 stress="0.03744494677075123 7.277717755110474e-05 5.0251619337079e-05 7.277717755110474e-05 0.037349410432037704 2.7125983353445972e-05 5.0251619337079e-05 2.7125983353445972e-05 0.03732885519096071" free_energy=-11287.554544859067 pbc="T T T"
In      10.97812356       5.92602607       4.09183773        0       0.00038260       0.00020653       0.00014260
In       8.36801218       4.51707963       3.11898001        1      -0.00038260      -0.00020653      -0.00014260
In       4.52941165       2.44499084       1.68823182        2       0.00038260       0.00020653       0.00014260
In       1.91930027       1.03604440       0.71537410        3      -0.00038260      -0.00020653      -0.00014260
O        6.25881148       2.42373093       0.31992735        4       0.00000000       0.00167289      -0.00242277
O        7.43682610       5.28023682       1.27127428        5      -0.00139854       0.00259084       0.00000000
O        8.49505325       2.36504696       2.65406194        6       0.00139854      -0.00091795      -0.00242277
O        4.40237058       4.59702351       2.15314989        7      -0.00139854       0.00091795       0.00242277
O        6.63861235       4.53833954       4.48728448        8      -0.00000000      -0.00167289       0.00242277
O        5.46059773       1.68183365       3.53593755        9       0.00139854      -0.00259084       0.00000000
