10
Lattice="5.950821200543195 0.02929215789456296 0.020225823413614407 3.28983398337605 4.9588429449996125 0.020225823413609942 3.2898339833760524 1.7758628634611846 4.629993901430613" Properties=species:S:1:pos:R:3:spacegroup_kinds:I:1:forces:R:3 spacegroup="P 1" unit_cell=conventional occupancy="_JSON {\"0\": {\"In\": 1}, \"1\": {\"In\": 1}, \"2\": {\"In\": 1}, \"3\": {\"In\": 1}, \"4\": {\"O\": 1}, \"5\": {\"O\": 1}, \"6\": {\"O\": 1}, \"7\": {\"O\": 1}, \"8\": {\"O\": 1}, \"9\": {\"O\": 1}}" n_minim_iter=7 energy=-11287.64761112577 stress="0.020754541687158276 4.480881118091758e-07 3.0939792663226637e-07 4.480881118091758e-07 0.020753953472174808 1.6701319909071272e-07 3.0939792663226637e-07 1.6701319909071272e-07 0.020753826913750464" free_energy=-11287.64761112577 pbc="T T T"
In      10.73246184       5.79341709       4.00027309        0      -0.00448963      -0.00242352      -0.00167340
In       8.06327192       4.35257987       3.00539523        1       0.00448963       0.00242352       0.00167340
In       4.46721726       2.41141811       1.66505032        2      -0.00448963      -0.00242352      -0.00167340
In       1.79802733       0.97058088       0.67017246        3       0.00448963       0.00242352       0.00167340
O        6.10803290       2.35035056       0.24402682        4      -0.00000000       0.00226366      -0.00327836
O        7.21397331       5.18353575       1.18783721        5      -0.00189243       0.00350578       0.00000000
O        8.29192647       2.23981330       2.55902378        6       0.00189243      -0.00124212      -0.00327836
O        4.23856270       4.52418468       2.11142178        7      -0.00189243       0.00124212       0.00327836
O        6.42245628       4.41364741       4.42641873        8       0.00000000      -0.00226366       0.00327836
O        5.31651587       1.58046223       3.48260834        9       0.00189243      -0.00350578       0.00000000
