10
Lattice="5.496092803096954 -0.07082614252932944 -0.04890445616951977 2.9566151794780726 4.633624836259353 -0.04890445616953542 2.956615179478069 1.5959902917023885 4.350366163649285" Properties=species:S:1:pos:R:3:spacegroup_kinds:I:1:forces:R:3 spacegroup="P 1" unit_cell=conventional occupancy="_JSON {\"0\": {\"In\": 1}, \"1\": {\"In\": 1}, \"2\": {\"In\": 1}, \"3\": {\"In\": 1}, \"4\": {\"O\": 1}, \"5\": {\"O\": 1}, \"6\": {\"O\": 1}, \"7\": {\"O\": 1}, \"8\": {\"O\": 1}, \"9\": {\"O\": 1}}" n_minim_iter=6 energy=-11286.462069690431 stress="-0.15408405399984487 1.8671092030325258e-06 1.289213275565822e-06 1.8671092030325258e-06 -0.15408650499713966 6.959213850005561e-07 1.289213275565822e-06 6.959213850005561e-07 -0.1540870323454921" free_energy=-11286.462069690431 pbc="T T T"
In       9.84774540       5.31584434       3.67051582        0       0.00066161       0.00035714       0.00024660
In       7.26623935       3.92233915       2.70832006        1      -0.00066161      -0.00035714      -0.00024660
In       4.14308382       2.23644985       1.54423719        2       0.00066161       0.00035714       0.00024660
In       1.56157777       0.84294466       0.58204144        3      -0.00066161      -0.00035714      -0.00024660
O        5.60037720       2.15594339       0.09491812        4       0.00000000      -0.00026182       0.00037918
O        6.53389444       4.83033545       1.01423486        5       0.00021888      -0.00040549      -0.00000000
O        7.62347513       1.94469968       2.27010120        6      -0.00021888       0.00014367       0.00037918
O        3.78584804       4.21408931       1.98245605        7       0.00021888      -0.00014367      -0.00037918
O        5.80894597       4.00284561       4.15763914        8      -0.00000000       0.00026182      -0.00037918
O        4.87542873       1.32845354       3.23832240        9      -0.00021888       0.00040549      -0.00000000
