10
Lattice="5.639515494618193 -0.03269861473382063 -0.02257793399368136 3.067189146827694 4.732605513987675 -0.02257793399368655 3.067189146827692 1.6556784714932216 4.433598257980065" Properties=species:S:1:pos:R:3:spacegroup_kinds:I:1:forces:R:3 spacegroup="P 1" unit_cell=conventional occupancy="_JSON {\"0\": {\"In\": 1}, \"1\": {\"In\": 1}, \"2\": {\"In\": 1}, \"3\": {\"In\": 1}, \"4\": {\"O\": 1}, \"5\": {\"O\": 1}, \"6\": {\"O\": 1}, \"7\": {\"O\": 1}, \"8\": {\"O\": 1}, \"9\": {\"O\": 1}}" n_minim_iter=5 energy=-11287.277865728818 stress="-0.08899456778766332 7.257591137715125e-05 5.01126479944636e-05 7.257591137715125e-05 -0.08908983991992885 2.7050966320241117e-05 5.01126479944636e-05 2.7050966320241117e-05 -0.08911033831615271" free_energy=-11287.277865728818 pbc="T T T"
In      10.11226695       5.45863392       3.76911001        0       0.00348521       0.00188133       0.00129903
In       7.54857374       4.07474415       2.81355358        1      -0.00348521      -0.00188133      -0.00129903
In       4.22532006       2.28084123       1.57488882        2       0.00348521       0.00188133       0.00129903
In       1.66162684       0.89695147       0.61933238        3      -0.00348521      -0.00188133      -0.00129903
O        5.76323120       2.21303842       0.15822654        4      -0.00000000      -0.00521221       0.00754862
O        6.76137179       4.93079279       1.07453267        5       0.00435744      -0.00807227      -0.00000000
O        7.83227976       2.04893467       2.37502567        6      -0.00435744       0.00286006       0.00754862
O        3.94161404       4.30665072       2.01341673        7       0.00435744      -0.00286006      -0.00754862
O        6.01066260       4.14254696       4.23021586        8      -0.00000000       0.00521221      -0.00754862
O        5.01252201       1.42479259       3.31390973        9      -0.00435744       0.00807227      -0.00000000
