10
Lattice="5.830760947575802 0.006548026179227352 0.004521320064079833 3.204940092250841 4.870952176885446 0.004521320064074715 3.2049400922508378 1.7300368706160214 4.5533688603219185" Properties=species:S:1:pos:R:3:spacegroup_kinds:I:1:forces:R:3 spacegroup="P 1" unit_cell=conventional occupancy="_JSON {\"0\": {\"In\": 1}, \"1\": {\"In\": 1}, \"2\": {\"In\": 1}, \"3\": {\"In\": 1}, \"4\": {\"O\": 1}, \"5\": {\"O\": 1}, \"6\": {\"O\": 1}, \"7\": {\"O\": 1}, \"8\": {\"O\": 1}, \"9\": {\"O\": 1}}" n_minim_iter=1 energy=-11287.683689578505 stress="9.111073318482583e-06 7.92799832611963e-06 5.474170895510519e-06 7.92799832611963e-06 -1.2961989461880601e-06 2.954974759626336e-06 5.474170895510519e-06 2.954974759626336e-06 -3.5353873504584033e-06" free_energy=-11287.683689578505 pbc="T T T"
In      10.49249833       5.66388402       3.91083233        0       0.00441524       0.00238336       0.00164568
In       7.86846338       4.24742160       2.93278493        1      -0.00441524      -0.00238336      -0.00164568
In       4.37217777       2.36011549       1.62962658        2       0.00441524       0.00238336       0.00164568
In       1.74814281       0.94365306       0.65157918        3      -0.00441524      -0.00238336      -0.00164568
O        5.97554076       2.29476189       0.21655417        4       0.00000000       0.00051228      -0.00074191
O        7.04329901       5.08120245       1.14512420        5      -0.00042827       0.00079338      -0.00000000
O        8.11272261       2.16921225       2.49323860        6       0.00042827      -0.00028110      -0.00074191
O        4.12791853       4.43832483       2.06917291        7      -0.00042827       0.00028110       0.00074191
O        6.26510038       4.31277519       4.34585734        8       0.00000000      -0.00051228       0.00074191
O        5.19734213       1.52633464       3.41728731        9       0.00042827      -0.00079338      -0.00000000
