40
Lattice="8.690233812469776 6.811170186041414e-10 3.521272085809896e-15 -2.8967446047987573 8.19323101163163 -1.1797278254777894e-09 -2.8967446038355154 -4.096615505134698 7.095546195933963" Properties=species:S:1:pos:R:3:spacegroup_kinds:I:1:forces:R:3 spacegroup="P 1" unit_cell=conventional occupancy="_JSON {\"0\": {\"In\": 1}, \"1\": {\"In\": 1}, \"2\": {\"In\": 1}, \"3\": {\"In\": 1}, \"4\": {\"In\": 1}, \"5\": {\"In\": 1}, \"6\": {\"In\": 1}, \"7\": {\"In\": 1}, \"8\": {\"In\": 1}, \"9\": {\"In\": 1}, \"10\": {\"In\": 1}, \"11\": {\"In\": 1}, \"12\": {\"In\": 1}, \"13\": {\"In\": 1}, \"14\": {\"In\": 1}, \"15\": {\"In\": 1}, \"16\": {\"O\": 1}, \"17\": {\"O\": 1}, \"18\": {\"O\": 1}, \"19\": {\"O\": 1}, \"20\": {\"O\": 1}, \"21\": {\"O\": 1}, \"22\": {\"O\": 1}, \"23\": {\"O\": 1}, \"24\": {\"O\": 1}, \"25\": {\"O\": 1}, \"26\": {\"O\": 1}, \"27\": {\"O\": 1}, \"28\": {\"O\": 1}, \"29\": {\"O\": 1}, \"30\": {\"O\": 1}, \"31\": {\"O\": 1}, \"32\": {\"O\": 1}, \"33\": {\"O\": 1}, \"34\": {\"O\": 1}, \"35\": {\"O\": 1}, \"36\": {\"O\": 1}, \"37\": {\"O\": 1}, \"38\": {\"O\": 1}, \"39\": {\"O\": 1}}" n_minim_iter=5 energy=-45151.01240558663 stress="-0.05417747703567881 -3.1799048583232414e-13 -3.1435468266823554e-13 -3.1799048583232414e-13 -0.05417747703475914 8.178609978851412e-14 -3.1435468266823554e-13 8.178609978851412e-14 -0.05417747703486331" free_energy=-45151.01240558663 pbc="T T T"
In      -4.14634634       2.93190961       5.56510288        0       0.00517776      -0.00366123       0.00634144
In       7.04309094       1.16470590       1.53044331        1      -0.00517776       0.00366123      -0.00634144
In       1.24960173      -0.88360186       5.07821641        2      -0.00517776       0.00366123      -0.00634144
In      -1.44837230      -2.04830775       3.54777310        3       0.00000000       0.00000000       0.00000000
In      -1.24960173       3.95606349       3.30432986        4       0.00517776      -0.00366123      -0.00634144
In       4.54388748      -2.79135759       5.32165964        5       0.00517776       0.00732246       0.00000000
In      -1.24960173       1.30525792       5.32165964        6       0.00517776       0.00732246      -0.00000000
In      -1.64714288       6.88797310       1.77388655        7      -0.00517776      -0.00732246       0.00000000
In       4.14634633       0.14055202       3.79121633        8      -0.00517776       0.00366123       0.00634144
In      -1.44837230       4.09661551      -0.00000000        9       0.00000000      -0.00000000       0.00000000
In       4.14634633       6.28547528       0.24344323       10      -0.00517776       0.00366123       0.00634144
In      -1.24960173      -2.18885977       6.85210296       11       0.00517776      -0.00366123      -0.00634144
In       4.14634633       2.79135759       1.77388655       12      -0.00517776      -0.00732246       0.00000000
In       1.64714287       4.98021737       2.01732978       13       0.00517776      -0.00366123       0.00634144
In       4.34511690       0.00000000      -0.00000000       14      -0.00000000      -0.00000000      -0.00000000
In       1.44837230       2.04830776       3.54777310       15       0.00000000       0.00000000      -0.00000000
O        0.85025575       4.09470123       3.87184709       16       0.00213559       0.00181965      -0.00573759
O       -2.04648885       3.35407509       5.16128046       17       0.00213559      -0.00587872       0.00129293
O       -0.41846004       2.20288487       0.05965420       18      -0.00311506      -0.00216595      -0.00513779
O       -0.85025576      -0.74445470       1.93758136       19      -0.00213559      -0.00405907      -0.00444466
O        3.84441526       4.87551158       1.87792716       20      -0.00625438       0.00109277       0.00069313
O        1.94907394       2.85973092       1.61350736       21       0.00625438      -0.00005388       0.00129293
O        1.94907394       6.11239617       0.26441979       22       0.00625438       0.00114665      -0.00059980
O       -2.21638646       5.80515621       3.60742730       23       0.00100372       0.00365889      -0.00513779
O        3.31520464       1.89373064       7.03589199       24       0.00311506       0.00216595       0.00513779
O        5.11313106      -1.70854070       3.48811889       25      -0.00100372      -0.00365889       0.00513779
O        6.21194924       3.20141225       1.66984594       26       0.00311506      -0.00553243      -0.00069313
O        3.57710275       2.26985334       3.81219289       27       0.00100372      -0.00627890      -0.00059980
O        0.68035815       4.21483698       6.77147219       28       0.00100372       0.00262001       0.00573759
O        2.21638645      -0.11822147       0.32407400       29      -0.00100372      -0.00262001      -0.00573759
O       -3.31520464       0.89520326       5.42570025       30      -0.00311506       0.00553243       0.00069313
O        4.94323345       0.74254042       1.93426573       31      -0.00213559       0.00587872      -0.00129293
O        0.94767066       1.23688459       5.48203883       32      -0.00625438       0.00005388      -0.00129293
O        3.31520464      -0.99852737       5.48535446       33       0.00311506       0.00336648      -0.00444466
O        2.04648885       0.00191428       3.22369910       34      -0.00213559      -0.00181965       0.00573759
O        0.94767066      -2.01578066       6.83112640       35      -0.00625438      -0.00114665       0.00059980
O       -0.68035815       1.82676217       3.28335330       36      -0.00100372       0.00627890       0.00059980
O       -0.94767066      -0.77889607       5.21761903       37       0.00625438      -0.00109277      -0.00069313
O       -0.41846004       5.09514288       1.61019173       38      -0.00311506      -0.00336648       0.00444466
O        3.74700036       4.84107021       5.15796483       39       0.00213559       0.00405907       0.00444466
