40
Lattice="9.411600974122736 7.376517174861891e-10 1.154631945610165e-14 -3.1372003254030423 8.873342493919585 -1.2776739666264825e-09 -3.137200324359855 -4.436671246222125 7.6845400170661" Properties=species:S:1:pos:R:3:spacegroup_kinds:I:1:forces:R:3 spacegroup="P 1" unit_cell=conventional occupancy="_JSON {\"0\": {\"In\": 1}, \"1\": {\"In\": 1}, \"2\": {\"In\": 1}, \"3\": {\"In\": 1}, \"4\": {\"In\": 1}, \"5\": {\"In\": 1}, \"6\": {\"In\": 1}, \"7\": {\"In\": 1}, \"8\": {\"In\": 1}, \"9\": {\"In\": 1}, \"10\": {\"In\": 1}, \"11\": {\"In\": 1}, \"12\": {\"In\": 1}, \"13\": {\"In\": 1}, \"14\": {\"In\": 1}, \"15\": {\"In\": 1}, \"16\": {\"O\": 1}, \"17\": {\"O\": 1}, \"18\": {\"O\": 1}, \"19\": {\"O\": 1}, \"20\": {\"O\": 1}, \"21\": {\"O\": 1}, \"22\": {\"O\": 1}, \"23\": {\"O\": 1}, \"24\": {\"O\": 1}, \"25\": {\"O\": 1}, \"26\": {\"O\": 1}, \"27\": {\"O\": 1}, \"28\": {\"O\": 1}, \"29\": {\"O\": 1}, \"30\": {\"O\": 1}, \"31\": {\"O\": 1}, \"32\": {\"O\": 1}, \"33\": {\"O\": 1}, \"34\": {\"O\": 1}, \"35\": {\"O\": 1}, \"36\": {\"O\": 1}, \"37\": {\"O\": 1}, \"38\": {\"O\": 1}, \"39\": {\"O\": 1}}" n_minim_iter=6 energy=-45145.67728230568 stress="0.09813156607890837 1.0033871798466453e-12 -4.570216901105359e-13 1.0033871798466453e-12 0.0981315660797933 3.012063135833595e-14 -4.570216901105359e-13 3.012063135833595e-14 0.09813156607866298" free_energy=-45145.67728230568 pbc="T T T"
In      -4.46405621       3.15656442       6.05948008        0      -0.00547912       0.00387432      -0.00671052
In       7.60125653       1.28010683       1.62505993        1       0.00547912      -0.00387432       0.00671052
In       1.32685588      -0.93822879       5.46732994        2       0.00547912      -0.00387432       0.00671052
In      -1.56860016      -2.21833562       3.84227001        3       0.00000000       0.00000000       0.00000000
In      -1.32685588       4.26573223       3.54619494        4      -0.00547912       0.00387432       0.00671052
In       4.94754477      -2.98562539       5.76340501        5      -0.00547912      -0.00774864      -0.00000000
In      -1.32685588       1.45104585       5.76340501        6      -0.00547912      -0.00774864       0.00000000
In      -1.81034444       7.42229665       1.92113500        7       0.00547912       0.00774864       0.00000000
In       4.46405621       0.17093902       4.13834507        8       0.00547912      -0.00387432      -0.00671052
In      -1.56860016       4.43667125      -0.00000000        9      -0.00000000      -0.00000000      -0.00000000
In       4.46405621       6.82594589       0.29607506       10       0.00547912      -0.00387432      -0.00671052
In      -1.32685588      -2.38927464       7.38846495       11      -0.00547912       0.00387432       0.00671052
In       4.46405621       2.98562540       1.92113500       12       0.00547912       0.00774864      -0.00000000
In       1.81034444       5.37490004       2.21721007       13      -0.00547912       0.00387432      -0.00671052
In       4.70580049       0.00000000      -0.00000000       14      -0.00000000       0.00000000       0.00000000
In       1.56860016       2.21833563       3.84227001       15       0.00000000      -0.00000000       0.00000000
O        0.99390128       4.45103759       4.14579472       16       0.00255158       0.00127149      -0.00306064
O       -2.14329905       3.58318038       5.59920104       17       0.00255158      -0.00328634       0.00042918
O       -0.45983377       2.39279066      -0.02352351       18      -0.00104909      -0.00074028      -0.00398073
O       -0.99390128      -0.83912453       2.06045574       19      -0.00255158      -0.00201485      -0.00263146
O        4.09268787       5.26221447       2.08397925       20      -0.00394892      -0.00028343       0.00134926
O        2.18171277       3.04466389       1.75693103       21       0.00394892      -0.00131021       0.00042918
O        2.18171277       6.65422184       0.32704822       22       0.00394892       0.00102678       0.00092009
O       -2.40922260       6.29094542       3.81874650       23       0.00034824       0.00123585      -0.00398073
O        3.59703409       2.04388059       7.70806352       24       0.00104909       0.00074028       0.00398073
O        5.54642292      -1.85427417       3.86579351       25      -0.00034824      -0.00123585       0.00398073
O        6.73423441       3.39435900       1.75829075       26       0.00104909      -0.00381755      -0.00134926
O        3.86517805       2.37999440       4.16931823       27       0.00034824      -0.00406534       0.00092009
O        0.72797773       4.63907393       7.38101530       28       0.00034824       0.00282949       0.00306064
O        2.40922259      -0.20240268       0.30352471       29      -0.00034824      -0.00282949      -0.00306064
O       -3.59703409       1.04231225       5.92624926       30      -0.00104909       0.00381755       0.00134926
O        5.28049937       0.85349087       2.08533897       31      -0.00255158       0.00328634      -0.00042918
O        0.95548755       1.39200737       5.92760898       32      -0.00394892       0.00131021      -0.00042918
O        3.59703409      -1.00156833       5.90272575       33       0.00104909       0.00307727      -0.00263146
O        2.14329905      -0.01436634       3.53874529       34      -0.00255158      -0.00127149       0.00306064
O        0.95548755      -2.21755059       7.35749179       35      -0.00394892      -0.00102678      -0.00092009
O       -0.72797773       2.05667685       3.51522178       36      -0.00034824       0.00406534      -0.00092009
O       -0.95548755      -0.82554322       5.60056076       37       0.00394892       0.00028343      -0.00134926
O       -0.45983377       5.43823958       1.78181426       38      -0.00104909      -0.00307727       0.00263146
O        4.13110160       5.27579578       5.62408427       39       0.00255158       0.00201485       0.00263146
