40
Lattice="9.136651050972265 7.161062853811018e-10 3.552713678800501e-15 -3.045550350999241 8.61411722039821 -1.2403367222191264e-09 -3.0455503499865153 -4.307058609482997 7.460044344868736" Properties=species:S:1:pos:R:3:spacegroup_kinds:I:1:forces:R:3 spacegroup="P 1" unit_cell=conventional occupancy="_JSON {\"0\": {\"In\": 1}, \"1\": {\"In\": 1}, \"2\": {\"In\": 1}, \"3\": {\"In\": 1}, \"4\": {\"In\": 1}, \"5\": {\"In\": 1}, \"6\": {\"In\": 1}, \"7\": {\"In\": 1}, \"8\": {\"In\": 1}, \"9\": {\"In\": 1}, \"10\": {\"In\": 1}, \"11\": {\"In\": 1}, \"12\": {\"In\": 1}, \"13\": {\"In\": 1}, \"14\": {\"In\": 1}, \"15\": {\"In\": 1}, \"16\": {\"O\": 1}, \"17\": {\"O\": 1}, \"18\": {\"O\": 1}, \"19\": {\"O\": 1}, \"20\": {\"O\": 1}, \"21\": {\"O\": 1}, \"22\": {\"O\": 1}, \"23\": {\"O\": 1}, \"24\": {\"O\": 1}, \"25\": {\"O\": 1}, \"26\": {\"O\": 1}, \"27\": {\"O\": 1}, \"28\": {\"O\": 1}, \"29\": {\"O\": 1}, \"30\": {\"O\": 1}, \"31\": {\"O\": 1}, \"32\": {\"O\": 1}, \"33\": {\"O\": 1}, \"34\": {\"O\": 1}, \"35\": {\"O\": 1}, \"36\": {\"O\": 1}, \"37\": {\"O\": 1}, \"38\": {\"O\": 1}, \"39\": {\"O\": 1}}" n_minim_iter=1 energy=-45150.316190155536 stress="0.06522781228792982 -2.0765791523956406e-13 2.3166037850079325e-13 -2.0765791523956406e-13 0.06522781228830056 -2.313526327946291e-13 2.3166037850079325e-13 -2.313526327946291e-13 0.0652278122870788" free_energy=-45150.316190155536 pbc="T T T"
In      -4.36283044       3.08498699       5.84671231        0       0.00931877      -0.00658936       0.01141311
In       7.40838079       1.22207162       1.61333203        1      -0.00931877       0.00658936      -0.01141311
In       1.31728009      -0.93145768       5.34335420        2      -0.00931877       0.00658936      -0.01141311
In      -1.52277518      -2.15352930       3.73002217        3      -0.00000000      -0.00000000      -0.00000000
In      -1.31728009       4.16175164       3.47834312        4       0.00931877      -0.00658936      -0.01141311
In       4.77382061      -2.93968002       5.59503326        5       0.00931877       0.01317873      -0.00000000
In      -1.31728009       1.36737859       5.59503326        6       0.00931877       0.01317873       0.00000000
In      -1.72827026       7.24673863       1.86501108        7      -0.00931877      -0.01317873      -0.00000000
In       4.36283044       0.14530697       3.98170122        8      -0.00931877       0.00658936       0.01141311
In      -1.52277518       4.30705861      -0.00000000        9      -0.00000000      -0.00000000       0.00000000
In       4.36283044       6.60589489       0.25167905       10      -0.00931877       0.00658936       0.01141311
In      -1.31728009      -2.29883627       7.20836529       11       0.00931877      -0.00658936      -0.01141311
In       4.36283044       2.93968002       1.86501108       12      -0.00931877      -0.01317873      -0.00000000
In       1.72827026       5.23851630       2.11669014       13       0.00931877      -0.00658936       0.01141311
In       4.56832552       0.00000000      -0.00000000       14      -0.00000000       0.00000000      -0.00000000
In       1.52277517       2.15352931       3.73002217       15       0.00000000       0.00000000      -0.00000000
O        0.89898780       4.31076709       4.04996013       16       0.01019283      -0.00051344      -0.03940772
O       -2.14656255       3.50551412       5.43185263       17       0.01019283      -0.03387137       0.02014851
O       -0.45254440       2.30766240       0.04654833       18      -0.02902069      -0.00614322      -0.02787806
O       -0.89898781      -0.79783601       2.02176843       19      -0.01019283      -0.03438480      -0.01925921
O        4.02055125       5.13176931       1.97522010       20      -0.03533184       0.01828940       0.00861885
O        2.07054944       3.00882318       1.70183046       21       0.03533184       0.00168056       0.02014851
O        2.07054944       6.43000475       0.27338963       22       0.03533184       0.01660884      -0.01152966
O       -2.32653311       6.11803007       3.77657050       23      -0.00388168       0.02940871      -0.02787806
O        3.49809475       1.99939621       7.41349601       24       0.02902069       0.00614322       0.02787806
O        5.37208346      -1.81097146       3.68347384       25       0.00388168      -0.02940871       0.02787806
O        6.54364510       3.34767254       1.75480207       26       0.02902069      -0.02721471      -0.00861885
O        3.76456759       2.36512027       4.00341180       27      -0.00388168      -0.03884746      -0.01152966
O        0.71901724       4.43802550       7.14010638       28      -0.00388168       0.00943875       0.03940772
O        2.32653311      -0.13096689       0.31993796       29       0.00388168      -0.00943875      -0.03940772
O       -3.49809475       0.95938607       5.70524227       30      -0.02902069       0.02721471       0.00861885
O        5.19211289       0.80154449       2.02819170       31      -0.01019283       0.03387137      -0.02014851
O        0.97500090       1.29823544       5.75821388       32      -0.03533184      -0.00168056      -0.02014851
O        3.49809475      -1.04001014       5.75179060       33       0.02902069       0.02107150      -0.01925921
O        2.14656254      -0.00370848       3.41008421       34      -0.01019283       0.00051344       0.03940772
O        0.97500090      -2.12294613       7.18665471       35      -0.03533184      -0.01660884       0.01152966
O       -0.71901724       1.94193835       3.45663254       36       0.00388168       0.03884746       0.01152966
O       -0.97500091      -0.82471070       5.48482424       37       0.03533184      -0.01828940      -0.00861885
O       -0.45254440       5.34706875       1.70825374       38      -0.02902069      -0.02107150       0.01925921
O        3.94453815       5.10489462       5.43827591       39       0.01019283       0.03438480       0.01925921
40
Lattice="9.136651050972263 7.161062853811022e-10 3.552713678800506e-15 -3.045550350999243 8.614117220398208 -1.2403367222191266e-09 -3.045550349986517 -4.307058609482996 7.460044344868739" Properties=species:S:1:pos:R:3:spacegroup_kinds:I:1:forces:R:3 spacegroup="P 1" unit_cell=conventional occupancy="_JSON {\"0\": {\"In\": 1}, \"1\": {\"In\": 1}, \"2\": {\"In\": 1}, \"3\": {\"In\": 1}, \"4\": {\"In\": 1}, \"5\": {\"In\": 1}, \"6\": {\"In\": 1}, \"7\": {\"In\": 1}, \"8\": {\"In\": 1}, \"9\": {\"In\": 1}, \"10\": {\"In\": 1}, \"11\": {\"In\": 1}, \"12\": {\"In\": 1}, \"13\": {\"In\": 1}, \"14\": {\"In\": 1}, \"15\": {\"In\": 1}, \"16\": {\"O\": 1}, \"17\": {\"O\": 1}, \"18\": {\"O\": 1}, \"19\": {\"O\": 1}, \"20\": {\"O\": 1}, \"21\": {\"O\": 1}, \"22\": {\"O\": 1}, \"23\": {\"O\": 1}, \"24\": {\"O\": 1}, \"25\": {\"O\": 1}, \"26\": {\"O\": 1}, \"27\": {\"O\": 1}, \"28\": {\"O\": 1}, \"29\": {\"O\": 1}, \"30\": {\"O\": 1}, \"31\": {\"O\": 1}, \"32\": {\"O\": 1}, \"33\": {\"O\": 1}, \"34\": {\"O\": 1}, \"35\": {\"O\": 1}, \"36\": {\"O\": 1}, \"37\": {\"O\": 1}, \"38\": {\"O\": 1}, \"39\": {\"O\": 1}}" n_minim_iter=2 energy=-45150.318177985304 stress="0.06501281361908165 6.33183055884198e-13 2.0651013248293345e-13 6.33183055884198e-13 0.0650128136187918 5.329139266295441e-13 2.0651013248293345e-13 5.329139266295441e-13 0.06501281361878358" free_energy=-45150.318177985304 pbc="T T T"
In      -4.36216481       3.08451632       5.84752753        0      -0.00085641       0.00060557      -0.00104888
In       7.40771516       1.22254229       1.61251681        1       0.00085641      -0.00060557       0.00104888
In       1.31661446      -0.93098701       5.34253898        2       0.00085641      -0.00060557       0.00104888
In      -1.52277518      -2.15352930       3.73002217        3      -0.00000000       0.00000000      -0.00000000
In      -1.31661446       4.16128097       3.47752789        4      -0.00085641       0.00060557       0.00104888
In       4.77448624      -2.93873868       5.59503326        5      -0.00085641      -0.00121114      -0.00000000
In      -1.31661446       1.36831993       5.59503326        6      -0.00085641      -0.00121114      -0.00000000
In      -1.72893589       7.24579729       1.86501108        7       0.00085641       0.00121114       0.00000000
In       4.36216481       0.14577764       3.98251644        8       0.00085641      -0.00060557      -0.00104888
In      -1.52277518       4.30705861      -0.00000000        9       0.00000000       0.00000000       0.00000000
In       4.36216481       6.60636556       0.25249427       10       0.00085641      -0.00060557      -0.00104888
In      -1.31661446      -2.29930694       7.20755007       11      -0.00085641       0.00060557       0.00104888
In       4.36216481       2.93873868       1.86501108       12       0.00085641       0.00121114       0.00000000
In       1.72893589       5.23804563       2.11750536       13      -0.00085641       0.00060557      -0.00104888
In       4.56832552       0.00000000      -0.00000000       14      -0.00000000      -0.00000000       0.00000000
In       1.52277517       2.15352931       3.73002217       15      -0.00000000      -0.00000000      -0.00000000
O        0.89971586       4.31073042       4.04714529       16       0.01237576       0.00695892      -0.01070800
O       -2.14583449       3.50309474       5.43329181       17       0.01237576      -0.01275285      -0.00067260
O       -0.45461731       2.30722360       0.04455704       18      -0.00133732      -0.00305624      -0.01746763
O       -0.89971587      -0.80029206       2.02039277       19      -0.01237576      -0.00579394      -0.01138060
O        4.01802755       5.13307570       1.97583573       20      -0.01614876      -0.00429100       0.00608703
O        2.07307315       3.00894322       1.70326964       21       0.01614876      -0.00741703      -0.00067260
O        2.07307315       6.43119109       0.27256608       22       0.01614876       0.00312602       0.00675963
O       -2.32681038       6.12013069       3.77457921       23       0.00243568       0.00227959      -0.01746763
O        3.50016766       1.99983501       7.41548730       24       0.00133732       0.00305624       0.01746763
O        5.37236072      -1.81307208       3.68546513       25      -0.00243568      -0.00227959       0.01746763
O        6.54571801       3.34572863       1.75418644       26       0.00133732      -0.01665553      -0.00608703
O        3.76429032       2.36234545       4.00258826       27       0.00243568      -0.01626720       0.00675963
O        0.71873997       4.43869970       7.14292122       28       0.00243568       0.01398762       0.01070800
O        2.32681037      -0.13164108       0.31712312       29      -0.00243568      -0.01398762      -0.01070800
O       -3.50016766       0.96132998       5.70585790       30      -0.00133732       0.01665553       0.00608703
O        5.19138484       0.80396388       2.02675253       31      -0.01237576       0.01275285       0.00067260
O        0.97247720       1.29811540       5.75677470       32      -0.01614876       0.00741703       0.00067260
O        3.50016766      -1.03850503       5.75041494       33       0.00133732       0.01359929      -0.01138060
O        2.14583449      -0.00367181       3.41289904       34      -0.01237576      -0.00695892       0.01070800
O        0.97247720      -2.12413248       7.18747826       35      -0.01614876      -0.00312602      -0.00675963
O       -0.71873998       1.94471317       3.45745608       36      -0.00243568       0.01626720      -0.00675963
O       -0.97247720      -0.82601708       5.48420861       37       0.01614876       0.00429100      -0.00608703
O       -0.45461731       5.34556364       1.70962940       38      -0.00133732      -0.01359929       0.01138060
O        3.94526621       5.10735068       5.43965157       39       0.01237576       0.00579394       0.01138060
40
Lattice="9.136651050972263 7.161062853811023e-10 3.552713678800505e-15 -3.0455503509992434 8.614117220398208 -1.2403367222191266e-09 -3.0455503499865175 -4.307058609482996 7.46004434486874" Properties=species:S:1:pos:R:3:spacegroup_kinds:I:1:forces:R:3 spacegroup="P 1" unit_cell=conventional occupancy="_JSON {\"0\": {\"In\": 1}, \"1\": {\"In\": 1}, \"2\": {\"In\": 1}, \"3\": {\"In\": 1}, \"4\": {\"In\": 1}, \"5\": {\"In\": 1}, \"6\": {\"In\": 1}, \"7\": {\"In\": 1}, \"8\": {\"In\": 1}, \"9\": {\"In\": 1}, \"10\": {\"In\": 1}, \"11\": {\"In\": 1}, \"12\": {\"In\": 1}, \"13\": {\"In\": 1}, \"14\": {\"In\": 1}, \"15\": {\"In\": 1}, \"16\": {\"O\": 1}, \"17\": {\"O\": 1}, \"18\": {\"O\": 1}, \"19\": {\"O\": 1}, \"20\": {\"O\": 1}, \"21\": {\"O\": 1}, \"22\": {\"O\": 1}, \"23\": {\"O\": 1}, \"24\": {\"O\": 1}, \"25\": {\"O\": 1}, \"26\": {\"O\": 1}, \"27\": {\"O\": 1}, \"28\": {\"O\": 1}, \"29\": {\"O\": 1}, \"30\": {\"O\": 1}, \"31\": {\"O\": 1}, \"32\": {\"O\": 1}, \"33\": {\"O\": 1}, \"34\": {\"O\": 1}, \"35\": {\"O\": 1}, \"36\": {\"O\": 1}, \"37\": {\"O\": 1}, \"38\": {\"O\": 1}, \"39\": {\"O\": 1}}" n_minim_iter=3 energy=-45150.31847650741 stress="0.06491072585523064 -1.3992369985879512e-13 -4.036349191104134e-13 -1.3992369985879512e-13 0.06491072585623148 -2.7767455430466734e-14 -4.036349191104134e-13 -2.7767455430466734e-14 0.06491072585616925" free_energy=-45150.31847650741 pbc="T T T"
In      -4.36193226       3.08435188       5.84781236        0      -0.00444134       0.00314050      -0.00543951
In       7.40748260       1.22270674       1.61223198        1       0.00444134      -0.00314050       0.00543951
In       1.31638190      -0.93082257       5.34225416        2       0.00444134      -0.00314050       0.00543951
In      -1.52277518      -2.15352930       3.73002217        3       0.00000000       0.00000000      -0.00000000
In      -1.31638191       4.16111653       3.47724307        4      -0.00444134       0.00314050       0.00543951
In       4.77471880      -2.93840979       5.59503326        5      -0.00444134      -0.00628100       0.00000000
In      -1.31638191       1.36864882       5.59503326        6      -0.00444134      -0.00628100       0.00000000
In      -1.72916845       7.24546841       1.86501108        7       0.00444134       0.00628100      -0.00000000
In       4.36193225       0.14594208       3.98280127        8       0.00444134      -0.00314050      -0.00543951
In      -1.52277518       4.30705861      -0.00000000        9       0.00000000      -0.00000000      -0.00000000
In       4.36193225       6.60653000       0.25277910       10       0.00444134      -0.00314050      -0.00543951
In      -1.31638191      -2.29947138       7.20726524       11      -0.00444134       0.00314050       0.00543951
In       4.36193225       2.93840980       1.86501108       12       0.00444134       0.00628100       0.00000000
In       1.72916844       5.23788118       2.11779018       13      -0.00444134       0.00314050      -0.00543951
In       4.56832552       0.00000000      -0.00000000       14      -0.00000000       0.00000000       0.00000000
In       1.52277517       2.15352931       3.73002217       15       0.00000000       0.00000000      -0.00000000
O        0.90024113       4.31085825       4.04587024       16       0.01264012       0.00821641       0.00157559
O       -2.14530922       3.50192659       5.43381863       17       0.01264012      -0.00274370      -0.00790342
O       -0.45542303       2.30699661       0.04345373       18       0.00937309      -0.00043357      -0.01190469
O       -0.90024113      -0.80133237       2.01964453       19      -0.01264012       0.00547271      -0.00632783
O        4.01675113       5.13347901       1.97619080       20      -0.00680016      -0.01234589       0.00557687
O        2.07434957       3.00883737       1.70379646       21       0.00680016      -0.01100265      -0.00790342
O        2.07434957       6.43170025       0.27239434       22       0.00680016      -0.00134323       0.01348028
O       -2.32686494       6.12096600       3.77347590       23       0.00353313      -0.00869251      -0.01190469
O        3.50097338       2.00006200       7.41659061       24      -0.00937309       0.00043357       0.01190469
O        5.37241529      -1.81390739       3.68656844       25      -0.00353313       0.00869251       0.01190469
O        6.54652373       3.34465965       1.75383136       26      -0.00937309      -0.01052655      -0.00557687
O        3.76423576       2.36097230       4.00241651       27       0.00353313      -0.00596351       0.01348028
O        0.71868541       4.43923754       7.14419627       28       0.00353313       0.01465602      -0.00157559
O        2.32686494      -0.13217892       0.31584807       29      -0.00353313      -0.01465602       0.00157559
O       -3.50097338       0.96239897       5.70621298       30       0.00937309       0.01052655       0.00557687
O        5.19085957       0.80513202       2.02622571       31      -0.01264012       0.00274370       0.00790342
O        0.97120078       1.29822124       5.75624788       32      -0.00680016       0.01100265       0.00790342
O        3.50097338      -1.03766303       5.74966671       33      -0.00937309       0.01009298      -0.00632783
O        2.14530922      -0.00379964       3.41417410       34      -0.01264012      -0.00821641      -0.00157559
O        0.97120078      -2.12464164       7.18765000       35      -0.00680016       0.00134323      -0.01348028
O       -0.71868541       1.94608631       3.45762783       36      -0.00353313       0.00596351      -0.01348028
O       -0.97120078      -0.82642040       5.48385354       37       0.00680016       0.01234589      -0.00557687
O       -0.45542303       5.34472165       1.71037763       38       0.00937309      -0.01009298       0.00632783
O        3.94579148       5.10839099       5.44039980       39       0.01264012      -0.00547271       0.00632783
40
Lattice="9.136651050972265 7.161062853811027e-10 3.55271367880051e-15 -3.045550350999245 8.61411722039821 -1.2403367222191272e-09 -3.0455503499865193 -4.307058609482997 7.460044344868743" Properties=species:S:1:pos:R:3:spacegroup_kinds:I:1:forces:R:3 spacegroup="P 1" unit_cell=conventional occupancy="_JSON {\"0\": {\"In\": 1}, \"1\": {\"In\": 1}, \"2\": {\"In\": 1}, \"3\": {\"In\": 1}, \"4\": {\"In\": 1}, \"5\": {\"In\": 1}, \"6\": {\"In\": 1}, \"7\": {\"In\": 1}, \"8\": {\"In\": 1}, \"9\": {\"In\": 1}, \"10\": {\"In\": 1}, \"11\": {\"In\": 1}, \"12\": {\"In\": 1}, \"13\": {\"In\": 1}, \"14\": {\"In\": 1}, \"15\": {\"In\": 1}, \"16\": {\"O\": 1}, \"17\": {\"O\": 1}, \"18\": {\"O\": 1}, \"19\": {\"O\": 1}, \"20\": {\"O\": 1}, \"21\": {\"O\": 1}, \"22\": {\"O\": 1}, \"23\": {\"O\": 1}, \"24\": {\"O\": 1}, \"25\": {\"O\": 1}, \"26\": {\"O\": 1}, \"27\": {\"O\": 1}, \"28\": {\"O\": 1}, \"29\": {\"O\": 1}, \"30\": {\"O\": 1}, \"31\": {\"O\": 1}, \"32\": {\"O\": 1}, \"33\": {\"O\": 1}, \"34\": {\"O\": 1}, \"35\": {\"O\": 1}, \"36\": {\"O\": 1}, \"37\": {\"O\": 1}, \"38\": {\"O\": 1}, \"39\": {\"O\": 1}}" n_minim_iter=4 energy=-45150.31871455864 stress="0.06480326991188902 1.733397780895002e-13 -8.949063607831866e-13 1.733397780895002e-13 0.06480326991066765 -1.7156307845501895e-13 -8.949063607831866e-13 -1.7156307845501895e-13 0.06480326991255257" free_energy=-45150.31871455864 pbc="T T T"
In      -4.36193862       3.08435638       5.84780456        0      -0.00445075       0.00314715      -0.00545103
In       7.40748897       1.22270224       1.61223978        1       0.00445075      -0.00314715       0.00545103
In       1.31638827      -0.93082707       5.34226195        2       0.00445075      -0.00314715       0.00545103
In      -1.52277518      -2.15352930       3.73002217        3       0.00000000      -0.00000000      -0.00000000
In      -1.31638827       4.16112103       3.47725086        4      -0.00445075       0.00314715       0.00545103
In       4.77471243      -2.93841879       5.59503326        5      -0.00445075      -0.00629431       0.00000000
In      -1.31638827       1.36863982       5.59503326        6      -0.00445075      -0.00629431      -0.00000000
In      -1.72916209       7.24547740       1.86501108        7       0.00445075       0.00629431      -0.00000000
In       4.36193862       0.14593759       3.98279348        8       0.00445075      -0.00314715      -0.00545103
In      -1.52277518       4.30705861      -0.00000000        9      -0.00000000      -0.00000000       0.00000000
In       4.36193861       6.60652550       0.25277130       10       0.00445075      -0.00314715      -0.00545103
In      -1.31638827      -2.29946689       7.20727303       11      -0.00445075       0.00314715       0.00545103
In       4.36193862       2.93841879       1.86501108       12       0.00445075       0.00629431      -0.00000000
In       1.72916208       5.23788568       2.11778239       13      -0.00445075       0.00314715      -0.00545103
In       4.56832552       0.00000000      -0.00000000       14       0.00000000      -0.00000000       0.00000000
In       1.52277517       2.15352931       3.73002217       15       0.00000000      -0.00000000      -0.00000000
O        0.90156803       4.31147974       4.04456585       16       0.01027414       0.00259633       0.01176364
O       -2.14398232       3.50048622       5.43393261       17       0.01027414       0.00888944      -0.00813031
O       -0.45575280       2.30672767       0.04153871       18       0.01425360       0.00607553      -0.00325648
O       -0.90156804      -0.80215127       2.01845412       19      -0.01027414       0.01148577       0.00363333
O        4.01495082       5.13319227       1.97691540       20       0.00495633      -0.01336590       0.00688980
O        2.07614988       3.00806648       1.70391044       21      -0.00495633      -0.01264970      -0.00813031
O        2.07614988       6.43218441       0.27300496       22      -0.00495633      -0.00071621       0.01502011
O       -2.32672131       6.12136655       3.77156088       23      -0.00097686      -0.01546360      -0.00325648
O        3.50130314       2.00033094       7.41850563       24      -0.01425360      -0.00607553       0.00325648
O        5.37227165      -1.81430793       3.68848346       25       0.00097686       0.01546360       0.00325648
O        6.54685349       3.34286673       1.75310676       26      -0.01425360       0.00021757      -0.00688980
O        3.76437939       2.35911357       4.00302713       27      -0.00097686       0.00491161       0.01502011
O        0.71882904       4.44069572       7.14550066       28      -0.00097686       0.01055199      -0.01176364
O        2.32672130      -0.13363710       0.31454368       29       0.00097686      -0.01055199       0.01176364
O       -3.50130315       0.96419189       5.70693758       30       0.01425360      -0.00021757       0.00688980
O        5.18953266       0.80657240       2.02611173       31      -0.01027414      -0.00888944       0.00813031
O        0.96940047       1.29899213       5.75613390       32       0.00495633       0.01264970       0.00813031
O        3.50130314      -1.03613905       5.74847629       33      -0.01425360       0.00585796       0.00363333
O        2.14398231      -0.00442112       3.41547849       34      -0.01027414      -0.00259633      -0.01176364
O        0.96940047      -2.12512579       7.18703938       35       0.00495633       0.00071621      -0.01502011
O       -0.71882905       1.94794504       3.45701720       36       0.00097686      -0.00491161      -0.01502011
O       -0.96940047      -0.82613366       5.48312894       37      -0.00495633       0.01336590      -0.00688980
O       -0.45575280       5.34319766       1.71156805       38       0.01425360      -0.00585796      -0.00363333
O        3.94711838       5.10920989       5.44159022       39       0.01027414      -0.01148577      -0.00363333
40
Lattice="9.136651050972267 7.16106285381103e-10 3.552713678800508e-15 -3.0455503509992465 8.614117220398212 -1.240336722219128e-09 -3.0455503499865206 -4.307058609482998 7.460044344868747" Properties=species:S:1:pos:R:3:spacegroup_kinds:I:1:forces:R:3 spacegroup="P 1" unit_cell=conventional occupancy="_JSON {\"0\": {\"In\": 1}, \"1\": {\"In\": 1}, \"2\": {\"In\": 1}, \"3\": {\"In\": 1}, \"4\": {\"In\": 1}, \"5\": {\"In\": 1}, \"6\": {\"In\": 1}, \"7\": {\"In\": 1}, \"8\": {\"In\": 1}, \"9\": {\"In\": 1}, \"10\": {\"In\": 1}, \"11\": {\"In\": 1}, \"12\": {\"In\": 1}, \"13\": {\"In\": 1}, \"14\": {\"In\": 1}, \"15\": {\"In\": 1}, \"16\": {\"O\": 1}, \"17\": {\"O\": 1}, \"18\": {\"O\": 1}, \"19\": {\"O\": 1}, \"20\": {\"O\": 1}, \"21\": {\"O\": 1}, \"22\": {\"O\": 1}, \"23\": {\"O\": 1}, \"24\": {\"O\": 1}, \"25\": {\"O\": 1}, \"26\": {\"O\": 1}, \"27\": {\"O\": 1}, \"28\": {\"O\": 1}, \"29\": {\"O\": 1}, \"30\": {\"O\": 1}, \"31\": {\"O\": 1}, \"32\": {\"O\": 1}, \"33\": {\"O\": 1}, \"34\": {\"O\": 1}, \"35\": {\"O\": 1}, \"36\": {\"O\": 1}, \"37\": {\"O\": 1}, \"38\": {\"O\": 1}, \"39\": {\"O\": 1}}" n_minim_iter=5 energy=-45150.31901490705 stress="0.06485178342224801 -2.8569343358832613e-13 -4.0848964307972633e-13 -2.8569343358832613e-13 0.06485178342368539 -1.0288595103058009e-12 -4.0848964307972633e-13 -1.0288595103058009e-12 0.06485178342341338" free_energy=-45150.31901490705 pbc="T T T"
In      -4.36242821       3.08470257       5.84720494        0       0.00348642      -0.00246527       0.00426998
In       7.40797855       1.22235605       1.61283940        1      -0.00348642       0.00246527      -0.00426998
In       1.31687785      -0.93117326       5.34286157        2      -0.00348642       0.00246527      -0.00426998
In      -1.52277518      -2.15352930       3.73002217        3      -0.00000000       0.00000000       0.00000000
In      -1.31687786       4.16146722       3.47785048        4       0.00348642      -0.00246527      -0.00426998
In       4.77422284      -2.93911117       5.59503326        5       0.00348642       0.00493055      -0.00000000
In      -1.31687786       1.36794744       5.59503326        6       0.00348642       0.00493055       0.00000000
In      -1.72867250       7.24616979       1.86501108        7      -0.00348642      -0.00493055      -0.00000000
In       4.36242820       0.14559139       3.98219386        8      -0.00348642       0.00246527       0.00426998
In      -1.52277518       4.30705861      -0.00000000        9      -0.00000000      -0.00000000       0.00000000
In       4.36242820       6.60617931       0.25217168       10      -0.00348642       0.00246527       0.00426998
In      -1.31687786      -2.29912069       7.20787266       11       0.00348642      -0.00246527      -0.00426998
In       4.36242820       2.93911118       1.86501108       12      -0.00348642      -0.00493055      -0.00000000
In       1.72867249       5.23823187       2.11718277       13       0.00348642      -0.00246527       0.00426998
In       4.56832552       0.00000000      -0.00000000       14      -0.00000000       0.00000000       0.00000000
In       1.52277517       2.15352931       3.73002217       15       0.00000000      -0.00000000      -0.00000000
O        0.90277590       4.31212984       4.04521968       16       0.00541428      -0.00784928       0.00163039
O       -2.14277445       3.50072740       5.43304269       17       0.00541428       0.00533660       0.00598248
O       -0.45450986       2.30694406       0.04069174       18      -0.00056422       0.00956403      -0.00133965
O       -0.90277590      -0.80125998       2.01821803       19      -0.00541428      -0.00251268       0.00761287
O        4.01477559       5.13181199       1.97752628       20       0.00322663       0.00173924       0.00895252
O        2.07632510       3.00684730       1.70302052       21      -0.00322663      -0.00688349       0.00598248
O        2.07632510       6.43202330       0.27450576       22      -0.00322663       0.00862273       0.00297004
O       -2.32651101       6.12012257       3.77071391       23      -0.00920513      -0.00265606      -0.00133965
O        3.50006021       2.00011455       7.41935260       24       0.00056422      -0.00956403       0.00133965
O        5.37206135      -1.81306395       3.68933042       25       0.00920513       0.00265606       0.00133965
O        6.54561056       3.34224142       1.75249588       26       0.00056422       0.00362184      -0.00895252
O        3.76458969       2.35900207       4.00452794       27      -0.00920513       0.00016786       0.00297004
O        0.71903934       4.44205120       7.14484683       28      -0.00920513       0.00248820      -0.00163039
O        2.32651100      -0.13499259       0.31519751       29       0.00920513      -0.00248820       0.00163039
O       -3.50006021       0.96481719       5.70754846       30      -0.00056422      -0.00362184       0.00895252
O        5.18832480       0.80633121       2.02700165       31      -0.00541428      -0.00533660      -0.00598248
O        0.96922524       1.30021132       5.75702382       32       0.00322663       0.00688349      -0.00598248
O        3.50006021      -1.03529736       5.74824020       33       0.00056422       0.00594219       0.00761287
O        2.14277445      -0.00507122       3.41482466       34      -0.00541428       0.00784928      -0.00163039
O        0.96922524      -2.12496469       7.18553857       35       0.00322663      -0.00862273      -0.00297004
O       -0.71903935       1.94805655       3.45551640       36       0.00920513      -0.00016785      -0.00297004
O       -0.96922525      -0.82475337       5.48251805       37      -0.00322663      -0.00173924      -0.00895252
O       -0.45450986       5.34235597       1.71180414       38      -0.00056422      -0.00594219      -0.00761287
O        3.94832625       5.10831860       5.44182631       39       0.00541428       0.00251268      -0.00761287
