40
Lattice="8.36505626881321 6.556289155342168e-10 9.233531961414354e-15 -2.7883520902225345 7.8866506833612675 -1.1355898855025255e-09 -2.788352089295342 -3.943325341025003 6.830039843321812" Properties=species:S:1:pos:R:3:spacegroup_kinds:I:1:forces:R:3 spacegroup="P 1" unit_cell=conventional occupancy="_JSON {\"0\": {\"In\": 1}, \"1\": {\"In\": 1}, \"2\": {\"In\": 1}, \"3\": {\"In\": 1}, \"4\": {\"In\": 1}, \"5\": {\"In\": 1}, \"6\": {\"In\": 1}, \"7\": {\"In\": 1}, \"8\": {\"In\": 1}, \"9\": {\"In\": 1}, \"10\": {\"In\": 1}, \"11\": {\"In\": 1}, \"12\": {\"In\": 1}, \"13\": {\"In\": 1}, \"14\": {\"In\": 1}, \"15\": {\"In\": 1}, \"16\": {\"O\": 1}, \"17\": {\"O\": 1}, \"18\": {\"O\": 1}, \"19\": {\"O\": 1}, \"20\": {\"O\": 1}, \"21\": {\"O\": 1}, \"22\": {\"O\": 1}, \"23\": {\"O\": 1}, \"24\": {\"O\": 1}, \"25\": {\"O\": 1}, \"26\": {\"O\": 1}, \"27\": {\"O\": 1}, \"28\": {\"O\": 1}, \"29\": {\"O\": 1}, \"30\": {\"O\": 1}, \"31\": {\"O\": 1}, \"32\": {\"O\": 1}, \"33\": {\"O\": 1}, \"34\": {\"O\": 1}, \"35\": {\"O\": 1}, \"36\": {\"O\": 1}, \"37\": {\"O\": 1}, \"38\": {\"O\": 1}, \"39\": {\"O\": 1}}" n_minim_iter=5 energy=-45144.13929433077 stress="-0.21284074293253097 -4.854151913230912e-13 -2.674247425017657e-13 -4.854151913230912e-13 -0.2128407429324628 -3.8077843667920386e-13 -2.674247425017657e-13 -3.8077843667920386e-13 -0.21284074293329552" free_energy=-45144.13929433077 pbc="T T T"
In      -3.98875668       2.82047690       5.35985048        0      -0.00542607       0.00383681      -0.00664555
In       6.77710877       1.12284845       1.47018936        1       0.00542607      -0.00383681       0.00664555
In       1.20040459      -0.84881422       4.88520928        2       0.00542607      -0.00383681       0.00664555
In      -1.39417605      -1.97166267       3.41501992        3      -0.00000000       0.00000000      -0.00000000
In      -1.20040459       3.80630823       3.17769932        4      -0.00542607       0.00383681       0.00664555
In       4.37629959      -2.68345978       5.12252988        5      -0.00542607      -0.00767362       0.00000000
In      -1.20040459       1.25986556       5.12252988        6      -0.00542607      -0.00767362       0.00000000
In      -1.58794750       6.62678513       1.70750996        7       0.00542607       0.00767362      -0.00000000
In       3.98875668       0.13701711       3.65234051        8       0.00542607      -0.00383681      -0.00664555
In      -1.39417605       3.94332534      -0.00000000        9       0.00000000      -0.00000000      -0.00000000
In       3.98875668       6.05200512       0.23732059       10       0.00542607      -0.00383681      -0.00664555
In      -1.20040459      -2.10867978       6.59271925       11      -0.00542607       0.00383681       0.00664555
In       3.98875668       2.68345979       1.70750996       12       0.00542607       0.00767362       0.00000000
In       1.58794750       4.79213957       1.94483055       13      -0.00542607       0.00383681      -0.00664555
In       4.18252813       0.00000000      -0.00000000       14       0.00000000       0.00000000      -0.00000000
In       1.39417604       1.97166267       3.41501992       15       0.00000000       0.00000000      -0.00000000
O        0.79966628       3.93588743       3.74667712       16      -0.00352302       0.00469528      -0.00387213
O       -1.98868581       3.24843652       4.96314270       17      -0.00352302      -0.00570100      -0.00213017
O       -0.39560456       2.12195797       0.08422094       18      -0.00212254      -0.00669129      -0.00041495
O       -0.79966628      -0.70232673       1.87977998       19       0.00352302      -0.00100572      -0.00600230
O        3.72555059       4.69427706       1.79555903       20      -0.00420062       0.00076616      -0.00558735
O        1.85115358       2.76380146       1.54812278       21       0.00420062       0.00522187      -0.00213017
O        1.85115358       5.87380094       0.24743625       22       0.00420062      -0.00445571      -0.00345719
O       -2.13246935       5.58064825       3.49924086       23       0.00560109       0.00423158      -0.00041495
O        3.18395665       1.82136737       6.74581890       24       0.00212254       0.00669129       0.00041495
O        4.92082144      -1.63732290       3.33079898       25      -0.00560109      -0.00423158       0.00041495
O        5.97230874       3.10557914       1.61946088       26       0.00212254      -0.00370500       0.00558735
O        3.44423483       2.21177003       3.66245618       27       0.00560109      -0.00247515      -0.00345719
O        0.65588274       4.03755775       6.49838264       28       0.00560109      -0.00175644       0.00387213
O        2.13246935      -0.09423240       0.33165720       29      -0.00560109       0.00175644      -0.00387213
O       -3.18395665       0.83774621       5.21057895       30      -0.00212254       0.00370500      -0.00558735
O        4.77703790       0.69488882       1.86689714       31       0.00352302       0.00570100       0.00213017
O        0.93719850       1.17952388       5.28191706       32      -0.00420062      -0.00522187       0.00213017
O        3.18395665      -0.98362116       5.29479990       33       0.00212254      -0.00298629      -0.00600230
O        1.98868581       0.00743791       3.08336272       34       0.00352302      -0.00469528       0.00387213
O        0.93719850      -1.93047559       6.58260358       35      -0.00420062       0.00445571       0.00345719
O       -0.65588274       1.73155531       3.16758366       36      -0.00560109       0.00247515       0.00345719
O       -0.93719851      -0.75095171       5.03448081       37       0.00420062      -0.00076616       0.00558735
O       -0.39560456       4.92694651       1.53523994       38      -0.00212254       0.00298629       0.00600230
O        3.58801837       4.64565207       4.95025986       39      -0.00352302       0.00100572       0.00600230
