40
Lattice="9.607732174217224 7.530234213959403e-10 1.1102230246251684e-14 -3.2025773921156993 9.058256762699889 -1.3043028879167243e-09 -3.202577391050776 -4.5291283805969 7.84468047136982" Properties=species:S:1:pos:R:3:spacegroup_kinds:I:1:forces:R:3 spacegroup="P 1" unit_cell=conventional occupancy="_JSON {\"0\": {\"In\": 1}, \"1\": {\"In\": 1}, \"2\": {\"In\": 1}, \"3\": {\"In\": 1}, \"4\": {\"In\": 1}, \"5\": {\"In\": 1}, \"6\": {\"In\": 1}, \"7\": {\"In\": 1}, \"8\": {\"In\": 1}, \"9\": {\"In\": 1}, \"10\": {\"In\": 1}, \"11\": {\"In\": 1}, \"12\": {\"In\": 1}, \"13\": {\"In\": 1}, \"14\": {\"In\": 1}, \"15\": {\"In\": 1}, \"16\": {\"O\": 1}, \"17\": {\"O\": 1}, \"18\": {\"O\": 1}, \"19\": {\"O\": 1}, \"20\": {\"O\": 1}, \"21\": {\"O\": 1}, \"22\": {\"O\": 1}, \"23\": {\"O\": 1}, \"24\": {\"O\": 1}, \"25\": {\"O\": 1}, \"26\": {\"O\": 1}, \"27\": {\"O\": 1}, \"28\": {\"O\": 1}, \"29\": {\"O\": 1}, \"30\": {\"O\": 1}, \"31\": {\"O\": 1}, \"32\": {\"O\": 1}, \"33\": {\"O\": 1}, \"34\": {\"O\": 1}, \"35\": {\"O\": 1}, \"36\": {\"O\": 1}, \"37\": {\"O\": 1}, \"38\": {\"O\": 1}, \"39\": {\"O\": 1}}" n_minim_iter=9 energy=-45141.46897434502 stress="0.10828174447279694 4.1521785578083486e-13 -2.168024933345221e-13 4.1521785578083486e-13 0.10828174447379524 2.1881976336569821e-13 -2.168024933345221e-13 2.1881976336569821e-13 0.10828174447376814" free_energy=-45141.46897434502 pbc="T T T"
In      -4.53872994       3.20936672       6.20823448        0      -0.00176203       0.00124595      -0.00215804
In       7.74130733       1.31976166       1.63644598        1       0.00176203      -0.00124595       0.00215804
In       1.33615255      -0.94480253       5.55878622        2       0.00176203      -0.00124595       0.00215804
In      -1.60128870      -2.26456419       3.92234023        3       0.00000000       0.00000000      -0.00000000
In      -1.33615255       4.34164882       3.59761610        4      -0.00176203       0.00124595       0.00215804
In       5.06900223      -3.02188715       5.88351035        5      -0.00176203      -0.00249189      -0.00000000
In      -1.33615255       1.50724123       5.88351035        6      -0.00176203      -0.00249189       0.00000000
In      -1.86642484       7.55101554       1.96117011        7       0.00176203       0.00249189      -0.00000000
In       4.53872994       0.18747957       4.24706437        8       0.00176203      -0.00124595      -0.00215804
In      -1.60128870       4.52912838      -0.00000000        9      -0.00000000       0.00000000       0.00000000
In       4.53872994       6.98117214       0.32472413       10       0.00176203      -0.00124595      -0.00215804
In      -1.33615255      -2.45204375       7.51995634       11      -0.00176203       0.00124595       0.00215804
In       4.53872994       3.02188716       1.96117011       12       0.00176203       0.00249189       0.00000000
In       1.86642484       5.47393091       2.28589425       13      -0.00176203       0.00124595      -0.00215804
In       4.80386609       0.00000000      -0.00000000       14      -0.00000000      -0.00000000       0.00000000
In       1.60128869       2.26456419       3.92234023       15      -0.00000000      -0.00000000      -0.00000000
O        1.08420067       4.55586978       4.21930235       16      -0.00064715      -0.00148597       0.00067735
O       -2.11837672       3.64065233       5.71187056       17      -0.00064715       0.00132959       0.00094821
O       -0.45105101       2.46167501      -0.09076129       18      -0.00036315       0.00112877       0.00129604
O       -1.08420068      -0.86173466       2.08649245       19       0.00064715      -0.00015638       0.00162557
O        4.13856550       5.33846199       2.17725374       20       0.00146927       0.00090465       0.00032953
O        2.26658928       3.04823814       1.78953033       21      -0.00146927       0.00016694       0.00094821
O        2.26658928       6.81935223       0.38772340       22      -0.00146927       0.00073770      -0.00061868
O       -2.47123979       6.39838920       3.83157894       23      -0.00118527      -0.00003387       0.00129604
O        3.65362839       2.06745337       7.93544176       24       0.00036315      -0.00112877      -0.00129604
O        5.67381718      -1.86926082       4.01310152       25       0.00118527       0.00003387      -0.00129604
O        6.85620578       3.41680012       1.74508649       26       0.00036315       0.00168679      -0.00032953
O        3.93391499       2.38361430       4.31006364       27      -0.00118527       0.00113934      -0.00061868
O        0.73133760       4.80538165       7.54771835       28      -0.00118527      -0.00110547      -0.00067735
O        2.47123979      -0.27625327       0.29696212       29       0.00118527       0.00110547       0.00067735
O       -3.65362840       1.11232827       6.09959397       30      -0.00036315      -0.00168679       0.00032953
O        5.32095410       0.88847606       2.13280990       31       0.00064715      -0.00132959      -0.00094821
O        0.93598811       1.48089025       6.05515014       32       0.00146927      -0.00016694      -0.00094821
O        3.65362839      -0.95512510       6.00883268       33       0.00036315      -0.00055801       0.00162557
O        2.11837671      -0.02674139       3.62537812       34       0.00064715       0.00148597      -0.00067735
O        0.93598811      -2.29022385       7.45695706       35       0.00146927      -0.00073770       0.00061868
O       -0.73133760       2.14551409       3.53461683       36       0.00118527      -0.00113934       0.00061868
O       -0.93598811      -0.80933360       5.66742673       37      -0.00146927      -0.00090465      -0.00032953
O       -0.45105101       5.48425349       1.83584778       38      -0.00036315       0.00055801      -0.00162557
O        4.28677807       5.39086304       5.75818802       39      -0.00064715       0.00015638      -0.00162557
