40
Lattice="8.767829291565548 6.871987423551218e-10 3.552713678800501e-15 -2.92260976450308 8.26638873090699 -1.1902616670056432e-09 -2.9226097635312374 -4.133194364766297 7.158902639316368" Properties=species:S:1:pos:R:3:spacegroup_kinds:I:1:forces:R:3 spacegroup="P 1" unit_cell=conventional occupancy="_JSON {\"0\": {\"In\": 1}, \"1\": {\"In\": 1}, \"2\": {\"In\": 1}, \"3\": {\"In\": 1}, \"4\": {\"In\": 1}, \"5\": {\"In\": 1}, \"6\": {\"In\": 1}, \"7\": {\"In\": 1}, \"8\": {\"In\": 1}, \"9\": {\"In\": 1}, \"10\": {\"In\": 1}, \"11\": {\"In\": 1}, \"12\": {\"In\": 1}, \"13\": {\"In\": 1}, \"14\": {\"In\": 1}, \"15\": {\"In\": 1}, \"16\": {\"O\": 1}, \"17\": {\"O\": 1}, \"18\": {\"O\": 1}, \"19\": {\"O\": 1}, \"20\": {\"O\": 1}, \"21\": {\"O\": 1}, \"22\": {\"O\": 1}, \"23\": {\"O\": 1}, \"24\": {\"O\": 1}, \"25\": {\"O\": 1}, \"26\": {\"O\": 1}, \"27\": {\"O\": 1}, \"28\": {\"O\": 1}, \"29\": {\"O\": 1}, \"30\": {\"O\": 1}, \"31\": {\"O\": 1}, \"32\": {\"O\": 1}, \"33\": {\"O\": 1}, \"34\": {\"O\": 1}, \"35\": {\"O\": 1}, \"36\": {\"O\": 1}, \"37\": {\"O\": 1}, \"38\": {\"O\": 1}, \"39\": {\"O\": 1}}" n_minim_iter=1 energy=-45151.006294704246 stress="-0.05505725995358891 2.1877512624308068e-14 8.435867873400855e-14 2.1877512624308068e-14 -0.05505725995373626 -8.667179587884516e-13 8.435867873400855e-14 -8.667179587884516e-13 -0.05505725995368395" free_energy=-45151.006294704246 pbc="T T T"
In      -4.18668985       2.96043679       5.61072703        0       0.00976029      -0.00690157       0.01195386
In       7.10929962       1.17275758       1.54817560        1      -0.00976029       0.00690157      -0.01195386
In       1.26408009      -0.89383960       5.12762692        2      -0.00976029       0.00690157      -0.01195386
In      -1.46130488      -2.06659718       3.57945132        3      -0.00000000       0.00000000      -0.00000000
In      -1.26408009       3.99373538       3.33790126        4       0.00976029      -0.00690157      -0.01195386
In       4.58113944      -2.82097779       5.36917698        5       0.00976029       0.01380313       0.00000000
In      -1.26408009       1.31221657       5.36917698        6       0.00976029       0.01380313       0.00000000
In      -1.65852968       6.95417216       1.78972566        7      -0.00976029      -0.01380313       0.00000000
In       4.18668985       0.13945899       3.82100137        8      -0.00976029       0.00690157       0.01195386
In      -1.46130488       4.13319437      -0.00000000        9       0.00000000      -0.00000000      -0.00000000
In       4.18668985       6.33925054       0.24155005       10      -0.00976029       0.00690157       0.01195386
In      -1.26408009      -2.20605617       6.91735258       11       0.00976029      -0.00690157      -0.01195386
In       4.18668985       2.82097780       1.78972566       12      -0.00976029      -0.01380313       0.00000000
In       1.65852967       5.02703397       2.03127571       13       0.00976029      -0.00690157       0.01195386
In       4.38391464       0.00000000      -0.00000000       14       0.00000000       0.00000000       0.00000000
In       1.46130488       2.06659718       3.57945132       15       0.00000000      -0.00000000      -0.00000000
O        0.85884861       4.13190576       3.89873465       16      -0.00332793       0.00233373       0.06163380
O       -2.06376115       3.37704756       5.21065127       17      -0.00332793       0.05220957      -0.03283798
O       -0.42783409       2.22027244       0.05534192       18       0.05031461       0.01427857       0.03286046
O       -0.85884861      -0.75743541       1.95048329       19       0.00332793       0.05454331       0.02879583
O        3.87183135       4.92258145       1.89514137       20       0.05033297      -0.03557131      -0.00406463
O        1.97338817       2.88664734       1.63119995       21      -0.05033297      -0.01426559      -0.03283798
O        1.97338817       6.16912848       0.26394141       22      -0.05033297      -0.02130573       0.02877335
O       -2.23590429       5.86306658       3.63479324       23       0.00330958      -0.05219659       0.03286046
O        3.35044385       1.91292193       7.10356071       24      -0.05031461      -0.01427857      -0.03286046
O        5.15851405      -1.72987221       3.52410940       25      -0.00330958       0.05219659      -0.03286046
O        6.27305361       3.22466091       1.68430995       26      -0.05031461       0.03559727       0.00406463
O        3.60931524       2.28288718       3.84339273       27       0.00330958       0.05455629       0.02877335
O        0.68670547       4.25362934       6.83961930       28       0.00330958      -0.00235969      -0.06163380
O        2.23590429      -0.12043497       0.31928333       29      -0.00330958       0.00235969       0.06163380
O       -3.35044385       0.90853346       5.47459269       30       0.05031461      -0.03559727      -0.00406463
O        4.98637092       0.75614681       1.94825136       31       0.00332793      -0.05220957       0.03283798
O        0.94922159       1.24654703       5.52770268       32       0.05033297       0.01426558       0.03283798
O        3.35044385      -1.00438847       5.52993461       33      -0.05031461      -0.02131871       0.02879583
O        2.06376115       0.00128861       3.26016798       34       0.00332793      -0.00233373      -0.06163380
O        0.94922159      -2.03593411       6.89496122       35       0.05033297       0.02130573      -0.02877335
O       -0.68670548       1.85030719       3.31550990       36      -0.00330958      -0.05455629      -0.02877335
O       -0.94922159      -0.78938709       5.26376127       37      -0.05033297       0.03557131       0.00406463
O       -0.42783409       5.13758284       1.62896802       38       0.05031461       0.02131871      -0.02879583
O        3.78145837       4.89062978       5.20841934       39      -0.00332793      -0.05454331      -0.02879583
40
Lattice="8.76782929156555 6.871987423551219e-10 3.552713678800502e-15 -2.9226097645030804 8.266388730906991 -1.1902616670056434e-09 -2.922609763531238 -4.133194364766298 7.158902639316372" Properties=species:S:1:pos:R:3:spacegroup_kinds:I:1:forces:R:3 spacegroup="P 1" unit_cell=conventional occupancy="_JSON {\"0\": {\"In\": 1}, \"1\": {\"In\": 1}, \"2\": {\"In\": 1}, \"3\": {\"In\": 1}, \"4\": {\"In\": 1}, \"5\": {\"In\": 1}, \"6\": {\"In\": 1}, \"7\": {\"In\": 1}, \"8\": {\"In\": 1}, \"9\": {\"In\": 1}, \"10\": {\"In\": 1}, \"11\": {\"In\": 1}, \"12\": {\"In\": 1}, \"13\": {\"In\": 1}, \"14\": {\"In\": 1}, \"15\": {\"In\": 1}, \"16\": {\"O\": 1}, \"17\": {\"O\": 1}, \"18\": {\"O\": 1}, \"19\": {\"O\": 1}, \"20\": {\"O\": 1}, \"21\": {\"O\": 1}, \"22\": {\"O\": 1}, \"23\": {\"O\": 1}, \"24\": {\"O\": 1}, \"25\": {\"O\": 1}, \"26\": {\"O\": 1}, \"27\": {\"O\": 1}, \"28\": {\"O\": 1}, \"29\": {\"O\": 1}, \"30\": {\"O\": 1}, \"31\": {\"O\": 1}, \"32\": {\"O\": 1}, \"33\": {\"O\": 1}, \"34\": {\"O\": 1}, \"35\": {\"O\": 1}, \"36\": {\"O\": 1}, \"37\": {\"O\": 1}, \"38\": {\"O\": 1}, \"39\": {\"O\": 1}}" n_minim_iter=2 energy=-45151.01055032612 stress="-0.05461949631071416 -1.7927877509844602e-13 -5.709218773227845e-13 -1.7927877509844602e-13 -0.05461949631249482 3.8826213907722424e-13 -5.709218773227845e-13 3.8826213907722424e-13 -0.05461949631216431" free_energy=-45151.01055032612 pbc="T T T"
In      -4.18599269       2.95994382       5.61158088        0       0.02691508      -0.01903184       0.03296411
In       7.10860245       1.17325055       1.54732176        1      -0.02691508       0.01903184      -0.03296411
In       1.26338292      -0.89334663       5.12677308        2      -0.02691508       0.01903184      -0.03296411
In      -1.46130488      -2.06659718       3.57945132        3       0.00000000      -0.00000000       0.00000000
In      -1.26338293       3.99324241       3.33704742        4       0.02691508      -0.01903184      -0.03296411
In       4.58183660      -2.81999186       5.36917698        5       0.02691508       0.03806367      -0.00000000
In      -1.26338293       1.31320251       5.36917698        6       0.02691508       0.03806367       0.00000000
In      -1.65922684       6.95318623       1.78972566        7      -0.02691508      -0.03806367      -0.00000000
In       4.18599269       0.13995196       3.82185522        8      -0.02691508       0.01903184       0.03296411
In      -1.46130488       4.13319437      -0.00000000        9       0.00000000       0.00000000      -0.00000000
In       4.18599269       6.33974351       0.24240390       10      -0.02691508       0.01903184       0.03296411
In      -1.26338293      -2.20654914       6.91649874       11       0.02691508      -0.01903184      -0.03296411
In       4.18599269       2.81999186       1.78972566       12      -0.02691508      -0.03806367      -0.00000000
In       1.65922684       5.02654100       2.03212956       13       0.02691508      -0.01903184       0.03296411
In       4.38391464       0.00000000      -0.00000000       14      -0.00000000      -0.00000000      -0.00000000
In       1.46130488       2.06659718       3.57945132       15       0.00000000       0.00000000       0.00000000
O        0.85861090       4.13207246       3.90313707       16      -0.00856365      -0.01295478       0.00999710
O       -2.06399886       3.38077681       5.20830570       17      -0.00856365       0.01513513       0.00622062
O       -0.42424019       2.22129233       0.05768909       18      -0.00079890       0.00964462       0.01573047
O       -0.85861090      -0.75353946       1.95254014       19       0.00856365       0.00218035       0.01621772
O        3.87542657       4.92004065       1.89485104       20       0.01712409       0.00690164       0.00048725
O        1.96979296       2.88562837       1.62885438       21      -0.01712409       0.00302885       0.00622062
O        1.96979296       6.16760664       0.26599665       22      -0.01712409       0.00387279      -0.00573337
O       -2.23566789       5.85933826       3.63714041       23      -0.00935934      -0.00246167       0.01573047
O        3.34684995       1.91190204       7.10121354       24       0.00079890      -0.00964462      -0.01573047
O        5.15827765      -1.72614389       3.52176222       25       0.00935934       0.00246167      -0.01573047
O        6.26945971       3.22720357       1.68460028       26       0.00079890       0.01844530      -0.00048725
O        3.60955164       2.28678406       3.84544797       27      -0.00935934       0.01485382      -0.00573337
O        0.68694187       4.25346079       6.83521688       28      -0.00935934      -0.01239215      -0.00999710
O        2.23566789      -0.12026642       0.32368575       29       0.00935934       0.01239215       0.00999710
O       -3.34684995       0.90599079       5.47430236       30      -0.00079890      -0.01844530       0.00048725
O        4.98660862       0.75241756       1.95059693       31       0.00856365      -0.01513513      -0.00622062
O        0.95281680       1.24756600       5.53004825       32       0.01712409      -0.00302885      -0.00622062
O        3.34684995      -1.00591124       5.53199145       33       0.00079890      -0.00880067       0.01621772
O        2.06399886       0.00112191       3.25576557       34       0.00856365       0.01295478      -0.00999710
O        0.95281680      -2.03441227       6.89290598       35       0.01712409      -0.00387279       0.00573337
O       -0.68694188       1.84641031       3.31345466       36       0.00935934      -0.01485382       0.00573337
O       -0.95281680      -0.78684628       5.26405160       37      -0.01712409      -0.00690164      -0.00048725
O       -0.42424019       5.13910561       1.62691118       38      -0.00079890       0.00880067      -0.01621772
O        3.78122066       4.88673383       5.20636250       39      -0.00856365      -0.00218035      -0.01621772
40
Lattice="8.76782929156555 6.87198742355122e-10 3.552713678800503e-15 -2.922609764503081 8.266388730906991 -1.190261667005644e-09 -2.9226097635312382 -4.133194364766298 7.1589026393163735" Properties=species:S:1:pos:R:3:spacegroup_kinds:I:1:forces:R:3 spacegroup="P 1" unit_cell=conventional occupancy="_JSON {\"0\": {\"In\": 1}, \"1\": {\"In\": 1}, \"2\": {\"In\": 1}, \"3\": {\"In\": 1}, \"4\": {\"In\": 1}, \"5\": {\"In\": 1}, \"6\": {\"In\": 1}, \"7\": {\"In\": 1}, \"8\": {\"In\": 1}, \"9\": {\"In\": 1}, \"10\": {\"In\": 1}, \"11\": {\"In\": 1}, \"12\": {\"In\": 1}, \"13\": {\"In\": 1}, \"14\": {\"In\": 1}, \"15\": {\"In\": 1}, \"16\": {\"O\": 1}, \"17\": {\"O\": 1}, \"18\": {\"O\": 1}, \"19\": {\"O\": 1}, \"20\": {\"O\": 1}, \"21\": {\"O\": 1}, \"22\": {\"O\": 1}, \"23\": {\"O\": 1}, \"24\": {\"O\": 1}, \"25\": {\"O\": 1}, \"26\": {\"O\": 1}, \"27\": {\"O\": 1}, \"28\": {\"O\": 1}, \"29\": {\"O\": 1}, \"30\": {\"O\": 1}, \"31\": {\"O\": 1}, \"32\": {\"O\": 1}, \"33\": {\"O\": 1}, \"34\": {\"O\": 1}, \"35\": {\"O\": 1}, \"36\": {\"O\": 1}, \"37\": {\"O\": 1}, \"38\": {\"O\": 1}, \"39\": {\"O\": 1}}" n_minim_iter=3 energy=-45151.01147201008 stress="-0.05438950399302266 2.4296930793857424e-13 2.5222229004944104e-13 2.4296930793857424e-13 -0.054389503993943 6.937260933279082e-13 2.5222229004944104e-13 6.937260933279082e-13 -0.05438950399326278" free_energy=-45151.01147201008 pbc="T T T"
In      -4.18521178       2.95939163       5.61253729        0       0.02603673      -0.01841075       0.03188835
In       7.10782154       1.17380274       1.54636534        1      -0.02603673       0.01841075      -0.03188835
In       1.26260201      -0.89279444       5.12581666        2      -0.02603673       0.01841075      -0.03188835
In      -1.46130488      -2.06659718       3.57945132        3       0.00000000       0.00000000      -0.00000000
In      -1.26260202       3.99269022       3.33609100        4       0.02603673      -0.01841075      -0.03188835
In       4.58261751      -2.81888748       5.36917698        5       0.02603673       0.03682149       0.00000000
In      -1.26260202       1.31430688       5.36917698        6       0.02603673       0.03682149      -0.00000000
In      -1.66000775       6.95208185       1.78972566        7      -0.02603673      -0.03682149       0.00000000
In       4.18521178       0.14050415       3.82281163        8      -0.02603673       0.01841075       0.03188835
In      -1.46130488       4.13319437      -0.00000000        9      -0.00000000      -0.00000000      -0.00000000
In       4.18521178       6.34029569       0.24336031       10      -0.02603673       0.01841075       0.03188835
In      -1.26260202      -2.20710132       6.91554232       11       0.02603673      -0.01841075      -0.03188835
In       4.18521178       2.81888749       1.78972566       12      -0.02603673      -0.03682149      -0.00000000
In       1.66000775       5.02598881       2.03308597       13       0.02603673      -0.01841075       0.03188835
In       4.38391464       0.00000000      -0.00000000       14      -0.00000000       0.00000000      -0.00000000
In       1.46130488       2.06659718       3.57945132       15      -0.00000000       0.00000000       0.00000000
O        0.85835640       4.13188747       3.90500181       16      -0.00738858      -0.01225279      -0.00676173
O       -2.06425337       3.38248422       5.20753354       17      -0.00738858       0.00027056       0.01399209
O       -0.42288967       2.22186482       0.05888267       18      -0.01375981       0.00477570       0.00618896
O       -0.85835640      -0.75201704       1.95363271       19       0.00738858      -0.01198222       0.00723036
O        3.87712116       4.91920734       1.89475004       20       0.00271795       0.01555542       0.00104140
O        1.96809836       2.88529918       1.62808222       21      -0.00271795       0.00687583       0.01399209
O        1.96809836       6.16710252       0.26666782       22      -0.00271795       0.00867959      -0.01295069
O       -2.23575747       5.85787415       3.63833399       23      -0.00908918       0.01138097       0.00618896
O        3.34549943       1.91132955       7.10001996       24       0.01375981      -0.00477570      -0.00618896
O        5.15836723      -1.72467978       3.52056864       25       0.00908918      -0.01138097      -0.00618896
O        6.26810920       3.22852349       1.68470127       26       0.01375981       0.00774765      -0.00104140
O        3.60946206       2.28854978       3.84611914       27      -0.00908918      -0.00033069      -0.01295069
O        0.68685230       4.25315918       6.83335214       28      -0.00908918      -0.01105028       0.00676173
O        2.23575746      -0.11996481       0.32555049       29       0.00908918       0.01105028      -0.00676173
O       -3.34549944       0.90467088       5.47420136       30      -0.01375981      -0.00774765       0.00104140
O        4.98686313       0.75071015       1.95136909       31       0.00738858      -0.00027056      -0.01399209
O        0.95451140       1.24789519       5.53082041       32       0.00271795      -0.00687583      -0.01399209
O        3.34549943      -1.00665866       5.53308403       33       0.01375981      -0.00297195       0.00723036
O        2.06425336       0.00130690       3.25390082       34       0.00738858       0.01225279       0.00676173
O        0.95451140      -2.03390815       6.89223482       35       0.00271795      -0.00867959       0.01295069
O       -0.68685230       1.84464459       3.31278350       36       0.00908918       0.00033069       0.01295069
O       -0.95451140      -0.78601297       5.26415259       37      -0.00271795      -0.01555542      -0.00104140
O       -0.42288967       5.13985303       1.62581860       38      -0.01375981       0.00297195      -0.00723036
O        3.78096616       4.88521141       5.20526992       39      -0.00738858       0.01198222      -0.00723036
40
Lattice="8.767829291565551 6.871987423551221e-10 3.552713678800507e-15 -2.922609764503082 8.266388730906991 -1.1902616670056446e-09 -2.9226097635312396 -4.133194364766298 7.158902639316377" Properties=species:S:1:pos:R:3:spacegroup_kinds:I:1:forces:R:3 spacegroup="P 1" unit_cell=conventional occupancy="_JSON {\"0\": {\"In\": 1}, \"1\": {\"In\": 1}, \"2\": {\"In\": 1}, \"3\": {\"In\": 1}, \"4\": {\"In\": 1}, \"5\": {\"In\": 1}, \"6\": {\"In\": 1}, \"7\": {\"In\": 1}, \"8\": {\"In\": 1}, \"9\": {\"In\": 1}, \"10\": {\"In\": 1}, \"11\": {\"In\": 1}, \"12\": {\"In\": 1}, \"13\": {\"In\": 1}, \"14\": {\"In\": 1}, \"15\": {\"In\": 1}, \"16\": {\"O\": 1}, \"17\": {\"O\": 1}, \"18\": {\"O\": 1}, \"19\": {\"O\": 1}, \"20\": {\"O\": 1}, \"21\": {\"O\": 1}, \"22\": {\"O\": 1}, \"23\": {\"O\": 1}, \"24\": {\"O\": 1}, \"25\": {\"O\": 1}, \"26\": {\"O\": 1}, \"27\": {\"O\": 1}, \"28\": {\"O\": 1}, \"29\": {\"O\": 1}, \"30\": {\"O\": 1}, \"31\": {\"O\": 1}, \"32\": {\"O\": 1}, \"33\": {\"O\": 1}, \"34\": {\"O\": 1}, \"35\": {\"O\": 1}, \"36\": {\"O\": 1}, \"37\": {\"O\": 1}, \"38\": {\"O\": 1}, \"39\": {\"O\": 1}}" n_minim_iter=4 energy=-45151.01212801669 stress="-0.05422507400591824 3.708551323090425e-13 1.5207529869369232e-13 3.708551323090425e-13 -0.05422507400482967 -3.4046283913437293e-14 1.5207529869369232e-13 -3.4046283913437293e-14 -0.05422507400597045" free_energy=-45151.01212801669 pbc="T T T"
In      -4.18416367       2.95865051       5.61382096        0       0.01648124      -0.01165399       0.02018531
In       7.10677343       1.17454386       1.54508167        1      -0.01648124       0.01165399      -0.02018531
In       1.26155390      -0.89205332       5.12453299        2      -0.01648124       0.01165399      -0.02018531
In      -1.46130488      -2.06659718       3.57945132        3       0.00000000       0.00000000       0.00000000
In      -1.26155391       3.99194910       3.33480733        4       0.01648124      -0.01165399      -0.02018531
In       4.58366562      -2.81740523       5.36917698        5       0.01648124       0.02330799       0.00000000
In      -1.26155391       1.31578913       5.36917698        6       0.01648124       0.02330799      -0.00000000
In      -1.66105586       6.95059960       1.78972566        7      -0.01648124      -0.02330799      -0.00000000
In       4.18416367       0.14124527       3.82409530        8      -0.01648124       0.01165399       0.02018531
In      -1.46130488       4.13319437      -0.00000000        9      -0.00000000      -0.00000000      -0.00000000
In       4.18416367       6.34103682       0.24464398       10      -0.01648124       0.01165399       0.02018531
In      -1.26155391      -2.20784245       6.91425865       11       0.01648124      -0.01165399      -0.02018531
In       4.18416367       2.81740524       1.78972566       12      -0.01648124      -0.02330799      -0.00000000
In       1.66105586       5.02524769       2.03436964       13       0.01648124      -0.01165399       0.02018531
In       4.38391464       0.00000000      -0.00000000       14       0.00000000      -0.00000000       0.00000000
In       1.46130488       2.06659718       3.57945132       15      -0.00000000      -0.00000000       0.00000000
O        0.85803973       4.13153503       3.90619738       16      -0.00277336      -0.00546962      -0.01135886
O       -2.06457003       3.38369584       5.20724098       17      -0.00277336      -0.00710225       0.01041626
O       -0.42218519       2.22235438       0.05984075       18      -0.01277733      -0.00002838      -0.00183605
O       -0.85803973      -0.75115787       1.95453572       19       0.00277336      -0.01257187      -0.00094260
O        3.87836903       4.91890132       1.89469497       20      -0.00577162       0.01151183       0.00089345
O        1.96685049       2.88519387       1.62778966       21       0.00577162       0.00498216       0.01041626
O        1.96685049       6.16690182       0.26690530       22       0.00577162       0.00652966      -0.00952281
O       -2.23598420       5.85704677       3.63929207       23      -0.00423235       0.01205604      -0.00183605
O        3.34479495       1.91083999       7.09906188       24       0.01277733       0.00002838       0.00183605
O        5.15859396      -1.72385240       3.51961056       25       0.00423235      -0.01205604       0.00183605
O        6.26740472       3.22959798       1.68475635       26       0.01277733      -0.00160426      -0.00089345
O        3.60923533       2.28979319       3.84635662       27      -0.00423235      -0.00761809      -0.00952281
O        0.68662557       4.25274314       6.83215658       28      -0.00423235      -0.00443795       0.01135886
O        2.23598419      -0.11954877       0.32674606       29       0.00423235       0.00443795      -0.01135886
O       -3.34479496       0.90359639       5.47414629       30      -0.01277733       0.00160426       0.00089345
O        4.98717979       0.74949853       1.95166166       31       0.00277336       0.00710225      -0.01041626
O        0.95575927       1.24800050       5.53111297       32      -0.00577162      -0.00498216      -0.01041626
O        3.34479495      -1.00724360       5.53398704       33       0.01277733       0.00157588      -0.00094260
O        2.06457003       0.00165934       3.25270526       34       0.00277336       0.00546962       0.01135886
O        0.95575927      -2.03370745       6.89199733       35      -0.00577162      -0.00652966       0.00952281
O       -0.68662557       1.84340118       3.31254601       36       0.00423235       0.00761809       0.00952281
O       -0.95575927      -0.78570695       5.26420767       37       0.00577162      -0.01151183      -0.00089345
O       -0.42218519       5.14043797       1.62491559       38      -0.01277733      -0.00157588       0.00094260
O        3.78064949       4.88435224       5.20436691       39      -0.00277336       0.01257187       0.00094260
40
Lattice="8.767829291565553 6.871987423551224e-10 3.552713678800517e-15 -2.9226097645030835 8.266388730906993 -1.190261667005645e-09 -2.922609763531241 -4.1331943647662985 7.158902639316381" Properties=species:S:1:pos:R:3:spacegroup_kinds:I:1:forces:R:3 spacegroup="P 1" unit_cell=conventional occupancy="_JSON {\"0\": {\"In\": 1}, \"1\": {\"In\": 1}, \"2\": {\"In\": 1}, \"3\": {\"In\": 1}, \"4\": {\"In\": 1}, \"5\": {\"In\": 1}, \"6\": {\"In\": 1}, \"7\": {\"In\": 1}, \"8\": {\"In\": 1}, \"9\": {\"In\": 1}, \"10\": {\"In\": 1}, \"11\": {\"In\": 1}, \"12\": {\"In\": 1}, \"13\": {\"In\": 1}, \"14\": {\"In\": 1}, \"15\": {\"In\": 1}, \"16\": {\"O\": 1}, \"17\": {\"O\": 1}, \"18\": {\"O\": 1}, \"19\": {\"O\": 1}, \"20\": {\"O\": 1}, \"21\": {\"O\": 1}, \"22\": {\"O\": 1}, \"23\": {\"O\": 1}, \"24\": {\"O\": 1}, \"25\": {\"O\": 1}, \"26\": {\"O\": 1}, \"27\": {\"O\": 1}, \"28\": {\"O\": 1}, \"29\": {\"O\": 1}, \"30\": {\"O\": 1}, \"31\": {\"O\": 1}, \"32\": {\"O\": 1}, \"33\": {\"O\": 1}, \"34\": {\"O\": 1}, \"35\": {\"O\": 1}, \"36\": {\"O\": 1}, \"37\": {\"O\": 1}, \"38\": {\"O\": 1}, \"39\": {\"O\": 1}}" n_minim_iter=5 energy=-45151.01240558663 stress="-0.05417747703567881 -3.1799048583232414e-13 -3.1435468266823554e-13 -3.1799048583232414e-13 -0.05417747703475914 8.178609978851412e-14 -3.1435468266823554e-13 8.178609978851412e-14 -0.05417747703486331" free_energy=-45151.01240558663 pbc="T T T"
In      -4.18336925       2.95808876       5.61479393        0       0.00517776      -0.00366123       0.00634144
In       7.10597901       1.17510561       1.54410870        1      -0.00517776       0.00366123      -0.00634144
In       1.26075948      -0.89149158       5.12356002        2      -0.00517776       0.00366123      -0.00634144
In      -1.46130488      -2.06659718       3.57945132        3       0.00000000       0.00000000       0.00000000
In      -1.26075948       3.99138735       3.33383436        4       0.00517776      -0.00366123      -0.00634144
In       4.58446005      -2.81628174       5.36917698        5       0.00517776       0.00732246       0.00000000
In      -1.26075948       1.31691262       5.36917698        6       0.00517776       0.00732246      -0.00000000
In      -1.66185029       6.94947611       1.78972566        7      -0.00517776      -0.00732246       0.00000000
In       4.18336924       0.14180702       3.82506827        8      -0.00517776       0.00366123       0.00634144
In      -1.46130488       4.13319437      -0.00000000        9       0.00000000      -0.00000000       0.00000000
In       4.18336924       6.34159856       0.24561695       10      -0.00517776       0.00366123       0.00634144
In      -1.26075948      -2.20840419       6.91328568       11       0.00517776      -0.00366123      -0.00634144
In       4.18336924       2.81628175       1.78972566       12      -0.00517776      -0.00732246       0.00000000
In       1.66185028       5.02468594       2.03534261       13       0.00517776      -0.00366123       0.00634144
In       4.38391464       0.00000000      -0.00000000       14      -0.00000000      -0.00000000      -0.00000000
In       1.46130488       2.06659718       3.57945132       15       0.00000000       0.00000000      -0.00000000
O        0.85784772       4.13126300       3.90641899       16       0.00213559       0.00181965      -0.00573759
O       -2.06476204       3.38402377       5.20736576       17       0.00213559      -0.00587872       0.00129293
O       -0.42219649       2.22255453       0.06018686       18      -0.00311506      -0.00216595      -0.00513779
O       -0.85784773      -0.75110197       1.95488211       19      -0.00213559      -0.00405907      -0.00444466
O        3.87874222       4.91904524       1.89469525       20      -0.00625438       0.00109277       0.00069313
O        1.96647731       2.88526558       1.62791444       21       0.00625438      -0.00005388       0.00129293
O        1.96647731       6.16697402       0.26678081       22       0.00625438       0.00114665      -0.00059980
O       -2.23617667       5.85699070       3.63963818       23       0.00100372       0.00365889      -0.00513779
O        3.34480625       1.91063984       7.09871578       24       0.00311506       0.00216595       0.00513779
O        5.15878643      -1.72379634       3.51926446       25      -0.00100372      -0.00365889       0.00513779
O        6.26741601       3.22999780       1.68475606       26       0.00311506      -0.00553243      -0.00069313
O        3.60904286       2.29012096       3.84623213       27       0.00100372      -0.00627890      -0.00059980
O        0.68643310       4.25247144       6.83193497       28       0.00100372       0.00262001       0.00573759
O        2.23617666      -0.11927707       0.32696767       29      -0.00100372      -0.00262001      -0.00573759
O       -3.34480625       0.90319657       5.47414657       30      -0.00311506       0.00553243       0.00069313
O        4.98737180       0.74917060       1.95153688       31      -0.00213559       0.00587872      -0.00129293
O        0.95613245       1.24792879       5.53098819       32      -0.00625438       0.00005388      -0.00129293
O        3.34480625      -1.00744327       5.53433343       33       0.00311506       0.00336648      -0.00444466
O        2.06476204       0.00193137       3.25248365       34      -0.00213559      -0.00181965       0.00573759
O        0.95613245      -2.03377965       6.89212183       35      -0.00625438      -0.00114665       0.00059980
O       -0.68643310       1.84307341       3.31267051       36      -0.00100372       0.00627890       0.00059980
O       -0.95613246      -0.78585087       5.26420738       37       0.00625438      -0.00109277      -0.00069313
O       -0.42219649       5.14063763       1.62456920       38      -0.00311506      -0.00336648       0.00444466
O        3.78045749       4.88429634       5.20402052       39       0.00213559       0.00405907       0.00444466
