40
Lattice="9.344372957947026 7.323843753681546e-10 1.287858708565184e-14 -3.1147909866728383 8.809959312423247 -1.268541272025913e-09 -3.1147909856371023 -4.40497965547923 7.629648571711515" Properties=species:S:1:pos:R:3:spacegroup_kinds:I:1:forces:R:3 spacegroup="P 1" unit_cell=conventional occupancy="_JSON {\"0\": {\"In\": 1}, \"1\": {\"In\": 1}, \"2\": {\"In\": 1}, \"3\": {\"In\": 1}, \"4\": {\"In\": 1}, \"5\": {\"In\": 1}, \"6\": {\"In\": 1}, \"7\": {\"In\": 1}, \"8\": {\"In\": 1}, \"9\": {\"In\": 1}, \"10\": {\"In\": 1}, \"11\": {\"In\": 1}, \"12\": {\"In\": 1}, \"13\": {\"In\": 1}, \"14\": {\"In\": 1}, \"15\": {\"In\": 1}, \"16\": {\"O\": 1}, \"17\": {\"O\": 1}, \"18\": {\"O\": 1}, \"19\": {\"O\": 1}, \"20\": {\"O\": 1}, \"21\": {\"O\": 1}, \"22\": {\"O\": 1}, \"23\": {\"O\": 1}, \"24\": {\"O\": 1}, \"25\": {\"O\": 1}, \"26\": {\"O\": 1}, \"27\": {\"O\": 1}, \"28\": {\"O\": 1}, \"29\": {\"O\": 1}, \"30\": {\"O\": 1}, \"31\": {\"O\": 1}, \"32\": {\"O\": 1}, \"33\": {\"O\": 1}, \"34\": {\"O\": 1}, \"35\": {\"O\": 1}, \"36\": {\"O\": 1}, \"37\": {\"O\": 1}, \"38\": {\"O\": 1}, \"39\": {\"O\": 1}}" n_minim_iter=6 energy=-45146.989557365116 stress="0.09379806680169514 -3.144676735573753e-13 2.405353778520221e-13 -3.144676735573753e-13 0.09379806680185498 3.544002799619665e-13 2.405353778520221e-13 3.544002799619665e-13 0.09379806680275712" free_energy=-45146.989557365116 pbc="T T T"
In      -4.43990137       3.13948437       6.00672642        0      -0.00247661       0.00175123      -0.00303321
In       7.55469236       1.26549529       1.62292215        1       0.00247661      -0.00175123       0.00303321
In       1.32511038      -0.93699454       5.43774643        2       0.00247661      -0.00175123       0.00303321
In      -1.55739549      -2.20248983       3.81482428        3       0.00000000      -0.00000000      -0.00000000
In      -1.32511039       4.24072928       3.53033429        4      -0.00247661       0.00175123       0.00303321
In       4.90447159      -2.97523399       5.72223643        5      -0.00247661      -0.00350245       0.00000000
In      -1.32511039       1.42974567       5.72223643        6      -0.00247661      -0.00350245      -0.00000000
In      -1.78968060       7.38021365       1.90741214        7       0.00247661       0.00350245       0.00000000
In       4.43990137       0.16425038       4.09931428        8       0.00247661      -0.00175123      -0.00303321
In      -1.55739549       4.40497966      -0.00000000        9       0.00000000      -0.00000000       0.00000000
In       4.43990137       6.77171986       0.28448999       10       0.00247661      -0.00175123      -0.00303321
In      -1.32511039      -2.36674020       7.34515857       11      -0.00247661       0.00175123       0.00303321
In       4.43990137       2.97523399       1.90741214       12       0.00247661       0.00350245       0.00000000
In       1.78968060       5.34197420       2.19190213       13      -0.00247661       0.00175123      -0.00303321
In       4.67218648       0.00000000      -0.00000000       14      -0.00000000      -0.00000000       0.00000000
In       1.55739549       2.20248983       3.81482428       15      -0.00000000       0.00000000       0.00000000
O        0.96885922       4.41688186       4.12236800       16       0.00107929      -0.00187783      -0.00232017
O       -2.14593176       3.56412431       5.55815696       17       0.00107929      -0.00107041       0.00278633
O       -0.45859145       2.37099453      -0.00493021       18      -0.00241986       0.00140386      -0.00149924
O       -0.96885923      -0.82895314       2.05087639       19      -0.00107929      -0.00294824       0.00046616
O        4.07559921       5.23108634       2.05580660       20      -0.00136896       0.00208265       0.00196540
O        2.15398276       3.03765226       1.74333267       21       0.00136896      -0.00066076       0.00278633
O        2.15398276       6.59841374       0.31247392       22       0.00136896       0.00274341      -0.00082093
O       -2.38825890       6.24950213       3.80989407       23      -0.00213020       0.00181352      -0.00149924
O        3.57338243       2.03398513       7.63457878       24       0.00241986      -0.00140386       0.00149924
O        5.50304988      -1.84452247       3.81975449       25       0.00213020      -0.00181352       0.00149924
O        6.68817341       3.38371741       1.75901768       26       0.00241986      -0.00059645      -0.00196540
O        3.84132307       2.37720382       4.12729821       27      -0.00213020      -0.00220514      -0.00082093
O        0.72653209       4.58823302       7.32210485       28      -0.00213020       0.00039162       0.00232017
O        2.38825890      -0.18325336       0.30754371       29       0.00213020      -0.00039162      -0.00232017
O       -3.57338243       1.02126225       5.87063088       30      -0.00241986       0.00059645       0.00196540
O        5.26072274       0.84085535       2.07149161       31      -0.00107929       0.00107041      -0.00278633
O        0.96080823       1.36732740       5.88631589       32      -0.00136896       0.00066076      -0.00278633
O        3.57338243      -1.01272287       5.86570068       33       0.00241986       0.00200031       0.00046616
O        2.14593176      -0.01190220       3.50728057       34      -0.00107929       0.00187783       0.00232017
O        0.96080823      -2.19343408       7.31717464       35      -0.00136896      -0.00274341       0.00082093
O       -0.72653209       2.02777584       3.50235036       36       0.00213020       0.00220514       0.00082093
O       -0.96080823      -0.82610668       5.57384197       37       0.00136896      -0.00208265      -0.00196540
O       -0.45859145       5.41770253       1.76394789       38      -0.00241986      -0.00200031      -0.00046616
O        4.08365021       5.23393280       5.57877218       39       0.00107929       0.00294824      -0.00046616
