40
Lattice="8.279692595467587 6.489364601236502e-10 7.105427357600995e-15 -2.7598975324343535 7.8061690403105946 -1.1240013364499644e-09 -2.7598975315166228 -3.9030845195063546 6.760340695893897" Properties=species:S:1:pos:R:3:spacegroup_kinds:I:1:forces:R:3 spacegroup="P 1" unit_cell=conventional occupancy="_JSON {\"0\": {\"In\": 1}, \"1\": {\"In\": 1}, \"2\": {\"In\": 1}, \"3\": {\"In\": 1}, \"4\": {\"In\": 1}, \"5\": {\"In\": 1}, \"6\": {\"In\": 1}, \"7\": {\"In\": 1}, \"8\": {\"In\": 1}, \"9\": {\"In\": 1}, \"10\": {\"In\": 1}, \"11\": {\"In\": 1}, \"12\": {\"In\": 1}, \"13\": {\"In\": 1}, \"14\": {\"In\": 1}, \"15\": {\"In\": 1}, \"16\": {\"O\": 1}, \"17\": {\"O\": 1}, \"18\": {\"O\": 1}, \"19\": {\"O\": 1}, \"20\": {\"O\": 1}, \"21\": {\"O\": 1}, \"22\": {\"O\": 1}, \"23\": {\"O\": 1}, \"24\": {\"O\": 1}, \"25\": {\"O\": 1}, \"26\": {\"O\": 1}, \"27\": {\"O\": 1}, \"28\": {\"O\": 1}, \"29\": {\"O\": 1}, \"30\": {\"O\": 1}, \"31\": {\"O\": 1}, \"32\": {\"O\": 1}, \"33\": {\"O\": 1}, \"34\": {\"O\": 1}, \"35\": {\"O\": 1}, \"36\": {\"O\": 1}, \"37\": {\"O\": 1}, \"38\": {\"O\": 1}, \"39\": {\"O\": 1}}" n_minim_iter=4 energy=-45136.81849429956 stress="-0.3315287028569254 -2.0782874719742075e-13 1.6359891592064226e-13 -2.0782874719742075e-13 -0.33152870285805636 5.893181009284749e-13 1.6359891592064226e-13 5.893181009284749e-13 -0.33152870285762726" free_energy=-45136.81849429956 pbc="T T T"
In      -3.94629429       2.79045145       5.30730735        0       0.00540810      -0.00382410       0.00662354
In       6.70619182       1.11263307       1.45303334        1      -0.00540810       0.00382410      -0.00662354
In       1.18639676      -0.83890919       4.83320369        2      -0.00540810       0.00382410      -0.00662354
In      -1.37994877      -1.95154226       3.38017035        3       0.00000000       0.00000000       0.00000000
In      -1.18639676       3.76622258       3.14311852        4       0.00540810      -0.00382410      -0.00662354
In       4.33339830      -2.65358951       5.07025552        5       0.00540810       0.00764821       0.00000000
In      -1.18639676       1.24949501       5.07025552        6       0.00540810       0.00764821      -0.00000000
In      -1.57350078       6.55667404       1.69008517        7      -0.00540810      -0.00764821      -0.00000000
In       3.94629429       0.13686194       3.61722217        8      -0.00540810       0.00382410       0.00662354
In      -1.37994877       3.90308452      -0.00000000        9       0.00000000       0.00000000      -0.00000000
In       3.94629429       5.99148872       0.23705183       10      -0.00540810       0.00382410       0.00662354
In      -1.18639676      -2.08840420       6.52328886       11       0.00540810      -0.00382410      -0.00662354
In       3.94629429       2.65358952       1.69008517       12      -0.00540810      -0.00764821      -0.00000000
In       1.57350077       4.74199371       1.92713700       13       0.00540810      -0.00382410       0.00662354
In       4.13984630       0.00000000      -0.00000000       14      -0.00000000       0.00000000      -0.00000000
In       1.37994876       1.95154226       3.38017035       15      -0.00000000      -0.00000000      -0.00000000
O        0.77777972       3.88993250       3.72275417       16       0.00455775      -0.00145134       0.00078238
O       -1.98211781       3.23057570       4.91035359       17       0.00455775       0.00140324       0.00086571
O       -0.38718734       2.10278954       0.10339581       18       0.00147390       0.00358385      -0.00291123
O       -0.77777972      -0.68566084       1.87276707       19      -0.00455775      -0.00004811       0.00164809
O        3.70652191       4.64844097       1.76937125       20      -0.00019627      -0.00163269       0.00455932
O        1.81327315       2.74344229       1.53018324       21       0.00019627      -0.00476484       0.00086571
O        1.81327315       5.80808320       0.23918801       22       0.00019627       0.00313214       0.00369362
O       -2.11159144       5.51874066       3.48356616       23      -0.00288759      -0.00258422      -0.00291123
O        3.14708487       1.80029498       6.65694488       24      -0.00147390      -0.00358385       0.00291123
O        4.87148897      -1.61565613       3.27677453       25       0.00288759       0.00258422       0.00291123
O        5.90698240       3.09248044       1.61079909       26      -0.00147390      -0.00072927      -0.00455932
O        3.40820362       2.20902873       3.61935835       27      -0.00288759      -0.00122909       0.00369362
O        0.64830609       3.98148418       6.41775687       28      -0.00288759       0.00381331      -0.00078238
O        2.11159144      -0.07839966       0.34258382       29       0.00288759      -0.00381331       0.00078238
O       -3.14708487       0.81060409       5.14954160       30       0.00147390       0.00072927       0.00455932
O        4.74201534       0.67250883       1.84998710       31      -0.00455775      -0.00140324      -0.00086571
O        0.94662438       1.15964223       5.23015745       32      -0.00019627       0.00476484      -0.00086571
O        3.14708487      -0.98969089       5.25293742       33      -0.00147390       0.00431313       0.00164809
O        1.98211781       0.01315202       3.03758652       34      -0.00455775       0.00145134      -0.00078238
O        0.94662438      -1.90499868       6.52115268       35      -0.00019627      -0.00313214      -0.00369362
O       -0.64830609       1.69405580       3.14098234       36       0.00288759       0.00122909      -0.00369362
O       -0.94662438      -0.74535645       4.99096944       37       0.00019627       0.00163269      -0.00455932
O       -0.38718734       4.89277541       1.50740327       38       0.00147390      -0.00431313      -0.00164809
O        3.53767725       4.58874537       4.88757362       39       0.00455775       0.00004811      -0.00164809
