40
Lattice="9.136651050972267 7.16106285381103e-10 3.552713678800508e-15 -3.0455503509992465 8.614117220398212 -1.240336722219128e-09 -3.0455503499865206 -4.307058609482998 7.460044344868747" Properties=species:S:1:pos:R:3:spacegroup_kinds:I:1:forces:R:3 spacegroup="P 1" unit_cell=conventional occupancy="_JSON {\"0\": {\"In\": 1}, \"1\": {\"In\": 1}, \"2\": {\"In\": 1}, \"3\": {\"In\": 1}, \"4\": {\"In\": 1}, \"5\": {\"In\": 1}, \"6\": {\"In\": 1}, \"7\": {\"In\": 1}, \"8\": {\"In\": 1}, \"9\": {\"In\": 1}, \"10\": {\"In\": 1}, \"11\": {\"In\": 1}, \"12\": {\"In\": 1}, \"13\": {\"In\": 1}, \"14\": {\"In\": 1}, \"15\": {\"In\": 1}, \"16\": {\"O\": 1}, \"17\": {\"O\": 1}, \"18\": {\"O\": 1}, \"19\": {\"O\": 1}, \"20\": {\"O\": 1}, \"21\": {\"O\": 1}, \"22\": {\"O\": 1}, \"23\": {\"O\": 1}, \"24\": {\"O\": 1}, \"25\": {\"O\": 1}, \"26\": {\"O\": 1}, \"27\": {\"O\": 1}, \"28\": {\"O\": 1}, \"29\": {\"O\": 1}, \"30\": {\"O\": 1}, \"31\": {\"O\": 1}, \"32\": {\"O\": 1}, \"33\": {\"O\": 1}, \"34\": {\"O\": 1}, \"35\": {\"O\": 1}, \"36\": {\"O\": 1}, \"37\": {\"O\": 1}, \"38\": {\"O\": 1}, \"39\": {\"O\": 1}}" n_minim_iter=5 energy=-45150.31901490705 stress="0.06485178342224801 -2.8569343358832613e-13 -4.0848964307972633e-13 -2.8569343358832613e-13 0.06485178342368539 -1.0288595103058009e-12 -4.0848964307972633e-13 -1.0288595103058009e-12 0.06485178342341338" free_energy=-45150.31901490705 pbc="T T T"
In      -4.36242821       3.08470257       5.84720494        0       0.00348642      -0.00246527       0.00426998
In       7.40797855       1.22235605       1.61283940        1      -0.00348642       0.00246527      -0.00426998
In       1.31687785      -0.93117326       5.34286157        2      -0.00348642       0.00246527      -0.00426998
In      -1.52277518      -2.15352930       3.73002217        3      -0.00000000       0.00000000       0.00000000
In      -1.31687786       4.16146722       3.47785048        4       0.00348642      -0.00246527      -0.00426998
In       4.77422284      -2.93911117       5.59503326        5       0.00348642       0.00493055      -0.00000000
In      -1.31687786       1.36794744       5.59503326        6       0.00348642       0.00493055       0.00000000
In      -1.72867250       7.24616979       1.86501108        7      -0.00348642      -0.00493055      -0.00000000
In       4.36242820       0.14559139       3.98219386        8      -0.00348642       0.00246527       0.00426998
In      -1.52277518       4.30705861      -0.00000000        9      -0.00000000      -0.00000000       0.00000000
In       4.36242820       6.60617931       0.25217168       10      -0.00348642       0.00246527       0.00426998
In      -1.31687786      -2.29912069       7.20787266       11       0.00348642      -0.00246527      -0.00426998
In       4.36242820       2.93911118       1.86501108       12      -0.00348642      -0.00493055      -0.00000000
In       1.72867249       5.23823187       2.11718277       13       0.00348642      -0.00246527       0.00426998
In       4.56832552       0.00000000      -0.00000000       14      -0.00000000       0.00000000       0.00000000
In       1.52277517       2.15352931       3.73002217       15       0.00000000      -0.00000000      -0.00000000
O        0.90277590       4.31212984       4.04521968       16       0.00541428      -0.00784928       0.00163039
O       -2.14277445       3.50072740       5.43304269       17       0.00541428       0.00533660       0.00598248
O       -0.45450986       2.30694406       0.04069174       18      -0.00056422       0.00956403      -0.00133965
O       -0.90277590      -0.80125998       2.01821803       19      -0.00541428      -0.00251268       0.00761287
O        4.01477559       5.13181199       1.97752628       20       0.00322663       0.00173924       0.00895252
O        2.07632510       3.00684730       1.70302052       21      -0.00322663      -0.00688349       0.00598248
O        2.07632510       6.43202330       0.27450576       22      -0.00322663       0.00862273       0.00297004
O       -2.32651101       6.12012257       3.77071391       23      -0.00920513      -0.00265606      -0.00133965
O        3.50006021       2.00011455       7.41935260       24       0.00056422      -0.00956403       0.00133965
O        5.37206135      -1.81306395       3.68933042       25       0.00920513       0.00265606       0.00133965
O        6.54561056       3.34224142       1.75249588       26       0.00056422       0.00362184      -0.00895252
O        3.76458969       2.35900207       4.00452794       27      -0.00920513       0.00016786       0.00297004
O        0.71903934       4.44205120       7.14484683       28      -0.00920513       0.00248820      -0.00163039
O        2.32651100      -0.13499259       0.31519751       29       0.00920513      -0.00248820       0.00163039
O       -3.50006021       0.96481719       5.70754846       30      -0.00056422      -0.00362184       0.00895252
O        5.18832480       0.80633121       2.02700165       31      -0.00541428      -0.00533660      -0.00598248
O        0.96922524       1.30021132       5.75702382       32       0.00322663       0.00688349      -0.00598248
O        3.50006021      -1.03529736       5.74824020       33       0.00056422       0.00594219       0.00761287
O        2.14277445      -0.00507122       3.41482466       34      -0.00541428       0.00784928      -0.00163039
O        0.96922524      -2.12496469       7.18553857       35       0.00322663      -0.00862273      -0.00297004
O       -0.71903935       1.94805655       3.45551640       36       0.00920513      -0.00016785      -0.00297004
O       -0.96922525      -0.82475337       5.48251805       37      -0.00322663      -0.00173924      -0.00895252
O       -0.45450986       5.34235597       1.71180414       38      -0.00056422      -0.00594219      -0.00761287
O        3.94832625       5.10831860       5.44182631       39       0.00541428       0.00251268      -0.00761287
