40
Lattice="9.276163424340668 7.270388569060062e-10 9.395995388734837e-15 -3.092054475465685 8.745650747418866 -1.2592803848411114e-09 -3.0920544744375023 -4.372825372982387 7.573955720730614" Properties=species:S:1:pos:R:3:spacegroup_kinds:I:1:forces:R:3 spacegroup="P 1" unit_cell=conventional occupancy="_JSON {\"0\": {\"In\": 1}, \"1\": {\"In\": 1}, \"2\": {\"In\": 1}, \"3\": {\"In\": 1}, \"4\": {\"In\": 1}, \"5\": {\"In\": 1}, \"6\": {\"In\": 1}, \"7\": {\"In\": 1}, \"8\": {\"In\": 1}, \"9\": {\"In\": 1}, \"10\": {\"In\": 1}, \"11\": {\"In\": 1}, \"12\": {\"In\": 1}, \"13\": {\"In\": 1}, \"14\": {\"In\": 1}, \"15\": {\"In\": 1}, \"16\": {\"O\": 1}, \"17\": {\"O\": 1}, \"18\": {\"O\": 1}, \"19\": {\"O\": 1}, \"20\": {\"O\": 1}, \"21\": {\"O\": 1}, \"22\": {\"O\": 1}, \"23\": {\"O\": 1}, \"24\": {\"O\": 1}, \"25\": {\"O\": 1}, \"26\": {\"O\": 1}, \"27\": {\"O\": 1}, \"28\": {\"O\": 1}, \"29\": {\"O\": 1}, \"30\": {\"O\": 1}, \"31\": {\"O\": 1}, \"32\": {\"O\": 1}, \"33\": {\"O\": 1}, \"34\": {\"O\": 1}, \"35\": {\"O\": 1}, \"36\": {\"O\": 1}, \"37\": {\"O\": 1}, \"38\": {\"O\": 1}, \"39\": {\"O\": 1}}" n_minim_iter=4 energy=-45149.34418669013 stress="0.07696672203524957 3.7987739968581854e-13 1.0545077018547592e-13 3.7987739968581854e-13 0.07696672203540733 2.540938887436798e-14 1.0545077018547592e-13 2.540938887436798e-14 0.07696672203490595" free_energy=-45149.34418669013 pbc="T T T"
In      -4.41981045       3.12527794       5.94779340        0      -0.00348197       0.00246212      -0.00426452
In       7.51186492       1.24754744       1.62616232        1       0.00348197      -0.00246212       0.00426452
In       1.32775597      -0.93886525       5.41314018        2       0.00348197      -0.00246212       0.00426452
In      -1.54602724      -2.18641268       3.78697786        3      -0.00000000      -0.00000000       0.00000000
In      -1.32775598       4.21848429       3.51965125        4      -0.00348197       0.00246212       0.00426452
In       4.85635297      -2.97093685       5.68046679        5      -0.00348197      -0.00492424       0.00000000
In      -1.32775598       1.40188853       5.68046679        6      -0.00348197      -0.00492424       0.00000000
In      -1.76429850       7.34376223       1.89348893        7       0.00348197       0.00492424       0.00000000
In       4.41981045       0.15434109       4.05430447        8       0.00348197      -0.00246212      -0.00426452
In      -1.54602724       4.37282538      -0.00000000        9      -0.00000000      -0.00000000       0.00000000
In       4.41981045       6.71357915       0.26732661       10       0.00348197      -0.00246212      -0.00426452
In      -1.32775598      -2.34075377       7.30662911       11      -0.00348197       0.00246212       0.00426452
In       4.41981045       2.97093685       1.89348893       12       0.00348197       0.00492424      -0.00000000
In       1.76429850       5.31169063       2.16081554       13      -0.00348197       0.00246212      -0.00426452
In       4.63808171       0.00000000      -0.00000000       14       0.00000000       0.00000000      -0.00000000
In       1.54602724       2.18641269       3.78697786       15       0.00000000      -0.00000000       0.00000000
O        0.92863189       4.38020572       4.10527061       16       0.00602865      -0.00753632      -0.00194118
O       -2.16342258       3.55157848       5.51492885       17       0.00602865       0.00208705       0.00749723
O       -0.45777679       2.34550477       0.02995406       18      -0.00312807       0.00856183      -0.00371741
O       -0.92863190      -0.81386656       2.04624374       19      -0.00602865      -0.00544927       0.00555606
O        4.06960115       5.20398593       2.01628968       20      -0.00004186       0.00330302       0.00927346
O        2.11450779       3.04224757       1.72795099       21       0.00004186      -0.00637955       0.00749723
O        2.11450779       6.53456373       0.28833869       22       0.00004186       0.00968257       0.00177623
O       -2.36395537       6.20899923       3.81693192       23      -0.00911486       0.00009523      -0.00371741
O        3.54983126       2.02732061       7.54400165       24       0.00312807      -0.00856183       0.00371741
O        5.45600984      -1.83617386       3.75702379       25       0.00911486      -0.00009523       0.00371741
O        6.64188574       3.38510606       1.77068818       26       0.00312807       0.00106155      -0.00927346
O        3.82015358       2.38747309       4.07531655       27      -0.00911486      -0.00326698       0.00177623
O        0.72809911       4.52200381       7.25566296       28      -0.00911486       0.00317175       0.00194118
O        2.36395536      -0.14917843       0.31829275       29       0.00911486      -0.00317175      -0.00194118
O       -3.54983126       0.98771932       5.80326754       30      -0.00312807      -0.00106155       0.00927346
O        5.25547705       0.82124690       2.05902687       31      -0.00602865      -0.00208705      -0.00749723
O        0.97754668       1.33057781       5.84600473       32      -0.00004186       0.00637955      -0.00749723
O        3.54983126      -1.03960128       5.83322160       33       0.00312807       0.00750028       0.00555606
O        2.16342258      -0.00738034       3.46868510       34      -0.00602865       0.00753632       0.00194118
O        0.97754668      -2.16173836       7.28561703       35      -0.00004186      -0.00968257      -0.00177623
O       -0.72809911       1.98535229       3.49863917       36       0.00911486       0.00326698      -0.00177623
O       -0.97754668      -0.83116055       5.55766604       37       0.00004186      -0.00330302      -0.00927346
O       -0.45777679       5.41242666       1.74073411       38      -0.00312807      -0.00750028      -0.00555606
O        4.02068637       5.18669194       5.52771197       39       0.00602865       0.00544927      -0.00555606
