20
Lattice="5.416069606612737 0.0 0.0 0.0 5.609955612242754 0.0 0.0 0.0 8.15626858774592" Properties=species:S:1:pos:R:3:spacegroup_kinds:I:1:forces:R:3 spacegroup="P 1" unit_cell=conventional occupancy="_JSON {\"0\": {\"In\": 1}, \"1\": {\"In\": 1}, \"2\": {\"In\": 1}, \"3\": {\"In\": 1}, \"4\": {\"In\": 1}, \"5\": {\"In\": 1}, \"6\": {\"In\": 1}, \"7\": {\"In\": 1}, \"8\": {\"O\": 1}, \"9\": {\"O\": 1}, \"10\": {\"O\": 1}, \"11\": {\"O\": 1}, \"12\": {\"O\": 1}, \"13\": {\"O\": 1}, \"14\": {\"O\": 1}, \"15\": {\"O\": 1}, \"16\": {\"O\": 1}, \"17\": {\"O\": 1}, \"18\": {\"O\": 1}, \"19\": {\"O\": 1}}" n_minim_iter=1 energy=-22572.944050337323 stress="-0.00028921966810884295 0.0 0.0 0.0 -6.243472200444864e-05 0.0 0.0 0.0 -0.00011017892118432121" pbc="T T T"
In       1.34403232       2.96937383       0.94349642        0       0.00593899      -0.00335760      -0.00326710
In       1.36400249       0.16439603       3.13463787        1      -0.00593899      -0.00335760       0.00326710
In       1.36400249       2.64058178       5.02163072        2      -0.00593899       0.00335760      -0.00326710
In       1.34403232       5.44555958       7.21277216        3       0.00593899       0.00335760       0.00326710
In       4.07203729       2.64058178       7.21277216        4      -0.00593899       0.00335760       0.00326710
In       4.05206712       5.44555958       5.02163072        5       0.00593899       0.00335760      -0.00326710
In       4.05206712       2.96937383       3.13463787        6       0.00593899      -0.00335760       0.00326710
In       4.07203729       0.16439603       0.94349642        7      -0.00593899      -0.00335760      -0.00326710
O        2.02992427       3.30800005       6.94613982        8       0.00145370      -0.00336377       0.00908756
O        0.67811054       0.50302224       5.28826307        9      -0.00145370      -0.00336377      -0.00908756
O        0.67811054       2.30195557       2.86800552       10      -0.00145370       0.00336377       0.00908756
O        2.02992427       5.10693337       1.21012877       11       0.00145370       0.00336377      -0.00908756
O        3.38614534       2.30195557       1.21012877       12      -0.00145370       0.00336377      -0.00908756
O        4.73795907       5.10693337       2.86800552       13       0.00145370       0.00336377       0.00908756
O        4.73795907       3.30800005       5.28826307       14       0.00145370      -0.00336377      -0.00908756
O        3.38614534       0.50302224       6.94613982       15      -0.00145370      -0.00336377       0.00908756
O        5.14196164       4.20746671      -0.00000000       16       0.00756599       0.00000000       0.00000000
O        2.98214277       1.40248890       4.07813429       17      -0.00756599       0.00000000       0.00000000
O        0.27410797       1.40248890      -0.00000000       18      -0.00756599       0.00000000       0.00000000
O        2.43392684       4.20746671       4.07813429       19       0.00756599       0.00000000       0.00000000
