20
Lattice="5.27039504827867 0.0 0.0 0.0 5.4461238122631785 0.0 0.0 0.0 7.9697077280682125" Properties=species:S:1:pos:R:3:spacegroup_kinds:I:1:forces:R:3 spacegroup="P 1" unit_cell=conventional occupancy="_JSON {\"0\": {\"In\": 1}, \"1\": {\"In\": 1}, \"2\": {\"In\": 1}, \"3\": {\"In\": 1}, \"4\": {\"In\": 1}, \"5\": {\"In\": 1}, \"6\": {\"In\": 1}, \"7\": {\"In\": 1}, \"8\": {\"O\": 1}, \"9\": {\"O\": 1}, \"10\": {\"O\": 1}, \"11\": {\"O\": 1}, \"12\": {\"O\": 1}, \"13\": {\"O\": 1}, \"14\": {\"O\": 1}, \"15\": {\"O\": 1}, \"16\": {\"O\": 1}, \"17\": {\"O\": 1}, \"18\": {\"O\": 1}, \"19\": {\"O\": 1}}" n_minim_iter=6 energy=-22572.06791404877 stress="-0.09294601975341678 0.0 0.0 0.0 -0.09315903233437314 0.0 0.0 0.0 -0.09301120894845082" pbc="T T T"
In       1.30574454       2.89208257       0.93921722        0       0.00341057       0.00676792      -0.00441098
In       1.32945299       0.16902067       3.04563664        1      -0.00341057       0.00676792       0.00441098
In       1.32945299       2.55404124       4.92407109        2      -0.00341057      -0.00676792      -0.00441098
In       1.30574454       5.27710315       7.03049051        3       0.00341057      -0.00676792       0.00441098
In       3.96465051       2.55404124       7.03049051        4      -0.00341057      -0.00676792       0.00441098
In       3.94094206       5.27710315       4.92407109        5       0.00341057      -0.00676792      -0.00441098
In       3.94094206       2.89208257       3.04563664        6       0.00341057       0.00676792       0.00441098
In       3.96465051       0.16902067       0.93921722        7      -0.00341057       0.00676792      -0.00441098
O        1.96687255       3.21205650       6.79575046        8       0.00104104      -0.00504682      -0.00766343
O        0.66832497       0.48899459       5.15881113        9      -0.00104104      -0.00504682       0.00766343
O        0.66832497       2.23406732       2.81089660       10      -0.00104104       0.00504682      -0.00766343
O        1.96687255       4.95712922       1.17395727       11       0.00104104       0.00504682       0.00766343
O        3.30352250       2.23406732       1.17395727       12      -0.00104104       0.00504682       0.00766343
O        4.60207008       4.95712922       2.81089660       13       0.00104104       0.00504682      -0.00766343
O        4.60207008       3.21205650       5.15881113       14       0.00104104      -0.00504682       0.00766343
O        3.30352250       0.48899459       6.79575046       15      -0.00104104      -0.00504682      -0.00766343
O        4.99012379       4.08459286      -0.00000000       16      -0.00542040       0.00000000      -0.00000000
O        2.91546878       1.36153095       3.98485386       17       0.00542040       0.00000000      -0.00000000
O        0.28027126       1.36153095      -0.00000000       18       0.00542040      -0.00000000       0.00000000
O        2.35492627       4.08459286       3.98485386       19      -0.00542040       0.00000000       0.00000000
