20
Lattice="5.213779675163858 0.0 0.0 0.0 5.394299237970574 0.0 0.0 0.0 7.9077131887963015" Properties=species:S:1:pos:R:3:spacegroup_kinds:I:1:forces:R:3 spacegroup="P 1" unit_cell=conventional occupancy="_JSON {\"0\": {\"In\": 1}, \"1\": {\"In\": 1}, \"2\": {\"In\": 1}, \"3\": {\"In\": 1}, \"4\": {\"In\": 1}, \"5\": {\"In\": 1}, \"6\": {\"In\": 1}, \"7\": {\"In\": 1}, \"8\": {\"O\": 1}, \"9\": {\"O\": 1}, \"10\": {\"O\": 1}, \"11\": {\"O\": 1}, \"12\": {\"O\": 1}, \"13\": {\"O\": 1}, \"14\": {\"O\": 1}, \"15\": {\"O\": 1}, \"16\": {\"O\": 1}, \"17\": {\"O\": 1}, \"18\": {\"O\": 1}, \"19\": {\"O\": 1}}" n_minim_iter=10 energy=-22571.33212796677 stress="-0.1339417600107496 0.0 0.0 0.0 -0.13395277790286805 0.0 0.0 0.0 -0.13402072157093176" pbc="T T T"
In       1.29014924       2.86899371       0.93794385        0       0.00334166       0.00878237      -0.00072557
In       1.31674060       0.17184409       3.01591275        1      -0.00334166       0.00878237       0.00072557
In       1.31674060       2.52530552       4.89180044        2      -0.00334166      -0.00878237      -0.00072557
In       1.29014924       5.22245514       6.96976934        3       0.00334166      -0.00878237       0.00072557
In       3.92363043       2.52530552       6.96976934        4      -0.00334166      -0.00878237       0.00072557
In       3.89703908       5.22245514       4.89180044        5       0.00334166      -0.00878237      -0.00072557
In       3.89703908       2.86899371       3.01591275        6       0.00334166       0.00878237       0.00072557
In       3.92363043       0.17184409       0.93794385        7      -0.00334166       0.00878237      -0.00072557
O        1.94232429       3.17914931       6.74633536        8      -0.00052939      -0.00617168      -0.00764132
O        0.66456554       0.48199970       5.11523442        9       0.00052939      -0.00617168       0.00764132
O        0.66456554       2.21514992       2.79247877       10       0.00052939       0.00617168      -0.00764132
O        1.94232429       4.91229954       1.16137783       11      -0.00052939       0.00617168       0.00764132
O        3.27145538       2.21514992       1.16137783       12       0.00052939       0.00617168       0.00764132
O        4.54921413       4.91229954       2.79247877       13      -0.00052939       0.00617168      -0.00764132
O        4.54921413       3.17914931       5.11523442       14      -0.00052939      -0.00617168       0.00764132
O        3.27145538       0.48199970       6.74633536       15       0.00052939      -0.00617168      -0.00764132
O        4.93084295       4.04572443      -0.00000000       16      -0.00234048       0.00000000       0.00000000
O        2.88982656       1.34857481       3.95385659       17       0.00234048      -0.00000000       0.00000000
O        0.28293672       1.34857481      -0.00000000       18       0.00234048      -0.00000000      -0.00000000
O        2.32395312       4.04572443       3.95385659       19      -0.00234048       0.00000000      -0.00000000
