20
Lattice="5.262969196347439 0.0 0.0 0.0 5.44519187501481 0.0 0.0 0.0 7.982318686083978" Properties=species:S:1:pos:R:3:spacegroup_kinds:I:1:forces:R:3 spacegroup="P 1" unit_cell=conventional occupancy="_JSON {\"0\": {\"In\": 1}, \"1\": {\"In\": 1}, \"2\": {\"In\": 1}, \"3\": {\"In\": 1}, \"4\": {\"In\": 1}, \"5\": {\"In\": 1}, \"6\": {\"In\": 1}, \"7\": {\"In\": 1}, \"8\": {\"O\": 1}, \"9\": {\"O\": 1}, \"10\": {\"O\": 1}, \"11\": {\"O\": 1}, \"12\": {\"O\": 1}, \"13\": {\"O\": 1}, \"14\": {\"O\": 1}, \"15\": {\"O\": 1}, \"16\": {\"O\": 1}, \"17\": {\"O\": 1}, \"18\": {\"O\": 1}, \"19\": {\"O\": 1}}" n_minim_iter=10 energy=-22571.33212796677 stress="-0.1339417600107496 0.0 0.0 0.0 -0.13395277790286805 0.0 0.0 0.0 -0.13402072157093176" pbc="T T T"
In       1.30232118       2.89606130       0.94679290        0       0.00334166       0.00878237      -0.00072557
In       1.32916342       0.17346536       3.04436644        1      -0.00334166       0.00878237       0.00072557
In       1.32916342       2.54913058       4.93795224        2      -0.00334166      -0.00878237      -0.00072557
In       1.30232118       5.27172651       7.03552579        3       0.00334166      -0.00878237       0.00072557
In       3.96064801       2.54913058       7.03552579        4      -0.00334166      -0.00878237       0.00072557
In       3.93380578       5.27172651       4.93795224        5       0.00334166      -0.00878237      -0.00072557
In       3.93380578       2.89606130       3.04436644        6       0.00334166       0.00878237       0.00072557
In       3.96064801       0.17346536       0.94679290        7      -0.00334166       0.00878237      -0.00072557
O        1.96064920       3.20914307       6.80998382        8      -0.00052939      -0.00617168      -0.00764132
O        0.67083540       0.48654713       5.16349421        9       0.00052939      -0.00617168       0.00764132
O        0.67083540       2.23604880       2.81882447       10       0.00052939       0.00617168      -0.00764132
O        1.96064920       4.95864474       1.17233487       11      -0.00052939       0.00617168       0.00764132
O        3.30232000       2.23604880       1.17233487       12       0.00052939       0.00617168       0.00764132
O        4.59213379       4.95864474       2.81882447       13      -0.00052939       0.00617168      -0.00764132
O        4.59213379       3.20914307       5.16349421       14      -0.00052939      -0.00617168       0.00764132
O        3.30232000       0.48654713       6.80998382       15       0.00052939      -0.00617168      -0.00764132
O        4.97736310       4.08389391      -0.00000000       16      -0.00234048       0.00000000       0.00000000
O        2.91709069       1.36129797       3.99115934       17       0.00234048      -0.00000000       0.00000000
O        0.28560609       1.36129797      -0.00000000       18       0.00234048      -0.00000000      -0.00000000
O        2.34587850       4.08389391       3.99115934       19      -0.00234048       0.00000000      -0.00000000
