20
Lattice="5.011810648764798 0.0 0.0 0.0 5.236689253212699 0.0 0.0 0.0 7.747633961541312" Properties=species:S:1:pos:R:3:spacegroup_kinds:I:1:forces:R:3 spacegroup="P 1" unit_cell=conventional occupancy="_JSON {\"0\": {\"In\": 1}, \"1\": {\"In\": 1}, \"2\": {\"In\": 1}, \"3\": {\"In\": 1}, \"4\": {\"In\": 1}, \"5\": {\"In\": 1}, \"6\": {\"In\": 1}, \"7\": {\"In\": 1}, \"8\": {\"O\": 1}, \"9\": {\"O\": 1}, \"10\": {\"O\": 1}, \"11\": {\"O\": 1}, \"12\": {\"O\": 1}, \"13\": {\"O\": 1}, \"14\": {\"O\": 1}, \"15\": {\"O\": 1}, \"16\": {\"O\": 1}, \"17\": {\"O\": 1}, \"18\": {\"O\": 1}, \"19\": {\"O\": 1}}" n_minim_iter=9 energy=-22567.27412662262 stress="-0.29642445139662094 0.0 0.0 0.0 -0.29639415219329535 0.0 0.0 0.0 -0.2963748708820881" pbc="T T T"
In       1.23105224       2.80411910       0.94132129        0       0.00272897      -0.00280276       0.00124081
In       1.27485308       0.18577447       2.93249569        1      -0.00272897      -0.00280276      -0.00124081
In       1.27485308       2.43257016       4.81513827        2      -0.00272897       0.00280276       0.00124081
In       1.23105224       5.05091478       6.80631267        3       0.00272897       0.00280276      -0.00124081
In       3.78075841       2.43257016       6.80631267        4      -0.00272897       0.00280276      -0.00124081
In       3.73695757       5.05091478       4.81513827        5       0.00272897       0.00280276       0.00124081
In       3.73695757       2.80411910       2.93249569        6       0.00272897      -0.00280276      -0.00124081
In       3.78075841       0.18577447       0.94132129        7      -0.00272897      -0.00280276       0.00124081
O        1.84889079       3.06799600       6.62447307        8       0.00044043      -0.00390679       0.00084486
O        0.65701454       0.44965138       4.99697788        9      -0.00044043      -0.00390679      -0.00084486
O        0.65701454       2.16869325       2.75065608       10      -0.00044043       0.00390679       0.00084486
O        1.84889079       4.78703788       1.12316090       11       0.00044043       0.00390679      -0.00084486
O        3.16291986       2.16869325       1.12316090       12      -0.00044043       0.00390679      -0.00084486
O        4.35479611       4.78703788       2.75065608       13       0.00044043       0.00390679       0.00084486
O        4.35479611       3.06799600       4.99697788       14       0.00044043      -0.00390679      -0.00084486
O        3.16291986       0.44965138       6.62447307       15      -0.00044043      -0.00390679       0.00084486
O        4.71507230       3.92751694      -0.00000000       16      -0.00336635      -0.00000000       0.00000000
O        2.80264367       1.30917231       3.87381698       17       0.00336635       0.00000000       0.00000000
O        0.29673835       1.30917231      -0.00000000       18       0.00336635       0.00000000      -0.00000000
O        2.20916698       3.92751694       3.87381698       19      -0.00336635       0.00000000      -0.00000000
