20
Lattice="5.086022628388431 0.0 0.0 0.0 5.2891395656395455 0.0 0.0 0.0 7.795091165613372" Properties=species:S:1:pos:R:3:spacegroup_kinds:I:1:forces:R:3 spacegroup="P 1" unit_cell=conventional occupancy="_JSON {\"0\": {\"In\": 1}, \"1\": {\"In\": 1}, \"2\": {\"In\": 1}, \"3\": {\"In\": 1}, \"4\": {\"In\": 1}, \"5\": {\"In\": 1}, \"6\": {\"In\": 1}, \"7\": {\"In\": 1}, \"8\": {\"O\": 1}, \"9\": {\"O\": 1}, \"10\": {\"O\": 1}, \"11\": {\"O\": 1}, \"12\": {\"O\": 1}, \"13\": {\"O\": 1}, \"14\": {\"O\": 1}, \"15\": {\"O\": 1}, \"16\": {\"O\": 1}, \"17\": {\"O\": 1}, \"18\": {\"O\": 1}, \"19\": {\"O\": 1}}" n_minim_iter=1 energy=-22567.265933410345 stress="-0.2982166951812194 0.0 0.0 0.0 -0.2990099834137465 0.0 0.0 0.0 -0.30065073118171654" pbc="T T T"
In       1.25342777       2.82474745       0.93864070        0       0.01736292       0.05012263       0.09759163
In       1.28958355       0.18017766       2.95890488        1      -0.01736292       0.05012263      -0.09759163
In       1.28958355       2.46439212       4.83618629        2      -0.01736292      -0.05012263       0.09759163
In       1.25342777       5.10896190       6.85645046        3       0.01736292      -0.05012263      -0.09759163
In       3.83259486       2.46439212       6.85645046        4      -0.01736292      -0.05012263      -0.09759163
In       3.79643908       5.10896190       4.83618629        5       0.01736292      -0.05012263       0.09759163
In       3.79643908       2.82474745       2.95890488        6       0.01736292       0.05012263      -0.09759163
In       3.83259486       0.18017766       0.93864070        7      -0.01736292       0.05012263       0.09759163
O        1.88434021       3.10663881       6.65894182        8      -0.03238356      -0.01103132       0.05658304
O        0.65867111       0.46206903       5.03369493        9       0.03238356      -0.01103132      -0.05658304
O        0.65867111       2.18250076       2.76139624       10       0.03238356       0.01103132       0.05658304
O        1.88434021       4.82707054       1.13614934       11      -0.03238356       0.01103132      -0.05658304
O        3.20168242       2.18250076       1.13614934       12       0.03238356       0.01103132      -0.05658304
O        4.42735152       4.82707054       2.76139624       13      -0.03238356       0.01103132       0.05658304
O        4.42735152       3.10663881       5.03369493       14      -0.03238356      -0.01103132      -0.05658304
O        3.20168242       0.46206903       6.65894182       15       0.03238356      -0.01103132       0.05658304
O        4.79535067       3.96685467      -0.00000000       16      -0.01551892       0.00000000       0.00000000
O        2.83368327       1.32228489       3.89754558       17       0.01551892       0.00000000       0.00000000
O        0.29067196       1.32228489      -0.00000000       18       0.01551892       0.00000000      -0.00000000
O        2.25233936       3.96685467       3.89754558       19      -0.01551892       0.00000000       0.00000000
20
Lattice="5.081964737748532 0.0 0.0 0.0 5.288031128045864 0.0 0.0 0.0 7.802950710118037" Properties=species:S:1:pos:R:3:spacegroup_kinds:I:1:forces:R:3 spacegroup="P 1" unit_cell=conventional occupancy="_JSON {\"0\": {\"In\": 1}, \"1\": {\"In\": 1}, \"2\": {\"In\": 1}, \"3\": {\"In\": 1}, \"4\": {\"In\": 1}, \"5\": {\"In\": 1}, \"6\": {\"In\": 1}, \"7\": {\"In\": 1}, \"8\": {\"O\": 1}, \"9\": {\"O\": 1}, \"10\": {\"O\": 1}, \"11\": {\"O\": 1}, \"12\": {\"O\": 1}, \"13\": {\"O\": 1}, \"14\": {\"O\": 1}, \"15\": {\"O\": 1}, \"16\": {\"O\": 1}, \"17\": {\"O\": 1}, \"18\": {\"O\": 1}, \"19\": {\"O\": 1}}" n_minim_iter=2 energy=-22567.26656308182 stress="-0.2994966069823106 0.0 0.0 0.0 -0.29922024152167326 0.0 0.0 0.0 -0.29867761033484047" pbc="T T T"
In       1.25248910       2.82433278       0.93993276        0      -0.00291203       0.04091680       0.10227155
In       1.28849327       0.18031721       2.96154260        1       0.00291203       0.04091680      -0.10227155
In       1.28849327       2.46369835       4.84140811        2       0.00291203      -0.04091680       0.10227155
In       1.25248910       5.10771392       6.86301795        3      -0.00291203      -0.04091680      -0.10227155
In       3.82947563       2.46369835       6.86301795        4       0.00291203      -0.04091680      -0.10227155
In       3.79347147       5.10771392       4.84140811        5      -0.00291203      -0.04091680       0.10227155
In       3.79347147       2.82433278       2.96154260        6      -0.00291203       0.04091680      -0.10227155
In       3.82947563       0.18031721       0.93993276        7       0.00291203       0.04091680       0.10227155
O        1.88272229       3.10594873       6.66585623        8      -0.05246259      -0.01959078       0.04048999
O        0.65826007       0.46193317       5.03856983        9       0.05246259      -0.01959078      -0.04048999
O        0.65826007       2.18208240       2.76438088       10       0.05246259       0.01959078       0.04048999
O        1.88272229       4.82609796       1.13709448       11      -0.05246259       0.01959078      -0.04048999
O        3.19924244       2.18208240       1.13709448       12       0.05246259       0.01959078      -0.04048999
O        4.42370466       4.82609796       2.76438088       13      -0.05246259       0.01959078       0.04048999
O        4.42370466       3.10594873       5.03856983       14      -0.05246259      -0.01959078      -0.04048999
O        3.19924244       0.46193317       6.66585623       15       0.05246259      -0.01959078       0.04048999
O        4.79146983       3.96602335      -0.00000000       16      -0.02570512       0.00000000       0.00000000
O        2.83147728       1.32200778       3.90147536       17       0.02570512      -0.00000000       0.00000000
O        0.29049491       1.32200778      -0.00000000       18       0.02570512       0.00000000       0.00000000
O        2.25048746       3.96602335       3.90147536       19      -0.02570512       0.00000000       0.00000000
20
Lattice="5.076811682008746 0.0 0.0 0.0 5.286288277303114 0.0 0.0 0.0 7.813446033538456" Properties=species:S:1:pos:R:3:spacegroup_kinds:I:1:forces:R:3 spacegroup="P 1" unit_cell=conventional occupancy="_JSON {\"0\": {\"In\": 1}, \"1\": {\"In\": 1}, \"2\": {\"In\": 1}, \"3\": {\"In\": 1}, \"4\": {\"In\": 1}, \"5\": {\"In\": 1}, \"6\": {\"In\": 1}, \"7\": {\"In\": 1}, \"8\": {\"O\": 1}, \"9\": {\"O\": 1}, \"10\": {\"O\": 1}, \"11\": {\"O\": 1}, \"12\": {\"O\": 1}, \"13\": {\"O\": 1}, \"14\": {\"O\": 1}, \"15\": {\"O\": 1}, \"16\": {\"O\": 1}, \"17\": {\"O\": 1}, \"18\": {\"O\": 1}, \"19\": {\"O\": 1}}" n_minim_iter=3 energy=-22567.27038247196 stress="-0.2980523449571194 0.0 0.0 0.0 -0.2984774519613555 0.0 0.0 0.0 -0.29671367106472984" pbc="T T T"
In       1.25142315       2.82607878       0.94738871        0      -0.05834991      -0.01498002      -0.02116455
In       1.28698269       0.18293464       2.95933430        1       0.05834991      -0.01498002       0.02116455
In       1.28698269       2.46020950       4.85411173        2       0.05834991       0.01498002      -0.02116455
In       1.25142315       5.10335364       6.86605732        3      -0.05834991       0.01498002       0.02116455
In       3.82538853       2.46020950       6.86605732        4       0.05834991       0.01498002       0.02116455
In       3.78982899       5.10335364       4.85411173        5      -0.05834991       0.01498002      -0.02116455
In       3.78982899       2.82607878       2.95933430        6      -0.05834991      -0.01498002       0.02116455
In       3.82538853       0.18293464       0.94738871        7       0.05834991      -0.01498002      -0.02116455
O        1.87798726       3.10388796       6.67761290        8      -0.02762496      -0.04152255       0.03869022
O        0.66041858       0.46074382       5.04255615        9       0.02762496      -0.04152255      -0.03869022
O        0.66041858       2.18240031       2.77088988       10       0.02762496       0.04152255       0.03869022
O        1.87798726       4.82554445       1.13583314       11      -0.02762496       0.04152255      -0.03869022
O        3.19882442       2.18240031       1.13583314       12       0.02762496       0.04152255      -0.03869022
O        4.41639310       4.82554445       2.77088988       13      -0.02762496       0.04152255       0.03869022
O        4.41639310       3.10388796       5.04255615       14      -0.02762496      -0.04152255      -0.03869022
O        3.19882442       0.46074382       6.67761290       15       0.02762496      -0.04152255       0.03869022
O        4.78523325       3.96471621      -0.00000000       16      -0.07431851      -0.00000000      -0.00000000
O        2.82998428       1.32157207       3.90672302       17       0.07431851       0.00000000      -0.00000000
O        0.29157844       1.32157207      -0.00000000       18       0.07431851       0.00000000       0.00000000
O        2.24682740       3.96471621       3.90672302       19      -0.07431851       0.00000000       0.00000000
20
Lattice="5.070664063327989 0.0 0.0 0.0 5.295372799197408 0.0 0.0 0.0 7.809498296386493" Properties=species:S:1:pos:R:3:spacegroup_kinds:I:1:forces:R:3 spacegroup="P 1" unit_cell=conventional occupancy="_JSON {\"0\": {\"In\": 1}, \"1\": {\"In\": 1}, \"2\": {\"In\": 1}, \"3\": {\"In\": 1}, \"4\": {\"In\": 1}, \"5\": {\"In\": 1}, \"6\": {\"In\": 1}, \"7\": {\"In\": 1}, \"8\": {\"O\": 1}, \"9\": {\"O\": 1}, \"10\": {\"O\": 1}, \"11\": {\"O\": 1}, \"12\": {\"O\": 1}, \"13\": {\"O\": 1}, \"14\": {\"O\": 1}, \"15\": {\"O\": 1}, \"16\": {\"O\": 1}, \"17\": {\"O\": 1}, \"18\": {\"O\": 1}, \"19\": {\"O\": 1}}" n_minim_iter=4 energy=-22567.271064661407 stress="-0.2992955304511491 0.0 0.0 0.0 -0.295019670151521 0.0 0.0 0.0 -0.2979384934052291" pbc="T T T"
In       1.24921336       2.83136068       0.94792341        0      -0.06558859       0.01362736      -0.04079955
In       1.28611867       0.18367428       2.95682574        1       0.06558859       0.01362736       0.04079955
In       1.28611867       2.46401212       4.85267256        2       0.06558859      -0.01362736      -0.04079955
In       1.24921336       5.11169852       6.86157488        3      -0.06558859      -0.01362736       0.04079955
In       3.82145070       2.46401212       6.86157488        4       0.06558859      -0.01362736       0.04079955
In       3.78454539       5.11169852       4.85267256        5      -0.06558859      -0.01362736      -0.04079955
In       3.78454539       2.83136068       2.95682574        6      -0.06558859       0.01362736       0.04079955
In       3.82145070       0.18367428       0.94792341        7       0.06558859       0.01362736      -0.04079955
O        1.87480877       3.10842640       6.67553827        8      -0.03138726      -0.01231738       0.03190996
O        0.66052327       0.46074000       5.03870918        9       0.03138726      -0.01231738      -0.03190996
O        0.66052327       2.18694640       2.77078912       10       0.03138726       0.01231738       0.03190996
O        1.87480877       4.83463280       1.13396003       11      -0.03138726       0.01231738      -0.03190996
O        3.19585530       2.18694640       1.13396003       12       0.03138726       0.01231738      -0.03190996
O        4.41014080       4.83463280       2.77078912       13      -0.03138726       0.01231738       0.03190996
O        4.41014080       3.10842640       5.03870918       14      -0.03138726      -0.01231738      -0.03190996
O        3.19585530       0.46074000       6.67553827       15       0.03138726      -0.01231738       0.03190996
O        4.77809365       3.97152960      -0.00000000       16      -0.06875645       0.00000000       0.00000000
O        2.82790244       1.32384320       3.90474915       17       0.06875645      -0.00000000       0.00000000
O        0.29257041       1.32384320      -0.00000000       18       0.06875645      -0.00000000      -0.00000000
O        2.24276162       3.97152960       3.90474915       19      -0.06875645       0.00000000       0.00000000
20
Lattice="5.073343295713749 0.0 0.0 0.0 5.2898581075867614 0.0 0.0 0.0 7.813511224602053" Properties=species:S:1:pos:R:3:spacegroup_kinds:I:1:forces:R:3 spacegroup="P 1" unit_cell=conventional occupancy="_JSON {\"0\": {\"In\": 1}, \"1\": {\"In\": 1}, \"2\": {\"In\": 1}, \"3\": {\"In\": 1}, \"4\": {\"In\": 1}, \"5\": {\"In\": 1}, \"6\": {\"In\": 1}, \"7\": {\"In\": 1}, \"8\": {\"O\": 1}, \"9\": {\"O\": 1}, \"10\": {\"O\": 1}, \"11\": {\"O\": 1}, \"12\": {\"O\": 1}, \"13\": {\"O\": 1}, \"14\": {\"O\": 1}, \"15\": {\"O\": 1}, \"16\": {\"O\": 1}, \"17\": {\"O\": 1}, \"18\": {\"O\": 1}, \"19\": {\"O\": 1}}" n_minim_iter=5 energy=-22567.272794625274 stress="-0.29471851443361713 0.0 0.0 0.0 -0.2967540700024975 0.0 0.0 0.0 -0.29800919154632205" pbc="T T T"
In       1.24703133       2.82976667       0.95071091        0       0.00053839       0.00513655      -0.02731746
In       1.28964032       0.18483762       2.95604470        1      -0.00053839       0.00513655       0.02731746
In       1.28964032       2.46009144       4.85746653        2      -0.00053839      -0.00513655      -0.02731746
In       1.24703133       5.10502049       6.86280031        3       0.00053839      -0.00513655       0.02731746
In       3.82631197       2.46009144       6.86280031        4      -0.00053839      -0.00513655       0.02731746
In       3.78370297       5.10502049       4.85746653        5       0.00053839      -0.00513655      -0.02731746
In       3.78370297       2.82976667       2.95604470        6       0.00053839       0.00513655       0.02731746
In       3.82631197       0.18483762       0.95071091        7      -0.00053839       0.00513655      -0.02731746
O        1.87285461       3.10270920       6.68318551        8       0.02155690      -0.02127639      -0.02162992
O        0.66381704       0.45778015       5.03708132        9      -0.02155690      -0.02127639       0.02162992
O        0.66381704       2.18714890       2.77642990       10      -0.02155690       0.02127639      -0.02162992
O        1.87285461       4.83207796       1.13032571       11       0.02155690       0.02127639       0.02162992
O        3.20048868       2.18714890       1.13032571       12      -0.02155690       0.02127639       0.02162992
O        4.40952626       4.83207796       2.77642990       13       0.02155690       0.02127639      -0.02162992
O        4.40952626       3.10270920       5.03708132       14       0.02155690      -0.02127639       0.02162992
O        3.20048868       0.45778015       6.68318551       15      -0.02155690      -0.02127639      -0.02162992
O        4.77582291       3.96739358      -0.00000000       16      -0.01138690      -0.00000000       0.00000000
O        2.83419204       1.32246453       3.90675561       17       0.01138690       0.00000000       0.00000000
O        0.29752039       1.32246453      -0.00000000       18       0.01138690      -0.00000000       0.00000000
O        2.23915126       3.96739358       3.90675561       19      -0.01138690       0.00000000      -0.00000000
20
Lattice="5.069767926880258 0.0 0.0 0.0 5.290185761250667 0.0 0.0 0.0 7.81853729241396" Properties=species:S:1:pos:R:3:spacegroup_kinds:I:1:forces:R:3 spacegroup="P 1" unit_cell=conventional occupancy="_JSON {\"0\": {\"In\": 1}, \"1\": {\"In\": 1}, \"2\": {\"In\": 1}, \"3\": {\"In\": 1}, \"4\": {\"In\": 1}, \"5\": {\"In\": 1}, \"6\": {\"In\": 1}, \"7\": {\"In\": 1}, \"8\": {\"O\": 1}, \"9\": {\"O\": 1}, \"10\": {\"O\": 1}, \"11\": {\"O\": 1}, \"12\": {\"O\": 1}, \"13\": {\"O\": 1}, \"14\": {\"O\": 1}, \"15\": {\"O\": 1}, \"16\": {\"O\": 1}, \"17\": {\"O\": 1}, \"18\": {\"O\": 1}, \"19\": {\"O\": 1}}" n_minim_iter=6 energy=-22567.273360894214 stress="-0.2963445716787624 0.0 0.0 0.0 -0.2966925534381696 0.0 0.0 0.0 -0.29692943811871575" pbc="T T T"
In       1.24607390       2.82971085       0.95043707        0      -0.00505068       0.01302341      -0.00673089
In       1.28881006       0.18461797       2.95883158        1       0.00505068       0.01302341       0.00673089
In       1.28881006       2.46047491       4.85970571        2       0.00505068      -0.01302341      -0.00673089
In       1.24607390       5.10556779       6.86810023        3      -0.00505068      -0.01302341       0.00673089
In       3.82369402       2.46047491       6.86810023        4       0.00505068      -0.01302341       0.00673089
In       3.78095787       5.10556779       4.85970571        5      -0.00505068      -0.01302341      -0.00673089
In       3.78095787       2.82971085       2.95883158        6      -0.00505068       0.01302341       0.00673089
In       3.82369402       0.18461797       0.95043707        7       0.00505068       0.01302341      -0.00673089
O        1.87193748       3.10283102       6.68665189        8      -0.00185685      -0.01887756      -0.02262314
O        0.66294648       0.45773814       5.04115405        9       0.00185685      -0.01887756       0.02262314
O        0.66294648       2.18735474       2.77738325       10       0.00185685       0.01887756      -0.02262314
O        1.87193748       4.83244762       1.13188540       11      -0.00185685       0.01887756       0.02262314
O        3.19783045       2.18735474       1.13188540       12       0.00185685       0.01887756       0.02262314
O        4.40682144       4.83244762       2.77738325       13      -0.00185685       0.01887756      -0.02262314
O        4.40682144       3.10283102       5.04115405       14      -0.00185685      -0.01887756       0.02262314
O        3.19783045       0.45773814       6.68665189       15       0.00185685      -0.01887756      -0.02262314
O        4.77257521       3.96763932      -0.00000000       16      -0.01163167       0.00000000      -0.00000000
O        2.83207668       1.32254644       3.90926865       17       0.01163167       0.00000000       0.00000000
O        0.29719272       1.32254644      -0.00000000       18       0.01163167      -0.00000000       0.00000000
O        2.23769125       3.96763932       3.90926865       19      -0.01163167       0.00000000       0.00000000
20
Lattice="5.064486223095046 0.0 0.0 0.0 5.290428120487104 0.0 0.0 0.0 7.826332621757876" Properties=species:S:1:pos:R:3:spacegroup_kinds:I:1:forces:R:3 spacegroup="P 1" unit_cell=conventional occupancy="_JSON {\"0\": {\"In\": 1}, \"1\": {\"In\": 1}, \"2\": {\"In\": 1}, \"3\": {\"In\": 1}, \"4\": {\"In\": 1}, \"5\": {\"In\": 1}, \"6\": {\"In\": 1}, \"7\": {\"In\": 1}, \"8\": {\"O\": 1}, \"9\": {\"O\": 1}, \"10\": {\"O\": 1}, \"11\": {\"O\": 1}, \"12\": {\"O\": 1}, \"13\": {\"O\": 1}, \"14\": {\"O\": 1}, \"15\": {\"O\": 1}, \"16\": {\"O\": 1}, \"17\": {\"O\": 1}, \"18\": {\"O\": 1}, \"19\": {\"O\": 1}}" n_minim_iter=7 energy=-22567.273676002067 stress="-0.29745003352131166 0.0 0.0 0.0 -0.29648964059165517 0.0 0.0 0.0 -0.29587631126372893" pbc="T T T"
In       1.24399766       2.83040354       0.95095245        0       0.00186868       0.02156693       0.00701706
In       1.28824545       0.18518948       2.96221386        1      -0.00186868       0.02156693      -0.00701706
In       1.28824545       2.46002458       4.86411876        2      -0.00186868      -0.02156693       0.00701706
In       1.24399766       5.10523864       6.87538017        3       0.00186868      -0.02156693      -0.00701706
In       3.82048856       2.46002458       6.87538017        4      -0.00186868      -0.02156693      -0.00701706
In       3.77624077       5.10523864       4.86411876        5       0.00186868      -0.02156693       0.00701706
In       3.77624077       2.83040354       2.96221386        6       0.00186868       0.02156693      -0.00701706
In       3.82048856       0.18518948       0.95095245        7      -0.00186868       0.02156693       0.00701706
O        1.86959676       3.10179457       6.69249566        8      -0.01781003      -0.01096987      -0.01554412
O        0.66264635       0.45658051       5.04700327        9       0.01781003      -0.01096987       0.01554412
O        0.66264635       2.18863355       2.77932935       10       0.01781003       0.01096987      -0.01554412
O        1.86959676       4.83384761       1.13383696       11      -0.01781003       0.01096987       0.01554412
O        3.19488946       2.18863355       1.13383696       12       0.01781003       0.01096987       0.01554412
O        4.40183987       4.83384761       2.77932935       13      -0.01781003       0.01096987      -0.01554412
O        4.40183987       3.10179457       5.04700327       14      -0.01781003      -0.01096987       0.01554412
O        3.19488946       0.45658051       6.69249566       15       0.01781003      -0.01096987      -0.01554412
O        4.76644606       3.96782109      -0.00000000       16      -0.00365791      -0.00000000       0.00000000
O        2.83028327       1.32260703       3.91316631       17       0.00365791       0.00000000      -0.00000000
O        0.29804016       1.32260703      -0.00000000       18       0.00365791       0.00000000       0.00000000
O        2.23420295       3.96782109       3.91316631       19      -0.00365791       0.00000000       0.00000000
20
Lattice="5.06319233824759 0.0 0.0 0.0 5.290303307765883 0.0 0.0 0.0 7.828517311262196" Properties=species:S:1:pos:R:3:spacegroup_kinds:I:1:forces:R:3 spacegroup="P 1" unit_cell=conventional occupancy="_JSON {\"0\": {\"In\": 1}, \"1\": {\"In\": 1}, \"2\": {\"In\": 1}, \"3\": {\"In\": 1}, \"4\": {\"In\": 1}, \"5\": {\"In\": 1}, \"6\": {\"In\": 1}, \"7\": {\"In\": 1}, \"8\": {\"O\": 1}, \"9\": {\"O\": 1}, \"10\": {\"O\": 1}, \"11\": {\"O\": 1}, \"12\": {\"O\": 1}, \"13\": {\"O\": 1}, \"14\": {\"O\": 1}, \"15\": {\"O\": 1}, \"16\": {\"O\": 1}, \"17\": {\"O\": 1}, \"18\": {\"O\": 1}, \"19\": {\"O\": 1}}" n_minim_iter=8 energy=-22567.27404430818 stress="-0.29615910382810196 0.0 0.0 0.0 -0.296359262201587 0.0 0.0 0.0 -0.29646117770368247" pbc="T T T"
In       1.24307120       2.83231754       0.95177960        0       0.01602260       0.00848490      -0.01215335
In       1.28852496       0.18716589       2.96247906        1      -0.01602260       0.00848490       0.01215335
In       1.28852496       2.45798577       4.86603825        2      -0.01602260      -0.00848490      -0.01215335
In       1.24307120       5.10313742       6.87673771        3       0.01602260      -0.00848490       0.01215335
In       3.82012113       2.45798577       6.87673771        4      -0.01602260      -0.00848490       0.01215335
In       3.77466737       5.10313742       4.86603825        5       0.01602260      -0.00848490      -0.01215335
In       3.77466737       2.83231754       2.96247906        6       0.01602260       0.00848490       0.01215335
In       3.82012113       0.18716589       0.95177960        7      -0.01602260       0.00848490      -0.01215335
O        1.86777740       3.09967694       6.69379638        8       0.00329538      -0.00281433       0.00952337
O        0.66381876       0.45452529       5.04897959        9      -0.00329538      -0.00281433      -0.00952337
O        0.66381876       2.19062636       2.77953772       10      -0.00329538       0.00281433       0.00952337
O        1.86777740       4.83577802       1.13472094       11       0.00329538       0.00281433      -0.00952337
O        3.19541493       2.19062636       1.13472094       12      -0.00329538       0.00281433      -0.00952337
O        4.39937357       4.83577802       2.77953772       13       0.00329538       0.00281433       0.00952337
O        4.39937357       3.09967694       5.04897959       14       0.00329538      -0.00281433      -0.00952337
O        3.19541493       0.45452529       6.69379638       15      -0.00329538      -0.00281433       0.00952337
O        4.76338693       3.96772748      -0.00000000       16       0.00015735      -0.00000000       0.00000000
O        2.83140158       1.32257583       3.91425866       17      -0.00015735       0.00000000       0.00000000
O        0.29980541       1.32257583      -0.00000000       18      -0.00015735       0.00000000       0.00000000
O        2.23179076       3.96772748       3.91425866       19       0.00015735       0.00000000       0.00000000
20
Lattice="5.06348244239219 0.0 0.0 0.0 5.2906795464113205 0.0 0.0 0.0 7.827512107628096" Properties=species:S:1:pos:R:3:spacegroup_kinds:I:1:forces:R:3 spacegroup="P 1" unit_cell=conventional occupancy="_JSON {\"0\": {\"In\": 1}, \"1\": {\"In\": 1}, \"2\": {\"In\": 1}, \"3\": {\"In\": 1}, \"4\": {\"In\": 1}, \"5\": {\"In\": 1}, \"6\": {\"In\": 1}, \"7\": {\"In\": 1}, \"8\": {\"O\": 1}, \"9\": {\"O\": 1}, \"10\": {\"O\": 1}, \"11\": {\"O\": 1}, \"12\": {\"O\": 1}, \"13\": {\"O\": 1}, \"14\": {\"O\": 1}, \"15\": {\"O\": 1}, \"16\": {\"O\": 1}, \"17\": {\"O\": 1}, \"18\": {\"O\": 1}, \"19\": {\"O\": 1}}" n_minim_iter=9 energy=-22567.27412662262 stress="-0.29642445139662094 0.0 0.0 0.0 -0.29639415219329535 0.0 0.0 0.0 -0.2963748708820881" pbc="T T T"
In       1.24374440       2.83302958       0.95102632        0       0.00272897      -0.00280276       0.00124081
In       1.28799682       0.18768981       2.96272973        1      -0.00272897      -0.00280276      -0.00124081
In       1.28799682       2.45764997       4.86478237        2      -0.00272897       0.00280276       0.00124081
In       1.24374440       5.10298974       6.87648579        3       0.00272897       0.00280276      -0.00124081
In       3.81973804       2.45764997       6.87648579        4      -0.00272897       0.00280276      -0.00124081
In       3.77548562       5.10298974       4.86478237        5       0.00272897       0.00280276       0.00124081
In       3.77548562       2.83302958       2.96272973        6       0.00272897      -0.00280276      -0.00124081
In       3.81973804       0.18768981       0.95102632        7      -0.00272897      -0.00280276       0.00124081
O        1.86795286       3.09962706       6.69277142        8       0.00044043      -0.00390679       0.00084486
O        0.66378836       0.45428728       5.04849674        9      -0.00044043      -0.00390679      -0.00084486
O        0.66378836       2.19105249       2.77901536       10      -0.00044043       0.00390679       0.00084486
O        1.86795286       4.83639226       1.13474069       11       0.00044043       0.00390679      -0.00084486
O        3.19552958       2.19105249       1.13474069       12      -0.00044043       0.00390679      -0.00084486
O        4.39969408       4.83639226       2.77901536       13       0.00044043       0.00390679       0.00084486
O        4.39969408       3.09962706       5.04849674       14       0.00044043      -0.00390679      -0.00084486
O        3.19552958       0.45428728       6.69277142       15      -0.00044043      -0.00390679       0.00084486
O        4.76368472       3.96800966      -0.00000000       16      -0.00336635      -0.00000000       0.00000000
O        2.83153894       1.32266989       3.91375605       17       0.00336635       0.00000000       0.00000000
O        0.29979772       1.32266989      -0.00000000       18       0.00336635       0.00000000      -0.00000000
O        2.23194350       3.96800966       3.91375605       19      -0.00336635       0.00000000      -0.00000000
