20
Lattice="5.136886263877661 0.0 0.0 0.0 5.342034506652341 0.0 0.0 0.0 7.873047302387129" Properties=species:S:1:pos:R:3:spacegroup_kinds:I:1:forces:R:3 spacegroup="P 1" unit_cell=conventional occupancy="_JSON {\"0\": {\"In\": 1}, \"1\": {\"In\": 1}, \"2\": {\"In\": 1}, \"3\": {\"In\": 1}, \"4\": {\"In\": 1}, \"5\": {\"In\": 1}, \"6\": {\"In\": 1}, \"7\": {\"In\": 1}, \"8\": {\"O\": 1}, \"9\": {\"O\": 1}, \"10\": {\"O\": 1}, \"11\": {\"O\": 1}, \"12\": {\"O\": 1}, \"13\": {\"O\": 1}, \"14\": {\"O\": 1}, \"15\": {\"O\": 1}, \"16\": {\"O\": 1}, \"17\": {\"O\": 1}, \"18\": {\"O\": 1}, \"19\": {\"O\": 1}}" n_minim_iter=12 energy=-22568.975199344233 stress="-0.23467559317654482 0.0 0.0 0.0 -0.23467100238816213 0.0 0.0 0.0 -0.23501439335918636" pbc="T T T"
In       1.26596288       2.85299681       0.94802774        0       0.00464933       0.00472157      -0.00113206
In       1.30248025       0.18197956       2.98849591        1      -0.00464933       0.00472157       0.00113206
In       1.30248025       2.48903769       4.88455139        2      -0.00464933      -0.00472157      -0.00113206
In       1.26596288       5.16005495       6.92501956        3       0.00464933      -0.00472157       0.00113206
In       3.87092338       2.48903769       6.92501956        4      -0.00464933      -0.00472157       0.00113206
In       3.83440602       5.16005495       4.88455139        5       0.00464933      -0.00472157      -0.00113206
In       3.83440602       2.85299681       2.98849591        6       0.00464933       0.00472157       0.00113206
In       3.87092338       0.18197956       0.94802774        7      -0.00464933       0.00472157      -0.00113206
O        1.90318487       3.13770728       6.72553570        8       0.00044660      -0.00269169       0.00396027
O        0.66525826       0.46669003       5.08403525        9      -0.00044660      -0.00269169      -0.00396027
O        0.66525826       2.20432723       2.78901205       10      -0.00044660       0.00269169       0.00396027
O        1.90318487       4.87534448       1.14751160       11       0.00044660       0.00269169      -0.00396027
O        3.23370139       2.20432723       1.14751160       12      -0.00044660       0.00269169      -0.00396027
O        4.47162801       4.87534448       2.78901205       13       0.00044660       0.00269169       0.00396027
O        4.47162801       3.13770728       5.08403525       14       0.00044660      -0.00269169      -0.00396027
O        3.23370139       0.46669003       6.72553570       15      -0.00044660      -0.00269169       0.00396027
O        4.84330739       4.00652588      -0.00000000       16      -0.00067697      -0.00000000       0.00000000
O        2.86202200       1.33550863       3.93652365       17       0.00067697       0.00000000       0.00000000
O        0.29357887       1.33550863      -0.00000000       18       0.00067697       0.00000000      -0.00000000
O        2.27486426       4.00652588       3.93652365       19      -0.00067697      -0.00000000      -0.00000000
