20
Lattice="5.318749997462859 0.0 0.0 0.0 5.4960910420022095 0.0 0.0 0.0 8.042828397140154" Properties=species:S:1:pos:R:3:spacegroup_kinds:I:1:forces:R:3 spacegroup="P 1" unit_cell=conventional occupancy="_JSON {\"0\": {\"In\": 1}, \"1\": {\"In\": 1}, \"2\": {\"In\": 1}, \"3\": {\"In\": 1}, \"4\": {\"In\": 1}, \"5\": {\"In\": 1}, \"6\": {\"In\": 1}, \"7\": {\"In\": 1}, \"8\": {\"O\": 1}, \"9\": {\"O\": 1}, \"10\": {\"O\": 1}, \"11\": {\"O\": 1}, \"12\": {\"O\": 1}, \"13\": {\"O\": 1}, \"14\": {\"O\": 1}, \"15\": {\"O\": 1}, \"16\": {\"O\": 1}, \"17\": {\"O\": 1}, \"18\": {\"O\": 1}, \"19\": {\"O\": 1}}" n_minim_iter=6 energy=-22572.06791404877 stress="-0.09294601975341678 0.0 0.0 0.0 -0.09315903233437314 0.0 0.0 0.0 -0.09301120894845082" pbc="T T T"
In       1.31772451       2.91861692       0.94783438        0       0.00341057       0.00676792      -0.00441098
In       1.34165049       0.17057140       3.07357982        1      -0.00341057       0.00676792       0.00441098
In       1.34165049       2.57747412       4.96924857        2      -0.00341057      -0.00676792      -0.00441098
In       1.31772451       5.32551964       7.09499402        3       0.00341057      -0.00676792       0.00441098
In       4.00102549       2.57747412       7.09499402        4      -0.00341057      -0.00676792       0.00441098
In       3.97709951       5.32551964       4.96924857        5       0.00341057      -0.00676792      -0.00441098
In       3.97709951       2.91861692       3.07357982        6       0.00341057       0.00676792       0.00441098
In       4.00102549       0.17057140       0.94783438        7      -0.00341057       0.00676792      -0.00441098
O        1.98491826       3.24152655       6.85810028        8       0.00104104      -0.00504682      -0.00766343
O        0.67445674       0.49348103       5.20614232        9      -0.00104104      -0.00504682       0.00766343
O        0.67445674       2.25456449       2.83668608       10      -0.00104104       0.00504682      -0.00766343
O        1.98491826       5.00261001       1.18472812       11       0.00104104       0.00504682       0.00766343
O        3.33383173       2.25456449       1.18472812       12      -0.00104104       0.00504682       0.00766343
O        4.64429326       5.00261001       2.83668608       13       0.00104104       0.00504682      -0.00766343
O        4.64429326       3.24152655       5.20614232       14       0.00104104      -0.00504682       0.00766343
O        3.33383173       0.49348103       6.85810028       15      -0.00104104      -0.00504682      -0.00766343
O        5.03590730       4.12206828      -0.00000000       16      -0.00542040       0.00000000      -0.00000000
O        2.94221769       1.37402276       4.02141420       17       0.00542040       0.00000000      -0.00000000
O        0.28284270       1.37402276      -0.00000000       18       0.00542040      -0.00000000       0.00000000
O        2.37653230       4.12206828       4.02141420       19      -0.00542040       0.00000000       0.00000000
