80
Lattice="11.758812762970885 0.0 0.0 6.452317444010323 9.830426094342354 0.0 6.452317444010323 3.4829815090918417 9.192720870539437" Properties=species:S:1:pos:R:3:initial_magmoms:R:1:forces:R:3 uid=supercell-004.xyz_R3c type=Bulk energy=-90301.46469580736 stress="0.002168837391392295 -0.0007454098349979708 -0.0005021150805453061 -0.0007454098349979708 0.0031824158793300516 -0.00027795852343668595 -0.0005021150805453061 -0.00027795852343668595 0.0033577942923965804" virial="-2.0693926224628905e-06 7.819625567135347e-07 5.313889197556067e-07 7.819625567135347e-07 -3.1304423679261176e-06 2.955040822055568e-07 5.313889197556067e-07 2.955040822055568e-07 -3.3196686661805538e-06" pbc="T T T"
In      10.57093864       5.70622635       3.94006911      10.00000000       0.00364580       0.00180264       0.00121264
In      16.45034502       5.70622635       3.94006911      10.00000000       0.00211280       0.00108450       0.00119415
In      13.79709736      10.62143940       3.94006911      10.00000000       0.00043305       0.00023494       0.00029142
In      19.67650374      10.62143940       3.94006911      10.00000000       0.00370405       0.00190531       0.00061036
In      13.79709736       7.44771711       8.53642955      10.00000000      -0.00907353      -0.01322490       0.00303417
In      19.67650374       7.44771711       8.53642955      10.00000000       0.00547243      -0.00048958       0.00198801
In      17.02325608      12.36293015       8.53642955      10.00000000       0.00500592       0.00731780       0.00356849
In      22.90266246      12.36293015       8.53642955      10.00000000       0.00144144       0.00174924       0.00050341
In       7.92664710       4.27882935       2.95447155      10.00000000      -0.00048029      -0.00165250       0.00376455
In      13.80605348       4.27882935       2.95447155      10.00000000      -0.00319375      -0.00262866      -0.00135402
In      11.15280582       9.19404240       2.95447155      10.00000000      -0.00339532       0.00086817      -0.00523858
In      17.03221221       9.19404240       2.95447155      10.00000000      -0.00233058      -0.00113708      -0.00087650
In      11.15280582       6.02032010       7.55083198      10.00000000      -0.01036827      -0.00985175      -0.00173197
In      17.03221221       6.02032010       7.55083198      10.00000000       0.00084064      -0.00156166      -0.00343846
In      14.37896455      10.93553315       7.55083198      10.00000000      -0.00157439       0.00041433      -0.00138022
In      20.25837093      10.93553315       7.55083198      10.00000000      -0.00365955      -0.00040768      -0.00088812
In       4.40507673       2.37787445       1.64188889      10.00000000      -0.01430678      -0.00496785       0.01364820
In      10.28448311       2.37787445       1.64188889      10.00000000       0.00544533       0.00078874       0.00321402
In       7.63123545       7.29308750       1.64188889      10.00000000       0.00452883       0.00621774       0.00151579
In      13.51064183       7.29308750       1.64188889      10.00000000       0.00167206       0.00331742       0.00126026
In       7.63123545       4.11936520       6.23824933      10.00000000       0.00369701       0.00129546       0.00197404
In      13.51064183       4.11936520       6.23824933      10.00000000       0.00072686      -0.00172270       0.00235844
In      10.85739417       9.03457825       6.23824933      10.00000000       0.00104761       0.00274308      -0.00265423
In      16.73680055       9.03457825       6.23824933      10.00000000       0.00351329       0.00277255       0.00061230
In       1.76078518       0.95047746       0.65629133      10.00000000       0.00190124      -0.00143753      -0.00094818
In       7.64019156       0.95047746       0.65629133      10.00000000      -0.00448885      -0.01213189       0.00072624
In       4.98694390       5.86569050       0.65629133      10.00000000      -0.00646380       0.00168857       0.00040609
In      10.86635028       5.86569050       0.65629133      10.00000000      -0.00140880       0.00008493      -0.00082674
In       4.98694390       2.69196821       5.25265176      10.00000000      -0.00303159      -0.00297773      -0.00258255
In      10.86635028       2.69196821       5.25265176      10.00000000      -0.00182707      -0.00022676       0.00144354
In       8.21310263       7.60718126       5.25265176      10.00000000      -0.00247593      -0.00076003      -0.00051347
In      14.09250901       7.60718126       5.25265176      10.00000000      -0.00234768      -0.00014402      -0.00316730
O        6.01682673       2.30047915       0.21474656       4.00000000       0.05485283       0.06421530      -0.03737844
O       11.90204053       2.30932705       0.21474656       4.00000000      -0.00312087       0.00954166      -0.01334651
O        9.24879287       7.22454010       0.21474656       4.00000000      -0.00167784       0.00717747      -0.01281630
O       15.12819925       7.22454010       0.21474656       4.00000000       0.00118596       0.00822668      -0.01338491
O        9.24879287       4.05081780       4.81110699       4.00000000      -0.00089587       0.00957779      -0.01429548
O       15.12819925       4.05081780       4.81110699       4.00000000       0.00004299       0.00986959      -0.01320596
O       12.47495159       8.96603085       4.81110699       4.00000000       0.00028090       0.00835741      -0.01132719
O       18.35435798       8.96603085       4.81110699       4.00000000      -0.00042237       0.00867478      -0.01308736
O        7.09636398       5.12094207       1.14909010       4.00000000      -0.01030674       0.00265025      -0.00611463
O       12.97577036       5.12094207       1.14909010       4.00000000      -0.00788774       0.01443840       0.00018629
O       10.32252270      10.03615511       1.14909010       4.00000000      -0.01578611       0.00589488       0.00265877
O       16.20192908      10.03615511       1.14909010       4.00000000      -0.00751562       0.01518939      -0.00010271
O       10.32252270       6.86243282       5.74545054       4.00000000      -0.00695004       0.01481731       0.00017209
O       16.20192908       6.86243282       5.74545054       4.00000000      -0.00802762       0.01390906       0.00087635
O       13.54868142      11.77764587       5.74545054       4.00000000      -0.00748761       0.01416879       0.00018332
O       19.42808780      11.77764587       5.74545054       4.00000000      -0.00711672       0.01331797      -0.00051069
O        8.17506304       2.18091283       2.51292678       4.00000000       0.00656829      -0.00296853      -0.01676062
O       14.05446942       2.18091283       2.51292678       4.00000000       0.00686631      -0.00413838      -0.01213443
O       11.40122176       7.09612588       2.51292678       4.00000000       0.00722421      -0.00635927      -0.01274295
O       17.28062814       7.09612588       2.51292678       4.00000000       0.00850975      -0.00594023      -0.01400033
O       11.40122176       3.92240358       7.10928721       4.00000000       0.00657083      -0.00958766      -0.02109622
O       17.28062814       3.92240358       7.10928721       4.00000000       0.00722266      -0.00432958      -0.01300503
O       14.62738048       8.83761663       7.10928721       4.00000000       0.00683496      -0.00607021      -0.01207858
O       20.50678687       8.83761663       7.10928721       4.00000000       0.00851729      -0.00476900      -0.01327730
O        4.15666079       4.47579097       2.08343366       4.00000000      -0.00559634       0.00645883       0.01234640
O       10.03606717       4.47579097       2.08343366       4.00000000      -0.00882243       0.00417822       0.01269959
O        7.38281951       9.39100402       2.08343366       4.00000000      -0.00926601       0.00425267       0.01369310
O       13.26222589       9.39100402       2.08343366       4.00000000      -0.00558809       0.00174422       0.01642672
O        7.38281951       6.21728172       6.67979410       4.00000000      -0.00835194       0.00494217       0.01230903
O       13.26222589       6.21728172       6.67979410       4.00000000      -0.00687666       0.00834302       0.02103668
O       10.60897823      11.13249477       6.67979410       4.00000000      -0.00716905       0.00409149       0.01383664
O       16.48838462      11.13249477       6.67979410       4.00000000      -0.00834306       0.00344793       0.01294230
O        6.30908968       4.34737676       4.38161388       4.00000000       0.00028181      -0.00878880       0.01232691
O       12.18849606       4.34737676       4.38161388       4.00000000       0.00036974      -0.00837011       0.01278328
O        9.53524840       9.26258981       4.38161388       4.00000000      -0.00062089      -0.00958710       0.01432603
O       15.41465478       9.26258981       4.38161388       4.00000000       0.00036992      -0.00932863       0.01352762
O        9.53524840       6.08886751       8.97797431       4.00000000      -0.00826397      -0.00495930       0.01086320
O       15.41465478       6.08886751       8.97797431       4.00000000      -0.01289695      -0.00638247       0.01467328
O       12.76140712      11.00408056       8.97797431       4.00000000       0.00007785      -0.01077698       0.01389267
O       18.64081350      11.00408056       8.97797431       4.00000000       0.00018793      -0.01027978       0.01294913
O        5.23535984       1.53576173       3.44727032       4.00000000       0.00851850      -0.01364667       0.00473048
O       11.11476623       1.53576173       3.44727032       4.00000000       0.00687655      -0.01404375      -0.00041546
O        8.46151857       6.45097478       3.44727032       4.00000000       0.00649680      -0.01526921      -0.00157314
O       14.34092495       6.45097478       3.44727032       4.00000000       0.00809401      -0.01440055       0.00077800
O        8.46151857       3.27725249       8.04363076       4.00000000       0.00632773      -0.01481835      -0.00136109
O       14.34092495       3.27725249       8.04363076       4.00000000       0.01027510      -0.01481678      -0.00129544
O       11.68767729       8.19246553       8.04363076       4.00000000       0.01512920      -0.02152994       0.00725707
O       17.56708367       8.19246553       8.04363076       4.00000000       0.00654623      -0.01528709       0.00011007
