80
Lattice="11.758812762970885 0.0 0.0 6.452317444010323 9.830426094342354 0.0 6.452317444010323 3.4829815090918417 9.192720870539437" Properties=species:S:1:pos:R:3:initial_magmoms:R:1:forces:R:3 uid=supercell-001.xyz_R3c type=Bulk energy=-90301.46450876296 stress="0.0022051658103065305 -0.0007190854623125101 -0.000506686667768508 -0.0007190854623125101 0.0031655740381595567 -0.0002252027441003826 -0.000506686667768508 -0.0002252027441003826 0.0033910220452080817" virial="-2.108274738542569e-06 7.534490049217705e-07 5.296608257076208e-07 7.534490049217705e-07 -3.1079771453023037e-06 2.4106911969400687e-07 5.296608257076208e-07 2.4106911969400687e-07 -3.3412698417803747e-06" pbc="T T T"
In      10.58152218       5.70622635       3.94006911      10.00000000      -0.13034029       0.01460075       0.00955849
In      16.45034502       5.70622635       3.94006911      10.00000000       0.00977944       0.00168468       0.00087533
In      13.79709736      10.62143940       3.94006911      10.00000000       0.00489859       0.00461364       0.00153219
In      19.67650374      10.62143940       3.94006911      10.00000000       0.00210080      -0.00336231      -0.00008793
In      13.79709736       7.44771711       8.53642955      10.00000000       0.00337963       0.00407278       0.00476274
In      19.67650374       7.44771711       8.53642955      10.00000000       0.00164176      -0.00111500      -0.00282567
In      17.02325608      12.36293015       8.53642955      10.00000000      -0.00062942       0.00052325       0.00019292
In      22.90266246      12.36293015       8.53642955      10.00000000       0.00459425       0.00182237       0.00126064
In       7.92664710       4.27882935       2.95447155      10.00000000       0.01943879       0.01877582       0.01306502
In      13.80605348       4.27882935       2.95447155      10.00000000       0.01377364      -0.00721844      -0.00980701
In      11.15280582       9.19404240       2.95447155      10.00000000      -0.00618203       0.00580944       0.00081853
In      17.03221221       9.19404240       2.95447155      10.00000000      -0.00086284      -0.00278058      -0.00114630
In      11.15280582       6.02032010       7.55083198      10.00000000      -0.00623085       0.00065346       0.00115928
In      17.03221221       6.02032010       7.55083198      10.00000000      -0.00086127      -0.00134437      -0.00107386
In      14.37896455      10.93553315       7.55083198      10.00000000      -0.00266717      -0.00015670      -0.00086916
In      20.25837093      10.93553315       7.55083198      10.00000000      -0.00131793      -0.00295926      -0.00090169
In       4.40507673       2.37787445       1.64188889      10.00000000       0.00377831       0.00200043       0.00048728
In      10.28448311       2.37787445       1.64188889      10.00000000       0.00089552       0.00422138       0.00119206
In       7.63123545       7.29308750       1.64188889      10.00000000       0.00866004      -0.00437469       0.01308850
In      13.51064183       7.29308750       1.64188889      10.00000000       0.00850484       0.00492433      -0.00444458
In       7.63123545       4.11936520       6.23824933      10.00000000       0.00982908       0.00420659      -0.00576658
In      13.51064183       4.11936520       6.23824933      10.00000000       0.00966628      -0.00157105       0.01114502
In      10.85739417       9.03457825       6.23824933      10.00000000       0.00090522       0.00068337       0.00179904
In      16.73680055       9.03457825       6.23824933      10.00000000       0.00377379       0.00199781       0.00049697
In       1.76078518       0.95047746       0.65629133      10.00000000      -0.00459095      -0.00331587      -0.00230554
In       7.64019156       0.95047746       0.65629133      10.00000000      -0.00134859       0.00014499       0.00024965
In       4.98694390       5.86569050       0.65629133      10.00000000       0.00039344      -0.00086762      -0.00040119
In      10.86635028       5.86569050       0.65629133      10.00000000      -0.01160926      -0.00602647      -0.00621791
In       4.98694390       2.69196821       5.25265176      10.00000000       0.00088071      -0.00098083      -0.00103052
In      10.86635028       2.69196821       5.25265176      10.00000000      -0.01998700      -0.00670195       0.00196891
In       8.21310263       7.60718126       5.25265176      10.00000000       0.00530546      -0.01912199      -0.01770973
In      14.09250901       7.60718126       5.25265176      10.00000000       0.00290574       0.00359177       0.00247533
O        6.02263415       2.30932705       0.21474656       4.00000000      -0.00055408       0.00841875      -0.01402794
O       11.90204053       2.30932705       0.21474656       4.00000000       0.00080687       0.00934961      -0.01271324
O        9.24879287       7.22454010       0.21474656       4.00000000       0.00309522       0.00985646      -0.01482826
O       15.12819925       7.22454010       0.21474656       4.00000000      -0.00149158       0.00896382      -0.01262222
O        9.24879287       4.05081780       4.81110699       4.00000000       0.01488998       0.01371493      -0.01570871
O       15.12819925       4.05081780       4.81110699       4.00000000      -0.00618872       0.00994245      -0.01372761
O       12.47495159       8.96603085       4.81110699       4.00000000      -0.00014638       0.00653034      -0.01503248
O       18.35435798       8.96603085       4.81110699       4.00000000      -0.00199035       0.01198369      -0.01231474
O        7.09636398       5.12094207       1.14909010       4.00000000      -0.01002355       0.01227778      -0.00435448
O       12.97577036       5.12094207       1.14909010       4.00000000      -0.00811915       0.01563547       0.00524290
O       10.32252270      10.03615511       1.14909010       4.00000000      -0.00622084       0.01303042       0.00097720
O       16.20192908      10.03615511       1.14909010       4.00000000      -0.00837720       0.01404420      -0.00027390
O       10.32252270       6.86243282       5.74545054       4.00000000       0.00244564       0.00935457      -0.00591346
O       16.20192908       6.86243282       5.74545054       4.00000000      -0.00967036       0.01402288      -0.00061900
O       13.54868142      11.77764587       5.74545054       4.00000000      -0.00917073       0.01182766      -0.00006860
O       19.42808780      11.77764587       5.74545054       4.00000000      -0.00897661       0.01913377      -0.00172892
O        8.17506304       2.18091283       2.51292678       4.00000000       0.00673647      -0.00821700      -0.01467765
O       14.05446942       2.18091283       2.51292678       4.00000000       0.00668159      -0.00162149      -0.01150455
O       11.40122176       7.09612588       2.51292678       4.00000000       0.02243196       0.00673820      -0.02456444
O       17.28062814       7.09612588       2.51292678       4.00000000       0.00268190      -0.00496309      -0.01331002
O       11.40122176       3.92240358       7.10928721       4.00000000       0.01143731      -0.00430604      -0.01613834
O       17.28062814       3.92240358       7.10928721       4.00000000       0.00611943      -0.00549880      -0.01295183
O       14.62738048       8.83761663       7.10928721       4.00000000       0.00725843      -0.00617339      -0.01425202
O       20.50678687       8.83761663       7.10928721       4.00000000       0.00749270      -0.00401590      -0.01210195
O        4.15666079       4.47579097       2.08343366       4.00000000      -0.00985276       0.00450622       0.01403525
O       10.03606717       4.47579097       2.08343366       4.00000000       0.00363110       0.00796225       0.01614174
O        7.38281951       9.39100402       2.08343366       4.00000000      -0.00801872       0.00868740       0.01254048
O       13.26222589       9.39100402       2.08343366       4.00000000      -0.00950143       0.00205523       0.01353229
O        7.38281951       6.21728172       6.67979410       4.00000000      -0.00924497       0.00586296       0.01684281
O       13.26222589       6.21728172       6.67979410       4.00000000      -0.00868575       0.00181061       0.00884664
O       10.60897823      11.13249477       6.67979410       4.00000000      -0.00813488       0.00514787       0.01308866
O       16.48838462      11.13249477       6.67979410       4.00000000      -0.00643344       0.00399260       0.01409203
O        6.30908968       4.34737676       4.38161388       4.00000000      -0.00558078      -0.01060718       0.01448929
O       12.18849606       4.34737676       4.38161388       4.00000000       0.03660081      -0.03137535       0.01833803
O        9.53524840       9.26258981       4.38161388       4.00000000       0.00262703      -0.00637925       0.01291616
O       15.41465478       9.26258981       4.38161388       4.00000000      -0.00128023      -0.00990332       0.01318970
O        9.53524840       6.08886751       8.97797431       4.00000000       0.00025798      -0.00894804       0.01433028
O       15.41465478       6.08886751       8.97797431       4.00000000      -0.00099466      -0.00957466       0.01177724
O       12.76140712      11.00408056       8.97797431       4.00000000      -0.00070975      -0.00898236       0.01267405
O       18.64081350      11.00408056       8.97797431       4.00000000      -0.00001096      -0.00960242       0.01557348
O        5.23535984       1.53576173       3.44727032       4.00000000       0.00686563      -0.01471982      -0.00037201
O       11.11476623       1.53576173       3.44727032       4.00000000       0.00993983      -0.01208503       0.00147617
O        8.46151857       6.45097478       3.44727032       4.00000000       0.02637488      -0.01798552       0.00062038
O       14.34092495       6.45097478       3.44727032       4.00000000       0.00154046      -0.01601579       0.00013149
O        8.46151857       3.27725249       8.04363076       4.00000000       0.00831166      -0.01448159       0.00197821
O       14.34092495       3.27725249       8.04363076       4.00000000       0.00674589      -0.01407523      -0.00095990
O       11.68767729       8.19246553       8.04363076       4.00000000       0.00779649      -0.01429099      -0.00009548
O       17.56708367       8.19246553       8.04363076       4.00000000       0.00813090      -0.01345761       0.00048705
