80
Lattice="11.758812762970885 0.0 0.0 6.452317444010323 9.830426094342354 0.0 6.452317444010323 3.4829815090918417 9.192720870539437" Properties=species:S:1:pos:R:3:initial_magmoms:R:1:forces:R:3 uid=supercell-002.xyz_R3c type=Bulk energy=-90301.46445507267 stress="0.002155711634999336 -0.0007797900123973867 -0.0005319827718342687 -0.0007797900123973867 0.003166086809597003 -0.00033345474513966363 -0.0005319827718342687 -0.00033345474513966363 0.003369511474080854" virial="-2.043471211743105e-06 8.182525317212349e-07 5.58174377499385e-07 8.182525317212349e-07 -3.1097052393502893e-06 3.4389071554915676e-07 5.58174377499385e-07 3.4389071554915676e-07 -3.3248529483245103e-06" pbc="T T T"
In      10.56035509       5.70622635       3.94006911      10.00000000       0.13437771      -0.01035746      -0.00763097
In      16.45034502       5.70622635       3.94006911      10.00000000      -0.00432277       0.00126515       0.00117560
In      13.79709736      10.62143940       3.94006911      10.00000000       0.00058306      -0.00167749       0.00050647
In      19.67650374      10.62143940       3.94006911      10.00000000       0.00341185       0.00629200       0.00213333
In      13.79709736       7.44771711       8.53642955      10.00000000       0.00211684      -0.00111939      -0.00273342
In      19.67650374       7.44771711       8.53642955      10.00000000       0.00385796       0.00409234       0.00488945
In      17.02325608      12.36293015       8.53642955      10.00000000       0.00612278       0.00244981       0.00184786
In      22.90266246      12.36293015       8.53642955      10.00000000       0.00088153       0.00113417       0.00078629
In       7.92664710       4.27882935       2.95447155      10.00000000      -0.02506665      -0.02199617      -0.01527413
In      13.80605348       4.27882935       2.95447155      10.00000000      -0.01918426       0.00425889       0.00777024
In      11.15280582       9.19404240       2.95447155      10.00000000       0.00072740      -0.00888276      -0.00286158
In      17.03221221       9.19404240       2.95447155      10.00000000      -0.00464029      -0.00014594      -0.00090531
In      11.15280582       6.02032010       7.55083198      10.00000000       0.00067813      -0.00355972      -0.00330322
In      17.03221221       6.02032010       7.55083198      10.00000000      -0.00463786      -0.00160788      -0.00095171
In      14.37896455      10.93553315       7.55083198      10.00000000      -0.00281360      -0.00280353      -0.00117515
In      20.25837093      10.93553315       7.55083198      10.00000000      -0.00416271      -0.00001077      -0.00112743
In       4.40507673       2.37787445       1.64188889      10.00000000       0.00169154       0.00095273       0.00154594
In      10.28448311       2.37787445       1.64188889      10.00000000       0.00455696      -0.00120343       0.00083013
In       7.63123545       7.29308750       1.64188889      10.00000000      -0.00304093       0.00726141      -0.01088421
In      13.51064183       7.29308750       1.64188889      10.00000000      -0.00319761      -0.00201922       0.00655206
In       7.63123545       4.11936520       6.23824933      10.00000000      -0.00414849      -0.00124214       0.00771726
In      13.51064183       4.11936520       6.23824933      10.00000000      -0.00431582       0.00458189      -0.00915413
In      10.85739417       9.03457825       6.23824933      10.00000000       0.00456696       0.00223489       0.00024681
In      16.73680055       9.03457825       6.23824933      10.00000000       0.00168692       0.00095158       0.00155644
In       1.76078518       0.95047746       0.65629133      10.00000000      -0.00088704       0.00036556       0.00023652
In       7.64019156       0.95047746       0.65629133      10.00000000      -0.00412886      -0.00312538      -0.00228423
In       4.98694390       5.86569050       0.65629133      10.00000000      -0.00588714      -0.00209770      -0.00170704
In      10.86635028       5.86569050       0.65629133      10.00000000       0.00611572       0.00304880       0.00442051
In       4.98694390       2.69196821       5.25265176      10.00000000      -0.00638120      -0.00199536      -0.00099723
In      10.86635028       2.69196821       5.25265176      10.00000000       0.01441700       0.00391825      -0.00405562
In       8.21310263       7.60718126       5.25265176      10.00000000      -0.01074116       0.01620567       0.01566397
In      14.09250901       7.60718126       5.25265176      10.00000000      -0.00806276      -0.00633805      -0.00438158
O        6.02263415       2.30932705       0.21474656       4.00000000       0.00056817       0.00985952      -0.01241001
O       11.90204053       2.30932705       0.21474656       4.00000000      -0.00080076       0.00889839      -0.01374261
O        9.24879287       7.22454010       0.21474656       4.00000000      -0.00310793       0.00840672      -0.01158075
O       15.12819925       7.22454010       0.21474656       4.00000000       0.00150277       0.00929760      -0.01382166
O        9.24879287       4.05081780       4.81110699       4.00000000      -0.01539297       0.00391399      -0.01039850
O       15.12819925       4.05081780       4.81110699       4.00000000       0.00631640       0.00829470      -0.01270244
O       12.47495159       8.96603085       4.81110699       4.00000000       0.00017156       0.01171641      -0.01143154
O       18.35435798       8.96603085       4.81110699       4.00000000       0.00203722       0.00623192      -0.01415100
O        7.09636398       5.12094207       1.14909010       4.00000000      -0.00503791       0.01609404       0.00455169
O       12.97577036       5.12094207       1.14909010       4.00000000      -0.00703882       0.01261034      -0.00532047
O       10.32252270      10.03615511       1.14909010       4.00000000      -0.00905352       0.01525305      -0.00097640
O       16.20192908      10.03615511       1.14909010       4.00000000      -0.00688893       0.01423746       0.00027936
O       10.32252270       6.86243282       5.74545054       4.00000000      -0.01753541       0.01896210       0.00589964
O       16.20192908       6.86243282       5.74545054       4.00000000      -0.00558969       0.01425289       0.00060680
O       13.54868142      11.77764587       5.74545054       4.00000000      -0.00608385       0.01645494       0.00005454
O       19.42808780      11.77764587       5.74545054       4.00000000      -0.00632910       0.00917909       0.00170963
O        8.17506304       2.18091283       2.51292678       4.00000000       0.00855972      -0.00179795      -0.01174228
O       14.05446942       2.18091283       2.51292678       4.00000000       0.00858386      -0.00840974      -0.01492991
O       11.40122176       7.09612588       2.51292678       4.00000000      -0.00700767      -0.01621933      -0.00228880
O       17.28062814       7.09612588       2.51292678       4.00000000       0.01260575      -0.00508235      -0.01310163
O       11.40122176       3.92240358       7.10928721       4.00000000       0.00388043      -0.00575457      -0.01032322
O       17.28062814       3.92240358       7.10928721       4.00000000       0.00914070      -0.00452176      -0.01350591
O       14.62738048       8.83761663       7.10928721       4.00000000       0.00799957      -0.00385195      -0.01218498
O       20.50678687       8.83761663       7.10928721       4.00000000       0.00776273      -0.00599601      -0.01432499
O        4.15666079       4.47579097       2.08343366       4.00000000      -0.00537820       0.00551891       0.01242490
O       10.03606717       4.47579097       2.08343366       4.00000000      -0.01895396       0.00196936       0.01017303
O        7.38281951       9.39100402       2.08343366       4.00000000      -0.00722480       0.00128504       0.01393511
O       13.26222589       9.39100402       2.08343366       4.00000000      -0.00571625       0.00801484       0.01290655
O        7.38281951       6.21728172       6.67979410       4.00000000      -0.00602211       0.00415123       0.00957789
O       13.26222589       6.21728172       6.67979410       4.00000000      -0.00653805       0.00817668       0.01757844
O       10.60897823      11.13249477       6.67979410       4.00000000      -0.00712319       0.00487288       0.01335373
O       16.48838462      11.13249477       6.67979410       4.00000000      -0.00883703       0.00604454       0.01233790
O        6.30908968       4.34737676       4.38161388       4.00000000       0.00601203      -0.00749422       0.01191295
O       12.18849606       4.34737676       4.38161388       4.00000000      -0.03423381       0.01101305       0.00883999
O        9.53524840       9.26258981       4.38161388       4.00000000      -0.00267351      -0.01185346       0.01351150
O       15.41465478       9.26258981       4.38161388       4.00000000       0.00127877      -0.00836697       0.01325149
O        9.53524840       6.08886751       8.97797431       4.00000000      -0.00026238      -0.00931457       0.01212667
O       15.41465478       6.08886751       8.97797431       4.00000000       0.00097038      -0.00869150       0.01464581
O       12.76140712      11.00408056       8.97797431       4.00000000       0.00071163      -0.00928670       0.01378390
O       18.64081350      11.00408056       8.97797431       4.00000000      -0.00000458      -0.00866475       0.01086329
O        5.23535984       1.53576173       3.44727032       4.00000000       0.00840809      -0.01353985       0.00037452
O       11.11476623       1.53576173       3.44727032       4.00000000       0.00533469      -0.01614417      -0.00144068
O        8.46151857       6.45097478       3.44727032       4.00000000      -0.01309965      -0.00948807      -0.00122260
O       14.34092495       6.45097478       3.44727032       4.00000000       0.01378826      -0.01226281      -0.00012683
O        8.46151857       3.27725249       8.04363076       4.00000000       0.00696290      -0.01379276      -0.00199581
O       14.34092495       3.27725249       8.04363076       4.00000000       0.00852263      -0.01420221       0.00095914
O       11.68767729       8.19246553       8.04363076       4.00000000       0.00749876      -0.01397899       0.00012479
O       17.56708367       8.19246553       8.04363076       4.00000000       0.00714381      -0.01482577      -0.00051215
