1
Lattice="4.6009595199155235 -0.1594068324015247 -2.778651987517613e-10 0.1594068324015248 4.6009595199155235 -9.195528390709575e-10 -2.3801831759396475 -2.220776343113971 3.255321723725132" Properties=species:S:1:pos:R:3:spacegroup_kinds:I:1:forces:R:3 spacegroup="P 1" unit_cell=conventional occupancy="_JSON {\"0\": {\"In\": 1}}" n_minim_iter=1 energy=-1970.1802011423504 stress="-0.05431751483001746 -6.034339672845707e-19 2.413735869138283e-18 -6.034339672845707e-19 -0.05431751483001746 8.246930886222468e-18 2.413735869138283e-18 8.246930886222468e-18 -0.05431751483001744" free_energy=-1970.1802011423504 pbc="T T T"
In       0.00000000       0.00000000       0.00000000        0       0.00000000       0.00000000       0.00000000
