1
Lattice="5.125324800516541 -0.17757421858262792 -3.0953312856341573e-10 0.1775742185826281 5.125324800516541 -1.0243530618570909e-09 -2.651449509305763 -2.4738752902506422 3.6263264417016683" Properties=species:S:1:pos:R:3:spacegroup_kinds:I:1:forces:R:3 spacegroup="P 1" unit_cell=conventional occupancy="_JSON {\"0\": {\"In\": 1}}" n_minim_iter=1 energy=-1970.234820302658 stress="0.04304517629192417 -4.6562847972029265e-18 -1.1640711993007315e-17 -4.6562847972029265e-18 0.04304517629192417 3.4922135979021945e-18 -1.1640711993007315e-17 3.4922135979021945e-18 0.043045176291924156" free_energy=-1970.234820302658 pbc="T T T"
In       0.00000000       0.00000000       0.00000000        0       0.00000000       0.00000000       0.00000000
