1
Lattice="4.936720466620027 -0.1710397513017267 -2.98142769551295e-10 0.17103975130172755 4.936720466620028 -9.866583918750158e-10 -2.5538801087260277 -2.382840356969196 3.4928830191580813" Properties=species:S:1:pos:R:3:spacegroup_kinds:I:1:forces:R:3 spacegroup="P 1" unit_cell=conventional occupancy="_JSON {\"0\": {\"In\": 1}}" n_minim_iter=1 energy=-1970.488311096654 stress="0.013697424046425457 3.8867282405127065e-14 -1.6283138799742378e-19 3.8867282405127065e-14 0.013697424047545875 -8.141569399871189e-19 -1.6283138799742378e-19 -8.141569399871189e-19 0.013697424047547221" free_energy=-1970.488311096654 pbc="T T T"
In       0.00000000       0.00000000       0.00000000        0       0.00000000       0.00000000      -0.00000000
