1
Lattice="4.555402472984791 -0.15782844326044215 -2.751138774577665e-10 0.15782844326044182 4.55540247298479 -9.104477574758003e-10 -2.356615457905906 -2.198787014225512 3.223088698439766" Properties=species:S:1:pos:R:3:spacegroup_kinds:I:1:forces:R:3 spacegroup="P 1" unit_cell=conventional occupancy="_JSON {\"0\": {\"In\": 1}}" n_minim_iter=1 energy=-1970.0626119832627 stress="-0.06138305178833668 2.3234768982406e-13 -4.744853948086633e-12 2.3234768982406e-13 -0.0613830517816385 1.643885297579897e-13 -4.744853948086633e-12 1.643885297579897e-13 -0.06138305178498755" free_energy=-1970.0626119832627 pbc="T T T"
In       0.00000000       0.00000000       0.00000000        0       0.00000000       0.00000000      -0.00000000
