1
Lattice="5.161419826368554 -0.1788247824512328 -3.117130111488912e-10 0.17882478245123187 5.161419826368554 -1.0315670534943803e-09 -2.6701223041643543 -2.4912975212373016 3.651864793270698" Properties=species:S:1:pos:R:3:spacegroup_kinds:I:1:forces:R:3 spacegroup="P 1" unit_cell=conventional occupancy="_JSON {\"0\": {\"In\": 1}}" n_minim_iter=1 energy=-1970.1370835728007 stress="0.05345269550657525 1.709729573972951e-18 -1.709729573972951e-18 1.709729573972951e-18 0.053452695506575304 -7.408828153882787e-18 -1.709729573972951e-18 -7.408828153882787e-18 0.05345269550657528" free_energy=-1970.1370835728007 pbc="T T T"
In       0.00000000       0.00000000       0.00000000        0       0.00000000       0.00000000      -0.00000000
