1
Lattice="5.013869185076816 -0.1737126791507553 -3.0280200289123493e-10 0.17371267915075472 5.013869185076816 -1.0020774197504e-09 -2.593790931875265 -2.4200782522622935 3.5474681329941933" Properties=species:S:1:pos:R:3:spacegroup_kinds:I:1:forces:R:3 spacegroup="P 1" unit_cell=conventional occupancy="_JSON {\"0\": {\"In\": 1}}" n_minim_iter=1 energy=-1970.4565936832012 stress="0.017095008964803017 -3.180892230647349e-18 -5.040123739460724e-16 -3.180892230647349e-18 0.01709500896480301 1.8290130326222256e-17 -5.040123739460724e-16 1.8290130326222256e-17 0.017095008964803367" free_energy=-1970.4565936832012 pbc="T T T"
In       0.00000000       0.00000000       0.00000000        0       0.00000000       0.00000000       0.00000000
