1
Lattice="4.508915530618189 -0.15621783656011884 -2.723063970997792e-10 0.15621783656011853 4.5089155306181885 -9.011568259542551e-10 -2.332566683374655 -2.17634884639887 3.1901977432595445" Properties=species:S:1:pos:R:3:spacegroup_kinds:I:1:forces:R:3 spacegroup="P 1" unit_cell=conventional occupancy="_JSON {\"0\": {\"In\": 1}}" n_minim_iter=1 energy=-1970.0626119832627 stress="-0.06138305178833668 2.3234768982406e-13 -4.744853948086633e-12 2.3234768982406e-13 -0.0613830517816385 1.643885297579897e-13 -4.744853948086633e-12 1.643885297579897e-13 -0.06138305178498755" free_energy=-1970.0626119832627 pbc="T T T"
In       0.00000000       0.00000000       0.00000000        0       0.00000000       0.00000000      -0.00000000
