1
Lattice="4.732486109834306 -0.16396375949135752 -2.8580846838730766e-10 0.16396375949135697 4.732486109834305 -9.458398882505075e-10 -2.448224934437697 -2.284261174510063 3.348380870095966" Properties=species:S:1:pos:R:3:spacegroup_kinds:I:1:forces:R:3 spacegroup="P 1" unit_cell=conventional occupancy="_JSON {\"0\": {\"In\": 1}}" n_minim_iter=1 energy=-1970.4817832793472 stress="-0.01856731581732174 1.4740793465076002e-14 -7.6487901993526755e-19 1.4740793465076002e-14 -0.018567315816896832 3.0595160797410702e-18 -7.6487901993526755e-19 3.0595160797410702e-18 -0.018567315817322252" free_energy=-1970.4817832793472 pbc="T T T"
In       0.00000000       0.00000000       0.00000000        0       0.00000000       0.00000000       0.00000000
