1
Lattice="5.197016950047017 -0.18005809578590284 -3.1386282398786347e-10 0.18005809578590193 5.197016950047017 -1.0386815338546618e-09 -2.688537522669227 -2.508479426404223 3.67705086359169" Properties=species:S:1:pos:R:3:spacegroup_kinds:I:1:forces:R:3 spacegroup="P 1" unit_cell=conventional occupancy="_JSON {\"0\": {\"In\": 1}}" n_minim_iter=1 energy=-1970.1370835728007 stress="0.05345269550657525 1.709729573972951e-18 -1.709729573972951e-18 1.709729573972951e-18 0.053452695506575304 -7.408828153882787e-18 -1.709729573972951e-18 -7.408828153882787e-18 0.05345269550657528" free_energy=-1970.1370835728007 pbc="T T T"
In       0.00000000       0.00000000       0.00000000        0       0.00000000       0.00000000      -0.00000000
