1
Lattice="4.412951876895221 -0.15289303833065537 -2.665108756223009e-10 0.15289303833065446 4.412951876895221 -8.819774243866888e-10 -2.2829224574030045 -2.1300294186655293 3.122300478504181" Properties=species:S:1:pos:R:3:spacegroup_kinds:I:1:forces:R:3 spacegroup="P 1" unit_cell=conventional occupancy="_JSON {\"0\": {\"In\": 1}}" n_minim_iter=1 energy=-1969.7930590978965 stress="-0.0692689921892655 -1.1740829907914085e-12 1.7210367326290034e-12 -1.1740829907914085e-12 -0.06926899218910257 1.6057740448905783e-12 1.7210367326290034e-12 1.6057740448905783e-12 -0.06926899219036091" free_energy=-1969.7930590978965 pbc="T T T"
In       0.00000000       0.00000000       0.00000000        0       0.00000000       0.00000000       0.00000000
