10
Lattice="5.630320831943598 -0.04626486059807239 -0.03194523613044035 3.0508023853750297 4.732362825622562 -0.031945236130447176 3.0508023853750306 1.6468328454636993 4.43669020673606" Properties=species:S:1:pos:R:3:spacegroup_kinds:I:1:forces:R:3 spacegroup="P 1" unit_cell=conventional occupancy="_JSON {\"0\": {\"In\": 1}, \"1\": {\"In\": 1}, \"2\": {\"In\": 1}, \"3\": {\"In\": 1}, \"4\": {\"O\": 1}, \"5\": {\"O\": 1}, \"6\": {\"O\": 1}, \"7\": {\"O\": 1}, \"8\": {\"O\": 1}, \"9\": {\"O\": 1}}" n_minim_iter=6 energy=-11287.487552049637 stress="-0.0334855942300857 -1.319336954093653e-05 -9.10982949215645e-06 -1.319336954093653e-05 -0.03346827497253261 -4.9175177460948555e-06 -9.10982949215645e-06 -4.9175177460948555e-06 -0.033464548629938716" free_energy=-11287.487552049637 pbc="T T T"
In      10.09203716       5.44771381       3.76156983        0       0.00139652       0.00075385       0.00052052
In       7.50585126       4.05168242       2.79762978        1      -0.00139652      -0.00075385      -0.00052052
In       4.22607436       2.28124840       1.57516996        2       0.00139652       0.00075385       0.00052052
In       1.63988845       0.88521701       0.61122991        3      -0.00139652      -0.00075385      -0.00052052
O        5.74814182       2.21218188       0.13284662        4      -0.00000000      -0.00282888       0.00409695
O        6.72839954       4.93617471       1.06125470        5       0.00236496      -0.00438115      -0.00000000
O        7.81868648       2.02570528       2.35119172        6      -0.00236496       0.00155227       0.00409695
O        3.91323913       4.30722554       2.02160802        7       0.00236496      -0.00155227      -0.00409695
O        5.98378379       4.12074894       4.23995312        8      -0.00000000       0.00282888      -0.00409695
O        5.00352607       1.39675611       3.31154504        9      -0.00236496       0.00438115      -0.00000000
