10
Lattice="5.231909089058078 -0.11375425647116025 -0.07854571562171196 2.775763686996767 4.436321528133859 -0.07854571562171886 2.7757636869967746 1.4983660799877692 4.17636411496513" Properties=species:S:1:pos:R:3:spacegroup_kinds:I:1:forces:R:3 spacegroup="P 1" unit_cell=conventional occupancy="_JSON {\"0\": {\"In\": 1}, \"1\": {\"In\": 1}, \"2\": {\"In\": 1}, \"3\": {\"In\": 1}, \"4\": {\"O\": 1}, \"5\": {\"O\": 1}, \"6\": {\"O\": 1}, \"7\": {\"O\": 1}, \"8\": {\"O\": 1}, \"9\": {\"O\": 1}}" n_minim_iter=6 energy=-11288.484027243696 stress="0.02423067051153647 0.00032613697100886217 0.00022519299669917012 0.00032613697100886217 0.023802542712865245 0.00012155988221443943 0.00022519299669917012 0.00012155988221443943 0.02371042835351881" free_energy=-11288.484027243696 pbc="T T T"
In       9.32624650       5.03433757       3.47613935        0      -0.00642812      -0.00346992      -0.00239593
In       6.84890820       3.69706246       2.55276968        1       0.00642812       0.00346992       0.00239593
In       3.93452827       2.12387090       1.46650301        2      -0.00642812      -0.00346992      -0.00239593
In       1.45718997       0.78659579       0.54313334        3       0.00642812       0.00346992       0.00239593
O        5.31181366       2.05752050       0.01090708        4       0.00000000       0.00371608      -0.00538183
O        6.14863088       4.63737911       0.92627246        5      -0.00310666       0.00575517       0.00000000
O        7.25076014       1.78584141       2.09908914        6       0.00310666      -0.00203909      -0.00538183
O        3.53267634       4.03509195       1.92018355        7      -0.00310666       0.00203909       0.00538183
O        5.47162281       3.76341286       4.00836560        8      -0.00000000      -0.00371608       0.00538183
O        4.63480559       1.18355426       3.09300023        9       0.00310666      -0.00575517      -0.00000000
