10
Lattice="5.630320831943604 -0.04626486059807977 -0.03194523613044775 3.0508023853750355 4.732362825622553 -0.031945236130447974 3.050802385375037 1.6468328454636914 4.436690206736059" Properties=species:S:1:pos:R:3:spacegroup_kinds:I:1:forces:R:3 spacegroup="P 1" unit_cell=conventional occupancy="_JSON {\"0\": {\"In\": 1}, \"1\": {\"In\": 1}, \"2\": {\"In\": 1}, \"3\": {\"In\": 1}, \"4\": {\"O\": 1}, \"5\": {\"O\": 1}, \"6\": {\"O\": 1}, \"7\": {\"O\": 1}, \"8\": {\"O\": 1}, \"9\": {\"O\": 1}}" n_minim_iter=1 energy=-11287.356415453116 stress="-0.03986267136951712 0.005150554263906599 0.0035563853415141776 0.005150554263906599 -0.046623926838818934 0.0019197481396703762 0.0035563853415141776 0.0019197481396703762 -0.04807865332147685" free_energy=-11287.356415453116 pbc="T T T"
In      10.09203716       5.44771381       3.76156983        0       0.12686046       0.06847968       0.04728426
In       7.50585126       4.05168242       2.79762978        1      -0.12686046      -0.06847968      -0.04728426
In       4.22607436       2.28124840       1.57516996        2       0.12686046       0.06847968       0.04728426
In       1.63988845       0.88521701       0.61122991        3      -0.12686046      -0.06847968      -0.04728426
O        5.74814182       2.21218188       0.13284662        4       0.00000000       0.13230854      -0.19161655
O        6.72839954       4.93617471       1.06125470        5      -0.11061060       0.20490912      -0.00000000
O        7.81868648       2.02570528       2.35119172        6       0.11061060      -0.07260058      -0.19161655
O        3.91323913       4.30722554       2.02160802        7      -0.11061060       0.07260058       0.19161655
O        5.98378379       4.12074894       4.23995312        8      -0.00000000      -0.13230854       0.19161655
O        5.00352607       1.39675611       3.31154504        9       0.11061060      -0.20490912       0.00000000
10
Lattice="5.608881881556719 -0.06875306792204021 -0.04747302728398106 3.020238111506606 4.726779526845618 -0.04747302728398124 3.020238111506607 1.630334153071955 4.4369706932831505" Properties=species:S:1:pos:R:3:spacegroup_kinds:I:1:forces:R:3 spacegroup="P 1" unit_cell=conventional occupancy="_JSON {\"0\": {\"In\": 1}, \"1\": {\"In\": 1}, \"2\": {\"In\": 1}, \"3\": {\"In\": 1}, \"4\": {\"O\": 1}, \"5\": {\"O\": 1}, \"6\": {\"O\": 1}, \"7\": {\"O\": 1}, \"8\": {\"O\": 1}, \"9\": {\"O\": 1}}" n_minim_iter=2 energy=-11287.363502349679 stress="-0.04005304922555856 -0.001127507566155561 -0.0007785281278845659 -0.001127507566155561 -0.03857294315293166 -0.00042025196220397075 -0.0007785281278845659 -0.00042025196220397075 -0.03825448905134512" free_energy=-11287.363502349679 pbc="T T T"
In      10.02182963       5.40981556       3.73540162        0       0.22560831       0.12178408       0.08409020
In       7.45220754       4.02272537       2.77763534        1      -0.22560831      -0.12178408      -0.08409020
In       4.19715057       2.26563525       1.56438930        2       0.22560831       0.12178408       0.08409020
In       1.62752849       0.87854506       0.60662302        3      -0.22560831      -0.12178408      -0.08409020
O        5.71678047       2.19296497       0.11279835        4       0.00000000       0.09133501      -0.13227642
O        6.67910613       4.91590546       1.03803313        5      -0.07635652       0.14145253       0.00000000
O        7.77469292       1.99332997       2.33128370        6       0.07635653      -0.05011752      -0.13227642
O        3.87466519       4.29503065       2.01074095        7      -0.07635652       0.05011752       0.13227642
O        5.93257764       4.09539565       4.22922629        8      -0.00000000      -0.09133501       0.13227642
O        4.97025198       1.37245516       3.30399151        9       0.07635652      -0.14145253      -0.00000000
10
Lattice="5.598146410148424 -0.08007023241275689 -0.05528737033634158 3.0048861178827773 4.724014594614589 -0.055287370336341665 3.0048861178827795 1.6220470980125157 4.437153794413658" Properties=species:S:1:pos:R:3:spacegroup_kinds:I:1:forces:R:3 spacegroup="P 1" unit_cell=conventional occupancy="_JSON {\"0\": {\"In\": 1}, \"1\": {\"In\": 1}, \"2\": {\"In\": 1}, \"3\": {\"In\": 1}, \"4\": {\"O\": 1}, \"5\": {\"O\": 1}, \"6\": {\"O\": 1}, \"7\": {\"O\": 1}, \"8\": {\"O\": 1}, \"9\": {\"O\": 1}}" n_minim_iter=3 energy=-11287.400718599782 stress="-0.009532221929542934 0.0009774432112033035 0.0006749108024830877 0.0009774432112033035 -0.010815334954268254 0.0003643189974140176 0.0006749108024830877 0.0003643189974140176 -0.011091404730433163" free_energy=-11287.400718599782 pbc="T T T"
In      10.02313688       5.41052122       3.73588887        0       0.04743928       0.02560788       0.01768188
In       7.38874110       3.98846598       2.75397971        1      -0.04743929      -0.02560788      -0.01768188
In       4.21917756       2.27752549       1.57259934        2       0.04743929       0.02560788       0.01768188
In       1.58478177       0.85547025       0.59069019        3      -0.04743928      -0.02560788      -0.01768188
O        5.70105287       2.20110746       0.07694325        4      -0.00000000      -0.02611948       0.03782768
O        6.63948959       4.93330704       1.02635740        5       0.02183602      -0.04045181      -0.00000000
O        7.76750227       1.96729402       2.29552014        6      -0.02183602       0.01433233       0.03782768
O        3.84041639       4.29869746       2.03105892        7       0.02183602      -0.01433233      -0.03782768
O        5.90686578       4.06488401       4.24963581        8       0.00000000       0.02611948      -0.03782768
O        4.96842906       1.33268443       3.30022166        9      -0.02183602       0.04045181      -0.00000000
10
Lattice="5.584800576695825 -0.09419257384455823 -0.06503864864825296 2.9857566196715473 4.72060664856933 -0.0650386486482531 2.9857566196715495 1.611720933944166 4.437421862683454" Properties=species:S:1:pos:R:3:spacegroup_kinds:I:1:forces:R:3 spacegroup="P 1" unit_cell=conventional occupancy="_JSON {\"0\": {\"In\": 1}, \"1\": {\"In\": 1}, \"2\": {\"In\": 1}, \"3\": {\"In\": 1}, \"4\": {\"O\": 1}, \"5\": {\"O\": 1}, \"6\": {\"O\": 1}, \"7\": {\"O\": 1}, \"8\": {\"O\": 1}, \"9\": {\"O\": 1}}" n_minim_iter=4 energy=-11287.4020613607 stress="-0.006996419624107131 -0.0008170125989550392 -0.000564135713334264 -0.0008170125989550392 -0.005923907670604268 -0.0003045222529438637 -0.000564135713334264 -0.0003045222529438637 -0.00569315000412171" free_energy=-11287.4020613607 pbc="T T T"
In       9.98546559       5.39018613       3.72184778        0       0.04408166       0.02379542       0.01643040
In       7.34900515       3.96701639       2.73916907        1      -0.04408166      -0.02379542      -0.01643040
In       4.20730868       2.27111863       1.56817550        2       0.04408166       0.02379542       0.01643040
In       1.57084824       0.84794889       0.58549679        3      -0.04408166      -0.02379542      -0.01643040
O        5.68147875       2.18965457       0.06353350        4       0.00000000      -0.02987652       0.04326883
O        6.60820018       4.92156171       1.01179749        5       0.02497692      -0.04627041      -0.00000000
O        7.74051393       1.94669412       2.28224443        6      -0.02497692       0.01639390       0.04326883
O        3.81579990       4.29144090       2.02510014        7       0.02497692      -0.01639390      -0.04326883
O        5.87483508       4.04848045       4.24381107        8       0.00000000       0.02987652      -0.04326883
O        4.94811364       1.31657331       3.29554707        9      -0.02497692       0.04627041      -0.00000000
10
Lattice="5.584564583549963 -0.09444283570689584 -0.0652114509475244 2.9854179049123304 4.720546681273867 -0.06521145094752451 2.9854179049123335 1.6115380946382203 4.437427010436366" Properties=species:S:1:pos:R:3:spacegroup_kinds:I:1:forces:R:3 spacegroup="P 1" unit_cell=conventional occupancy="_JSON {\"0\": {\"In\": 1}, \"1\": {\"In\": 1}, \"2\": {\"In\": 1}, \"3\": {\"In\": 1}, \"4\": {\"O\": 1}, \"5\": {\"O\": 1}, \"6\": {\"O\": 1}, \"7\": {\"O\": 1}, \"8\": {\"O\": 1}, \"9\": {\"O\": 1}}" n_minim_iter=5 energy=-11287.402782841134 stress="-0.007265930258349768 2.451287580887013e-05 1.6925827869046555e-05 2.451287580887013e-05 -0.007298108929764064 9.136607735735943e-06 1.6925827869046555e-05 9.136607735735943e-06 -0.007305032395170947" free_energy=-11287.402782841134 pbc="T T T"
In       9.98701850       5.39102440       3.72242659        0       0.00021638       0.00011680       0.00008065
In       7.34608210       3.96543852       2.73807957        1      -0.00021638      -0.00011680      -0.00008065
In       4.20931831       2.27220343       1.56892454        2       0.00021638       0.00011680       0.00008065
In       1.56838190       0.84661755       0.58457752        3      -0.00021638      -0.00011680      -0.00008065
O        5.68113239       2.18785118       0.06561401        4       0.00000000       0.00012189      -0.00017653
O        6.60898445       4.91887508       1.01153958        5      -0.00010190       0.00018878       0.00000000
O        7.73869824       1.94720756       2.28432751        6       0.00010190      -0.00006689      -0.00017653
O        3.81670216       4.29043439       2.02267660        7      -0.00010190       0.00006689       0.00017653
O        5.87426801       4.04979077       4.24139011        8      -0.00000000      -0.00012189       0.00017653
O        4.94641595       1.31876687       3.29546453        9       0.00010190      -0.00018878      -0.00000000
