10
Lattice="5.303569373701853 -0.09990127170985974 -0.06898042430578832 2.8266664149844627 4.488628447995714 -0.06898042430579943 2.8266664149844716 1.525843534697954 4.221888813163395" Properties=species:S:1:pos:R:3:spacegroup_kinds:I:1:forces:R:3 spacegroup="P 1" unit_cell=conventional occupancy="_JSON {\"0\": {\"In\": 1}, \"1\": {\"In\": 1}, \"2\": {\"In\": 1}, \"3\": {\"In\": 1}, \"4\": {\"O\": 1}, \"5\": {\"O\": 1}, \"6\": {\"O\": 1}, \"7\": {\"O\": 1}, \"8\": {\"O\": 1}, \"9\": {\"O\": 1}}" n_minim_iter=1 energy=-11288.395954441936 stress="0.025530653626817473 -0.014697007239044282 -0.010148076975030007 -0.014697007239044282 0.04482376569371161 -0.005477964265748976 -0.010148076975030007 -0.005477964265748976 0.04897479964299372" free_energy=-11288.395954441936 pbc="T T T"
In       9.54127685       5.15041164       3.55628686        0      -0.22224837      -0.11997038      -0.08283786
In       6.89407646       3.72144444       2.56960509        1       0.22224837       0.11997038       0.08283786
In       4.06282575       2.19312628       1.51432288        2      -0.22224837      -0.11997038      -0.08283786
In       1.41562536       0.76415908       0.52764111        3       0.22224837       0.11997038       0.08283786
O        5.39101024       2.10420099       0.00818232        4      -0.00000000      -0.06331724       0.09169953
O        6.23961461       4.71918172       0.95200157        5       0.05293352      -0.09806079       0.00000000
O        7.36907229       1.82094730       2.11912672        6      -0.05293352       0.03474355       0.09169953
O        3.58782992       4.09362342       1.96480125        7       0.05293352      -0.03474355      -0.09169953
O        5.56589197       3.81036974       4.07574565        8      -0.00000000       0.06331724      -0.09169953
O        4.71728760       1.19538900       3.13192640        9      -0.05293352       0.09806079       0.00000000
10
Lattice="5.331887155755392 -0.06991679638203072 -0.04827656543293242 2.8672721714866127 4.495849118325043 -0.0482765654329435 2.8672721714866234 1.547762651400894 4.22130556776485" Properties=species:S:1:pos:R:3:spacegroup_kinds:I:1:forces:R:3 spacegroup="P 1" unit_cell=conventional occupancy="_JSON {\"0\": {\"In\": 1}, \"1\": {\"In\": 1}, \"2\": {\"In\": 1}, \"3\": {\"In\": 1}, \"4\": {\"O\": 1}, \"5\": {\"O\": 1}, \"6\": {\"O\": 1}, \"7\": {\"O\": 1}, \"8\": {\"O\": 1}, \"9\": {\"O\": 1}}" n_minim_iter=2 energy=-11288.417952118323 stress="0.045309142621452865 -0.0003716429561349031 -0.00025661423983138187 -0.0003716429561349031 0.04579700716449924 -0.00013852117632622913 -0.00025661423983138187 -0.00013852117632622913 0.045901974300427216" free_energy=-11288.417952118323 pbc="T T T"
In       9.63581887       5.20144572       3.59152518        0      -0.27501871      -0.14845598      -0.10250677
In       6.96382839       3.75909675       2.59560348        1       0.27501871       0.14845598       0.10250677
In       4.10260312       2.21459823       1.52914896        2      -0.27501871      -0.14845598      -0.10250677
In       1.43061264       0.77224926       0.53322726        3       0.27501871       0.14845598       0.10250677
O        5.43255146       2.13038838       0.03393367        4      -0.00000000       0.09129235      -0.13221463
O        6.30445654       4.74701179       0.98291155        5      -0.07632086       0.14138645       0.00000000
O        7.42791855       1.86364783       2.14458645        6       0.07632086      -0.05009410      -0.13221463
O        3.63851296       4.11004715       1.98016599        7      -0.07632086       0.05009410       0.13221463
O        5.63388005       3.84330660       4.09081877        8      -0.00000000      -0.09129235       0.13221463
O        4.76197497       1.22668319       3.14184090        9       0.07632086      -0.14138645      -0.00000000
10
Lattice="5.343665522510316 -0.05752750277354497 -0.0397219322902809 2.8840927298576857 4.498897615596827 -0.03972193229029191 2.8840927298576973 1.5568424423887708 4.221125347239124" Properties=species:S:1:pos:R:3:spacegroup_kinds:I:1:forces:R:3 spacegroup="P 1" unit_cell=conventional occupancy="_JSON {\"0\": {\"In\": 1}, \"1\": {\"In\": 1}, \"2\": {\"In\": 1}, \"3\": {\"In\": 1}, \"4\": {\"O\": 1}, \"5\": {\"O\": 1}, \"6\": {\"O\": 1}, \"7\": {\"O\": 1}, \"8\": {\"O\": 1}, \"9\": {\"O\": 1}}" n_minim_iter=3 energy=-11288.428159371884 stress="0.05106792801061334 0.0015113806118850184 0.0010435870882906273 0.0015113806118850184 0.04908390262262964 0.0005633316299023251 0.0010435870882906273 0.0005633316299023251 0.04865702709873474" free_energy=-11288.428159371884 pbc="T T T"
In       9.66572357       5.21758838       3.60267146        0      -0.05760489      -0.03109530      -0.02147087
In       7.00205291       3.77973047       2.60985077        1       0.05760489       0.03109530       0.02147087
In       4.10979808       2.21848210       1.53183071        2      -0.05760489      -0.03109530      -0.02147087
In       1.44612742       0.78062419       0.53901003        3       0.05760489       0.03109530       0.02147087
O        5.44979551       2.14433358       0.04009540        4      -0.00000000      -0.03591217       0.05200999
O        6.32875558       4.76337080       0.99569844        5       0.03002275      -0.05561796       0.00000000
O        7.45492818       1.87962220       2.15065807        6      -0.03002275       0.01970579       0.05200999
O        3.65692282       4.11859036       1.99102341        7       0.03002275      -0.01970579      -0.05200999
O        5.66205548       3.85387898       4.10158609        8      -0.00000000       0.03591217      -0.05200999
O        4.78309541       1.23484177       3.14598305        9      -0.03002275       0.05561796       0.00000000
10
Lattice="5.337229143141117 -0.06429182405304988 -0.04439260108172521 2.8749059415760585 4.497228501213341 -0.04439260108173634 2.8749059415760696 1.5518833848113187 4.221219356430427" Properties=species:S:1:pos:R:3:spacegroup_kinds:I:1:forces:R:3 spacegroup="P 1" unit_cell=conventional occupancy="_JSON {\"0\": {\"In\": 1}, \"1\": {\"In\": 1}, \"2\": {\"In\": 1}, \"3\": {\"In\": 1}, \"4\": {\"O\": 1}, \"5\": {\"O\": 1}, \"6\": {\"O\": 1}, \"7\": {\"O\": 1}, \"8\": {\"O\": 1}, \"9\": {\"O\": 1}}" n_minim_iter=4 energy=-11288.429295268737 stress="0.048832859429404775 -0.0011721411407554219 -0.0008093470070662999 -0.0011721411407554219 0.05037155707851464 -0.0004368880906274434 -0.0008093470070662999 -0.0004368880906274434 0.05070261752065314" free_energy=-11288.429295268737 pbc="T T T"
In       9.64204474       5.20480646       3.59384572        0      -0.01505736      -0.00812801      -0.00561228
In       6.98851681       3.77242364       2.60480551        1       0.01505736       0.00812801       0.00561228
In       4.09852422       2.21239643       1.52762865        2      -0.01505736      -0.00812801      -0.00561228
In       1.44499630       0.78001361       0.53858843        3       0.01505736       0.00812801       0.00561228
O        5.44037483       2.13733255       0.03584035        4      -0.00000000      -0.02800320       0.04055579
O        6.31496785       4.75538665       0.98871594        5       0.02341082      -0.04336918      -0.00000000
O        7.44068776       1.87056096       2.14645002        6      -0.02341082       0.01536597       0.04055579
O        3.64635328       4.11425912       1.98598414        7       0.02341082      -0.01536597      -0.04055579
O        5.64666620       3.84748752       4.09659381        8       0.00000000       0.02800321      -0.04055579
O        4.77207319       1.22943343       3.14371822        9      -0.02341082       0.04336918      -0.00000000
10
Lattice="5.338299310497855 -0.06316614698433339 -0.043615336883759195 2.87643423742499 4.497505482860031 -0.04361533688377031 2.8764342374250007 1.5527083637787118 4.221202980551763" Properties=species:S:1:pos:R:3:spacegroup_kinds:I:1:forces:R:3 spacegroup="P 1" unit_cell=conventional occupancy="_JSON {\"0\": {\"In\": 1}, \"1\": {\"In\": 1}, \"2\": {\"In\": 1}, \"3\": {\"In\": 1}, \"4\": {\"O\": 1}, \"5\": {\"O\": 1}, \"6\": {\"O\": 1}, \"7\": {\"O\": 1}, \"8\": {\"O\": 1}, \"9\": {\"O\": 1}}" n_minim_iter=5 energy=-11288.429548491773 stress="0.04997827568628383 -0.0003465365826284008 -0.00023927865461785878 -0.0003465365826284008 0.05043318253448914 -0.00012916337725471462 -0.00023927865461785878 -0.00012916337725471462 0.05053105860539496" free_energy=-11288.429548491773 pbc="T T T"
In       9.64474375       5.20626340       3.59485172        0      -0.00432529      -0.00233481      -0.00161215
In       6.99200793       3.77430816       2.60610674        1       0.00432529       0.00233481       0.00161215
In       4.09915986       2.21273955       1.52786557        2      -0.00432529      -0.00233481      -0.00161215
In       1.44642404       0.78078431       0.53912059        3       0.00432529       0.00233480       0.00161215
O        5.44194161       2.13795419       0.03733490        4      -0.00000000      -0.00859513       0.01244795
O        6.31771519       4.75587346       0.98987774        5       0.00718558      -0.01331147      -0.00000000
O        7.44260226       1.87236651       2.14793639        6      -0.00718557       0.00471634       0.01244795
O        3.64856553       4.11468120       1.98603592        7       0.00718557      -0.00471634      -0.01244795
O        5.64922619       3.84909352       4.09663741        8       0.00000000       0.00859513      -0.01244795
O        4.77345260       1.23117425       3.14409457        9      -0.00718558       0.01331147      -0.00000000
10
Lattice="5.338727018445888 -0.06271636370475364 -0.04330476784955142 2.8770449511838683 4.497616242925569 -0.04330476784956248 2.8770449511838776 1.5530380290110848 4.2211965189969165" Properties=species:S:1:pos:R:3:spacegroup_kinds:I:1:forces:R:3 spacegroup="P 1" unit_cell=conventional occupancy="_JSON {\"0\": {\"In\": 1}, \"1\": {\"In\": 1}, \"2\": {\"In\": 1}, \"3\": {\"In\": 1}, \"4\": {\"O\": 1}, \"5\": {\"O\": 1}, \"6\": {\"O\": 1}, \"7\": {\"O\": 1}, \"8\": {\"O\": 1}, \"9\": {\"O\": 1}}" n_minim_iter=6 energy=-11288.429573447382 stress="0.05045116966301407 1.707137939709951e-06 1.1787773846581854e-06 1.707137939709951e-06 0.050448928639244064 6.362969811440159e-07 1.1787773846581854e-06 6.362969811440159e-07 0.050448446457350894" free_energy=-11288.429573447382 pbc="T T T"
In       9.64580731       5.20683751       3.59524813        0      -0.00002670      -0.00001441      -0.00000995
In       6.99341808       3.77506936       2.60663234        1       0.00002670       0.00001441       0.00000995
In       4.09939885       2.21286856       1.52795464        2      -0.00002670      -0.00001441      -0.00000995
In       1.44700962       0.78110041       0.53933885        3       0.00002670       0.00001441       0.00000995
O        5.44256774       2.13818385       0.03795927        4       0.00000000       0.00002897      -0.00004196
O        6.31882876       4.75603899       0.99034198        5      -0.00002422       0.00004487       0.00000000
O        7.44335168       1.87309830       2.14855752        6       0.00002422      -0.00001590      -0.00004196
O        3.64946525       4.11483962       1.98602946        7      -0.00002422       0.00001590       0.00004196
O        5.65024919       3.84975407       4.09662772        8       0.00000000      -0.00002897       0.00004196
O        4.77398817       1.23189893       3.14424501        9       0.00002422      -0.00004487      -0.00000000
