10
Lattice="6.35647769513187 0.025608954575445618 0.017682623278039152 3.509347387520038 5.299994851032378 0.01768262327803182 3.5093473875200307 1.8943568982426096 4.949916164766468" Properties=species:S:1:pos:R:3:spacegroup_kinds:I:1:forces:R:3 spacegroup="P 1" unit_cell=conventional occupancy="_JSON {\"0\": {\"In\": 1}, \"1\": {\"In\": 1}, \"2\": {\"In\": 1}, \"3\": {\"In\": 1}, \"4\": {\"O\": 1}, \"5\": {\"O\": 1}, \"6\": {\"O\": 1}, \"7\": {\"O\": 1}, \"8\": {\"O\": 1}, \"9\": {\"O\": 1}}" n_minim_iter=5 energy=-11287.051918111698 stress="0.030363198563097552 -2.2612412386687203e-05 -1.5613548074792474e-05 -2.2612412386687203e-05 0.030392882436716655 -8.428241904239703e-06 -1.5613548074792474e-05 -8.428241904239703e-06 0.030399269093920323" free_energy=-11287.051918111698 pbc="T T T"
In      11.36902067       6.13703357       4.23753544        0      -0.00013314      -0.00007187      -0.00004962
In       8.69373805       4.69290749       3.24038668        1       0.00013314       0.00007187       0.00004962
In       4.68143443       2.52705322       1.74489474        2      -0.00013314      -0.00007187      -0.00004962
In       2.00615181       1.08292714       0.74774597        3       0.00013314       0.00007187       0.00004962
O        6.52203197       2.52548140       0.23025052        4      -0.00000000       0.00024477      -0.00035449
O        7.68507602       5.56380200       1.26400298        5      -0.00020463       0.00037908      -0.00000000
O        8.86833531       2.37664993       2.70520860        6       0.00020463      -0.00013431      -0.00035449
O        4.50683717       4.84331078       2.28007281        7      -0.00020463       0.00013431       0.00035449
O        6.85314051       4.69447931       4.75503089        8       0.00000000      -0.00024477       0.00035449
O        5.69009646       1.65615871       3.72127844        9       0.00020463      -0.00037908       0.00000000
