10
Lattice="5.584564583549963 -0.09444283570689584 -0.0652114509475244 2.9854179049123304 4.720546681273867 -0.06521145094752451 2.9854179049123335 1.6115380946382203 4.437427010436366" Properties=species:S:1:pos:R:3:spacegroup_kinds:I:1:forces:R:3 spacegroup="P 1" unit_cell=conventional occupancy="_JSON {\"0\": {\"In\": 1}, \"1\": {\"In\": 1}, \"2\": {\"In\": 1}, \"3\": {\"In\": 1}, \"4\": {\"O\": 1}, \"5\": {\"O\": 1}, \"6\": {\"O\": 1}, \"7\": {\"O\": 1}, \"8\": {\"O\": 1}, \"9\": {\"O\": 1}}" n_minim_iter=5 energy=-11287.402782841134 stress="-0.007265930258349768 2.451287580887013e-05 1.6925827869046555e-05 2.451287580887013e-05 -0.007298108929764064 9.136607735735943e-06 1.6925827869046555e-05 9.136607735735943e-06 -0.007305032395170947" free_energy=-11287.402782841134 pbc="T T T"
In       9.98701850       5.39102440       3.72242659        0       0.00021638       0.00011680       0.00008065
In       7.34608210       3.96543852       2.73807957        1      -0.00021638      -0.00011680      -0.00008065
In       4.20931831       2.27220343       1.56892454        2       0.00021638       0.00011680       0.00008065
In       1.56838190       0.84661755       0.58457752        3      -0.00021638      -0.00011680      -0.00008065
O        5.68113239       2.18785118       0.06561401        4       0.00000000       0.00012189      -0.00017653
O        6.60898445       4.91887508       1.01153958        5      -0.00010190       0.00018878       0.00000000
O        7.73869824       1.94720756       2.28432751        6       0.00010190      -0.00006689      -0.00017653
O        3.81670216       4.29043439       2.02267660        7      -0.00010190       0.00006689       0.00017653
O        5.87426801       4.04979077       4.24139011        8      -0.00000000      -0.00012189       0.00017653
O        4.94641595       1.31876687       3.29546453        9       0.00010190      -0.00018878      -0.00000000
