10
Lattice="6.050317698694559 0.029994327102243402 0.020710661384657585 3.3450169024531458 5.041637217918178 0.020710661384654754 3.345016902453144 1.8056507789552814 4.707245482556753" Properties=species:S:1:pos:R:3:spacegroup_kinds:I:1:forces:R:3 spacegroup="P 1" unit_cell=conventional occupancy="_JSON {\"0\": {\"In\": 1}, \"1\": {\"In\": 1}, \"2\": {\"In\": 1}, \"3\": {\"In\": 1}, \"4\": {\"O\": 1}, \"5\": {\"O\": 1}, \"6\": {\"O\": 1}, \"7\": {\"O\": 1}, \"8\": {\"O\": 1}, \"9\": {\"O\": 1}}" n_minim_iter=4 energy=-11287.629374674476 stress="0.02089126396714673 -4.009487771782269e-06 -2.768491614091548e-06 -4.009487771782269e-06 0.02089652730431642 -1.4944481614447045e-06 -2.768491614091548e-06 -1.4944481614447045e-06 0.020897659743410155" free_energy=-11287.629374674476 pbc="T T T"
In      10.87204319       5.86876355       4.05229876        0       0.00418698       0.00226014       0.00156060
In       8.23848408       4.44715995       3.07070145        1      -0.00418698      -0.00226014      -0.00156060
In       4.50186744       2.43012238       1.67796536        2       0.00418698       0.00226014       0.00156060
In       1.86830833       1.00851879       0.69636805        3      -0.00418698      -0.00226014      -0.00156060
O        6.21024673       2.38434404       0.25611795        4       0.00000000      -0.00311906       0.00451719
O        7.33932996       5.26184628       1.20787737        5       0.00260755      -0.00483055      -0.00000000
O        8.42618040       2.28045951       2.60974069        6      -0.00260755       0.00171150       0.00451719
O        4.31417111       4.59682282       2.13892612        7       0.00260755      -0.00171150      -0.00451719
O        6.53010478       4.49293829       4.49254886        8      -0.00000000       0.00311906      -0.00451719
O        5.40102155       1.61543606       3.54078944        9      -0.00260755       0.00483055      -0.00000000
