10
Lattice="6.0457900325477425 -0.022408998481167612 -0.015473098560621783 3.298723031679098 5.066606915987895 -0.015473098560622595 3.298723031679091 1.7806612000497972 4.743415515064299" Properties=species:S:1:pos:R:3:spacegroup_kinds:I:1:forces:R:3 spacegroup="P 1" unit_cell=conventional occupancy="_JSON {\"0\": {\"In\": 1}, \"1\": {\"In\": 1}, \"2\": {\"In\": 1}, \"3\": {\"In\": 1}, \"4\": {\"O\": 1}, \"5\": {\"O\": 1}, \"6\": {\"O\": 1}, \"7\": {\"O\": 1}, \"8\": {\"O\": 1}, \"9\": {\"O\": 1}}" n_minim_iter=5 energy=-11287.578776396846 stress="0.011457604545558648 0.00013057866910741749 9.01627447435977e-05 0.00013057866910741749 0.011286190800469517 4.8670139452416194e-05 9.01627447435977e-05 4.8670139452416194e-05 0.011249310061063134" free_energy=-11287.578776396846 pbc="T T T"
In      10.78896044       5.82391521       4.02133162        0      -0.00848538      -0.00458043      -0.00316273
In       8.17589371       4.41337347       3.04737236        1       0.00848538       0.00458044       0.00316273
In       4.46734239       2.41148566       1.66509696        2      -0.00848538      -0.00458043      -0.00316273
In       1.85427567       1.00094391       0.69113771        3       0.00848538       0.00458043       0.00316273
O        6.18370405       2.35113985       0.22013760        4       0.00000000      -0.00071794       0.00103976
O        7.28453797       5.24447594       1.16264423        5       0.00060020      -0.00111188      -0.00000000
O        8.38159315       2.22530826       2.59184535        6      -0.00060020       0.00039395       0.00103976
O        4.26164296       4.59955087       2.12062397        7       0.00060020      -0.00039395      -0.00103976
O        6.45953206       4.47371928       4.49233173        8      -0.00000000       0.00071794      -0.00103976
O        5.35869813       1.58038319       3.54982509        9      -0.00060020       0.00111188       0.00000000
