10
Lattice="5.30228151598866 -0.16297174982115314 -0.1125297031770407 2.7732325051789743 4.522159941693076 -0.11252970317705335 2.7732325051789837 1.496999739979867 4.268674882308418" Properties=species:S:1:pos:R:3:spacegroup_kinds:I:1:forces:R:3 spacegroup="P 1" unit_cell=conventional occupancy="_JSON {\"0\": {\"In\": 1}, \"1\": {\"In\": 1}, \"2\": {\"In\": 1}, \"3\": {\"In\": 1}, \"4\": {\"O\": 1}, \"5\": {\"O\": 1}, \"6\": {\"O\": 1}, \"7\": {\"O\": 1}, \"8\": {\"O\": 1}, \"9\": {\"O\": 1}}" n_minim_iter=1 energy=-11288.144061259918 stress="0.04861956270861101 -0.008843950750489047 -0.006106623713028039 -0.008843950750489047 0.06022922790172279 -0.00329637493135228 -0.006106623713028039 -0.00329637493135228 0.0627271200906645" free_energy=-11288.144061259918 pbc="T T T"
In       9.45759226       5.10523843       3.52509540        0       0.00416752       0.00224964       0.00155334
In       6.81552752       3.67904347       2.54032781        1      -0.00416752      -0.00224964      -0.00155334
In       4.03321900       2.17714446       1.50328766        2       0.00416752       0.00224964       0.00155334
In       1.39115425       0.75094950       0.51852008        3      -0.00416752      -0.00224964      -0.00155334
O        5.36332738       2.06943912      -0.04013578        4      -0.00000000      -0.02622838       0.03798539
O        6.17571019       4.70742407       0.89837416        5       0.02192706      -0.04062047      -0.00000000
O        7.32417708       1.75415601       2.09420166        6      -0.02192706       0.01439209       0.03798539
O        3.52456943       4.10203193       1.94941381        7       0.02192706      -0.01439209      -0.03798539
O        5.48541913       3.78674881       4.08375125        8       0.00000000       0.02622838      -0.03798539
O        4.67303632       1.14876386       3.14524131        9      -0.02192706       0.04062047      -0.00000000
10
Lattice="5.333392374400827 -0.12939300334575954 -0.08934405058338936 2.8183757122950515 4.529743382684838 -0.08934405058340195 2.8183757122950617 1.5213681869775209 4.267551559384419" Properties=species:S:1:pos:R:3:spacegroup_kinds:I:1:forces:R:3 spacegroup="P 1" unit_cell=conventional occupancy="_JSON {\"0\": {\"In\": 1}, \"1\": {\"In\": 1}, \"2\": {\"In\": 1}, \"3\": {\"In\": 1}, \"4\": {\"O\": 1}, \"5\": {\"O\": 1}, \"6\": {\"O\": 1}, \"7\": {\"O\": 1}, \"8\": {\"O\": 1}, \"9\": {\"O\": 1}}" n_minim_iter=2 energy=-11288.15735814868 stress="0.06769971675896493 0.0006936188468156506 0.0004789340598087104 0.0006936188468156506 0.06678918674144381 0.00025853013153876245 0.0004789340598087104 0.00025853013153876245 0.0665932805129738" free_energy=-11288.15735814868 pbc="T T T"
In       9.56345081       5.16238121       3.56455169        0      -0.07501235      -0.04049190      -0.02795909
In       6.89176487       3.72019663       2.56874350        1       0.07501235       0.04049190       0.02795909
In       4.07837891       2.20152193       1.52011996        2      -0.07501235      -0.04049190      -0.02795909
In       1.40669297       0.75933735       0.52431177        3       0.07501235       0.04049190       0.02795909
O        5.40923213       2.09862504      -0.01145805        4      -0.00000000       0.07011259      -0.10154094
O        6.24751895       4.73821444       0.93287181        5      -0.05861448       0.10858490      -0.00000000
O        7.38932102       1.80169953       2.12231773        6       0.05861448      -0.03847231      -0.10154094
O        3.58082276       4.12001904       1.96654572        7      -0.05861448       0.03847231       0.10154094
O        5.56091166       3.82309352       4.10032150        8       0.00000000      -0.07011259       0.10154094
O        4.72262484       1.18350412       3.15599164        9       0.05861448      -0.10858490       0.00000000
10
Lattice="5.332537059914534 -0.13031132724494518 -0.08997814033151527 2.8171386591932768 4.5295322398950875 -0.08997814033152779 2.8171386591932857 1.5207004217727498 4.26757877551272" Properties=species:S:1:pos:R:3:spacegroup_kinds:I:1:forces:R:3 spacegroup="P 1" unit_cell=conventional occupancy="_JSON {\"0\": {\"In\": 1}, \"1\": {\"In\": 1}, \"2\": {\"In\": 1}, \"3\": {\"In\": 1}, \"4\": {\"O\": 1}, \"5\": {\"O\": 1}, \"6\": {\"O\": 1}, \"7\": {\"O\": 1}, \"8\": {\"O\": 1}, \"9\": {\"O\": 1}}" n_minim_iter=3 energy=-11288.1591464449 stress="0.0654979806731801 -0.001063354275363209 -0.0007342311828424774 -0.001063354275363209 0.06689387120093776 -0.00039634033082575364 -0.0007342311828424774 -0.00039634033082575364 0.0671942058063373" free_energy=-11288.1591464449 pbc="T T T"
In       9.55832019       5.15961169       3.56263937        0      -0.01853569      -0.01000563      -0.00690874
In       6.89190137       3.72027031       2.56879437        1       0.01853569       0.01000563       0.00690874
In       4.07491300       2.19965102       1.51882812        2      -0.01853569      -0.01000563      -0.00690874
In       1.40849418       0.76030965       0.52498313        3       0.01853569       0.01000563       0.00690874
O        5.40797212       2.09978847      -0.01508597        4      -0.00000000      -0.00397755       0.00576051
O        6.24390830       4.74040919       0.93192748        5       0.00332525      -0.00616012       0.00000000
O        7.38917460       1.79932028       2.11870342        6      -0.00332525       0.00218257       0.00576051
O        3.57763977       4.12060105       1.96891907        7       0.00332525      -0.00218257      -0.00576051
O        5.55884225       3.82013287       4.10270846        8      -0.00000000       0.00397755      -0.00576051
O        4.72290607       1.17951215       3.15569501        9      -0.00332525       0.00616012      -0.00000000
10
Lattice="5.336266548712839 -0.12630906744025824 -0.08721463617602197 2.8225310203209726 4.530453983736636 -0.08721463617603445 2.822531020320982 1.5236112354859752 4.267461598493807" Properties=species:S:1:pos:R:3:spacegroup_kinds:I:1:forces:R:3 spacegroup="P 1" unit_cell=conventional occupancy="_JSON {\"0\": {\"In\": 1}, \"1\": {\"In\": 1}, \"2\": {\"In\": 1}, \"3\": {\"In\": 1}, \"4\": {\"O\": 1}, \"5\": {\"O\": 1}, \"6\": {\"O\": 1}, \"7\": {\"O\": 1}, \"8\": {\"O\": 1}, \"9\": {\"O\": 1}}" n_minim_iter=4 energy=-11288.159399160162 stress="0.06718528578156953 -0.00010347679063285961 -7.144925959732687e-05 -0.00010347679063285961 0.06732112224064694 -3.856853852071061e-05 -7.144925959732687e-05 -3.856853852071061e-05 0.06735034829075451" free_energy=-11288.159399160162 pbc="T T T"
In       9.57029848       5.16607761       3.56710399        0      -0.01328038      -0.00716879      -0.00494995
In       6.90169439       3.72555662       2.57244449        1       0.01328038       0.00716879       0.00494995
In       4.07963418       2.20219953       1.52058783        2      -0.01328038      -0.00716879      -0.00494995
In       1.41103010       0.76167854       0.52592833        3       0.01328038       0.00716879       0.00494995
O        5.41346542       2.10361257      -0.01215518        4       0.00000000      -0.00494835       0.00716648
O        6.25221125       4.74461968       0.93604344        5       0.00413685      -0.00766362      -0.00000000
O        7.39725060       1.80481000       2.12157562        6      -0.00413685       0.00271527       0.00716648
O        3.58407797       4.12294615       1.97145670        7       0.00413685      -0.00271527      -0.00716648
O        5.56786316       3.82414358       4.10518750        8       0.00000000       0.00494835      -0.00716648
O        4.72911733       1.18313647       3.15698888        9      -0.00413685       0.00766362      -0.00000000
10
Lattice="5.347632577724355 -0.11414312362501317 -0.07881422292709808 2.8389385984237028 4.5332803215099995 -0.07881422292711042 2.838938598423712 1.5324680984095187 4.267128271154088" Properties=species:S:1:pos:R:3:spacegroup_kinds:I:1:forces:R:3 spacegroup="P 1" unit_cell=conventional occupancy="_JSON {\"0\": {\"In\": 1}, \"1\": {\"In\": 1}, \"2\": {\"In\": 1}, \"3\": {\"In\": 1}, \"4\": {\"O\": 1}, \"5\": {\"O\": 1}, \"6\": {\"O\": 1}, \"7\": {\"O\": 1}, \"8\": {\"O\": 1}, \"9\": {\"O\": 1}}" n_minim_iter=5 energy=-11288.159799569286 stress="0.07885803151549821 -0.0007982739815690906 -0.0005511969799509608 -0.0007982739815690906 0.07990594478298882 -0.00029753788591026757 -0.0005511969799509608 -0.00029753788591026757 0.08013140991706019" free_energy=-11288.159799569286 pbc="T T T"
In       9.60238413       5.18339754       3.57906317        0       0.02042332       0.01102457       0.00761231
In       6.93588052       3.74401040       2.58518657        1      -0.02042332      -0.01102457      -0.00761231
In       4.08962924       2.20759490       1.52431325        2       0.02042332       0.01102457       0.00761231
In       1.42312563       0.76820775       0.53043666        3      -0.02042332      -0.01102457      -0.00761231
O        5.43019373       2.11387119      -0.00125059        4      -0.00000000       0.01070596      -0.01550497
O        6.27863699       4.75531110       0.94856073        5      -0.00895024       0.01658056      -0.00000000
O        7.42068906       1.82226406       2.13231355        6       0.00895024      -0.00587460      -0.01550497
O        3.60482070       4.12934124       1.97718628        7      -0.00895024       0.00587460       0.01550497
O        5.59531604       3.83773411       4.11075041        8       0.00000000      -0.01070596       0.01550497
O        4.74687277       1.19629419       3.16093909        9       0.00895024      -0.01658056      -0.00000000
10
Lattice="5.352793729712734 -0.10863420292493467 -0.0750103905948937 2.846376120439778 4.5345722051685655 -0.07501039059490615 2.8463761204397873 1.5364828964848218 4.266988627989774" Properties=species:S:1:pos:R:3:spacegroup_kinds:I:1:forces:R:3 spacegroup="P 1" unit_cell=conventional occupancy="_JSON {\"0\": {\"In\": 1}, \"1\": {\"In\": 1}, \"2\": {\"In\": 1}, \"3\": {\"In\": 1}, \"4\": {\"O\": 1}, \"5\": {\"O\": 1}, \"6\": {\"O\": 1}, \"7\": {\"O\": 1}, \"8\": {\"O\": 1}, \"9\": {\"O\": 1}}" n_minim_iter=6 energy=-11288.15992042405 stress="0.08333694492750209 -0.000770526024904671 -0.0005320373801140333 -0.000770526024904671 0.08434843280447865 -0.00028719547738151986 -0.0005320373801140333 -0.00028719547738151986 0.08456606076479885" free_energy=-11288.15992042405 pbc="T T T"
In       9.61772183       5.19167688       3.58477993        0       0.02953764       0.01594451       0.01100946
In       6.95059712       3.75195447       2.59067183        1      -0.02953764      -0.01594451      -0.01100946
In       4.09494884       2.21046643       1.52629601        2       0.02953764       0.01594451       0.01100946
In       1.42782413       0.77074402       0.53218791        3      -0.02953764      -0.01594451      -0.01100946
O        5.43778335       2.11877247       0.00332513        4      -0.00000000       0.01319764      -0.01911355
O        6.29041110       4.76055264       0.95423157        5      -0.01103329       0.02043948      -0.00000000
O        7.43153172       1.83003550       2.13681945        6       0.01103329      -0.00724183      -0.01911356
O        3.61401423       4.13238539       1.98014840        7      -0.01103329       0.00724183       0.01911356
O        5.60776261       3.84364843       4.11364271        8       0.00000000      -0.01319764       0.01911356
O        4.75513486       1.20186826       3.16273627        9       0.01103329      -0.02043948      -0.00000000
10
Lattice="5.359359650850469 -0.10163966969857759 -0.0701807636890797 2.855826449455056 4.536223294791982 -0.07018076368909215 2.8558264494550647 1.541584214189766 4.266821443459554" Properties=species:S:1:pos:R:3:spacegroup_kinds:I:1:forces:R:3 spacegroup="P 1" unit_cell=conventional occupancy="_JSON {\"0\": {\"In\": 1}, \"1\": {\"In\": 1}, \"2\": {\"In\": 1}, \"3\": {\"In\": 1}, \"4\": {\"O\": 1}, \"5\": {\"O\": 1}, \"6\": {\"O\": 1}, \"7\": {\"O\": 1}, \"8\": {\"O\": 1}, \"9\": {\"O\": 1}}" n_minim_iter=7 energy=-11288.160222939796 stress="0.08814427489013334 -0.00034820767491960676 -0.00024043248995290554 -0.00034820767491960676 0.08860137540381381 -0.00012978623216110675 -0.00024043248995290554 -0.00012978623216110675 0.0886997234657088" free_energy=-11288.160222939796 pbc="T T T"
In       9.63877968       5.20304398       3.59262875        0       0.02391845       0.01291125       0.00891504
In       6.96773913       3.76120778       2.59706112        1      -0.02391844      -0.01291125      -0.00891504
In       4.10327341       2.21496006       1.52939879        2       0.02391845       0.01291125       0.00891504
In       1.43223286       0.77312386       0.53383116        3      -0.02391844      -0.01291125      -0.00891504
O        5.44743296       2.12544810       0.00848715        4       0.00000000       0.00736583      -0.01066760
O        6.30500187       4.76791204       0.96143421        5      -0.00615787       0.01140762      -0.00000000
O        7.44569049       1.83966194       2.14189787        6       0.00615787      -0.00404179      -0.01066760
O        3.62532204       4.13650590       1.98456204        7      -0.00615787       0.00404179       0.01066760
O        5.62357958       3.85071974       4.11797276        8      -0.00000000      -0.00736583       0.01066760
O        4.76601067       1.20825580       3.16502570        9       0.00615787      -0.01140762       0.00000000
10
Lattice="5.359994559456965 -0.10096413096863424 -0.06971431368870507 2.856739591423728 4.53638339869358 -0.06971431368871762 2.8567395914237363 1.5420771311331207 4.266805895176389" Properties=species:S:1:pos:R:3:spacegroup_kinds:I:1:forces:R:3 spacegroup="P 1" unit_cell=conventional occupancy="_JSON {\"0\": {\"In\": 1}, \"1\": {\"In\": 1}, \"2\": {\"In\": 1}, \"3\": {\"In\": 1}, \"4\": {\"O\": 1}, \"5\": {\"O\": 1}, \"6\": {\"O\": 1}, \"7\": {\"O\": 1}, \"8\": {\"O\": 1}, \"9\": {\"O\": 1}}" n_minim_iter=8 energy=-11288.160373684752 stress="0.08803287181181915 -2.3820861856624753e-05 -1.644794043037487e-05 -2.3820861856624753e-05 0.08806414201002559 -8.87865936813245e-06 -1.644794043037487e-05 -8.87865936813245e-06 0.0880708699936436" free_energy=-11288.160373684752 pbc="T T T"
In       9.64278742       5.20520737       3.59412254        0      -0.00203265      -0.00109723      -0.00075762
In       6.96742318       3.76103723       2.59694336        1       0.00203265       0.00109723       0.00075762
In       4.10605054       2.21645917       1.53043391        2      -0.00203265      -0.00109723      -0.00075762
In       1.43068631       0.77228903       0.53325472        3       0.00203265       0.00109723       0.00075762
O        5.44836571       2.12658778       0.00826936        4       0.00000000      -0.00300374       0.00435018
O        6.30599846       4.76938954       0.96213000        5       0.00251114      -0.00465196       0.00000000
O        7.44747255       1.84032053       2.14167231        6      -0.00251114       0.00164822       0.00435018
O        3.62600118       4.13717587       1.98570495        7       0.00251114      -0.00164822      -0.00435018
O        5.62510802       3.85090862       4.11910790        8       0.00000000       0.00300374      -0.00435018
O        4.76747527       1.20810685       3.16524726        9      -0.00251114       0.00465196      -0.00000000
