10
Lattice="5.762457497353366 -0.016144991055088154 -0.01114788945456977 3.1484890214228147 4.826302306271348 -0.011147889454567622 3.148489021422812 1.6995644027672814 4.517167150748992" Properties=species:S:1:pos:R:3:spacegroup_kinds:I:1:forces:R:3 spacegroup="P 1" unit_cell=conventional occupancy="_JSON {\"0\": {\"In\": 1}, \"1\": {\"In\": 1}, \"2\": {\"In\": 1}, \"3\": {\"In\": 1}, \"4\": {\"O\": 1}, \"5\": {\"O\": 1}, \"6\": {\"O\": 1}, \"7\": {\"O\": 1}, \"8\": {\"O\": 1}, \"9\": {\"O\": 1}}" n_minim_iter=5 energy=-11287.662925610817 stress="-0.012983502363590669 9.46997348021591e-05 6.538882957602523e-05 9.46997348021591e-05 -0.013107816946636049 3.5297100390250784e-05 6.538882957602523e-05 3.5297100390250784e-05 -0.01313456403476429" free_energy=-11287.662925610817 pbc="T T T"
In      10.34618779       5.58490513       3.85629851        0       0.00015706       0.00008478       0.00005854
In       7.74296553       4.17967746       2.88600855        1      -0.00015706      -0.00008478      -0.00005854
In       4.31647002       2.33004427       1.60886283        2       0.00015706       0.00008478       0.00005854
In       1.71324776       0.92481660       0.63857286        3      -0.00015706      -0.00008478      -0.00005854
O        5.89608764       2.26148285       0.18818304        4       0.00000000       0.00250332      -0.00362545
O        6.93351252       5.02698197       1.11256996        5      -0.00209279       0.00387694      -0.00000000
O        8.00715177       2.11679218       2.44676661        6       0.00209279      -0.00137363      -0.00362545
O        4.05228378       4.39292955       2.04810476        7      -0.00209279       0.00137363       0.00362545
O        6.16334791       4.24823888       4.30668834        8      -0.00000000      -0.00250332       0.00362545
O        5.12592303       1.48273976       3.38230142        9       0.00209279      -0.00387694       0.00000000
