10
Lattice="6.085779357955684 0.0661186273449359 0.045653983084578575 3.3946755846824033 5.051461149149093 0.04565398308457569 3.3946755846823997 1.8324566938023463 4.707594554852102" Properties=species:S:1:pos:R:3:spacegroup_kinds:I:1:forces:R:3 spacegroup="P 1" unit_cell=conventional occupancy="_JSON {\"0\": {\"In\": 1}, \"1\": {\"In\": 1}, \"2\": {\"In\": 1}, \"3\": {\"In\": 1}, \"4\": {\"O\": 1}, \"5\": {\"O\": 1}, \"6\": {\"O\": 1}, \"7\": {\"O\": 1}, \"8\": {\"O\": 1}, \"9\": {\"O\": 1}}" n_minim_iter=1 energy=-11287.616611372985 stress="0.034412443690266234 0.006083200802588624 0.004200364674404412 0.006083200802588624 0.02642688084874762 0.002267370231615853 0.004200364674404412 0.002267370231615853 0.024708736960424707" free_energy=-11287.616611372985 pbc="T T T"
In      10.98185776       5.92804180       4.09322956        0      -0.00852766      -0.00460326      -0.00317849
In       8.33083804       4.49701291       3.10512422        1       0.00852766       0.00460326       0.00317849
In       4.54429250       2.45302357       1.69377830        2      -0.00852766      -0.00460326      -0.00317849
In       1.89327278       1.02199468       0.70567296        3       0.00852766       0.00460326       0.00317849
O        6.26167232       2.41481401       0.28952049        4       0.00000000       0.01116367      -0.01616785
O        7.42041760       5.29405621       1.24537962        5      -0.00933289       0.01728943      -0.00000000
O        8.49760262       2.33328516       2.64331777        6       0.00933289      -0.00612575      -0.01616785
O        4.37752792       4.61675132       2.15558475        7      -0.00933289       0.00612575       0.01616785
O        6.61345822       4.53522247       4.50938203        8      -0.00000000      -0.01116367       0.01616785
O        5.45471294       1.65598028       3.55352291        9       0.00933289      -0.01728943       0.00000000
10
Lattice="6.0523852709055594 0.03210991097116225 0.02217144231802065 3.3479200631549686 5.042204851509065 0.022171442318017785 3.347920063154967 1.8072179143496745 4.707258729610014" Properties=species:S:1:pos:R:3:spacegroup_kinds:I:1:forces:R:3 spacegroup="P 1" unit_cell=conventional occupancy="_JSON {\"0\": {\"In\": 1}, \"1\": {\"In\": 1}, \"2\": {\"In\": 1}, \"3\": {\"In\": 1}, \"4\": {\"O\": 1}, \"5\": {\"O\": 1}, \"6\": {\"O\": 1}, \"7\": {\"O\": 1}, \"8\": {\"O\": 1}, \"9\": {\"O\": 1}}" n_minim_iter=2 energy=-11287.628428302214 stress="0.021056478274381944 4.026347411886014e-05 2.7801363745240617e-05 4.026347411886014e-05 0.02100362344492631 1.5007262702381394e-05 2.7801363745240617e-05 1.5007262702381394e-05 0.02099225139694193" free_energy=-11287.628428302214 pbc="T T T"
In      10.87355932       5.86958196       4.05286386        0       0.03838831       0.02072213       0.01430834
In       8.24877878       4.45271707       3.07453856        1      -0.03838831      -0.02072213      -0.01430834
In       4.49944662       2.42881562       1.67706306        2       0.03838831       0.02072213       0.01430834
In       1.87466609       1.01195073       0.69873776        3      -0.03838831      -0.02072213      -0.01430834
O        6.21324899       2.38395490       0.26121647        4      -0.00000000       0.01720283      -0.02491410
O        7.34588177       5.26036392       1.21007185        5      -0.01438165       0.02664240       0.00000000
O        8.42853627       2.28474049       2.61484584        6       0.01438165      -0.00943957      -0.02491410
O        4.31968914       4.59679220       2.13675578        7      -0.01438166       0.00943957       0.02491410
O        6.53497642       4.49757779       4.49038515        8      -0.00000000      -0.01720283       0.02491410
O        5.40234363       1.62116877       3.54152977        9       0.01438165      -0.02664240      -0.00000000
10
Lattice="6.049925236284783 0.029592618362229466 0.020433287144477917 3.344465719245832 5.041529543748253 0.020433287144475155 3.3444657192458305 1.8053532485042678 4.7072430687001" Properties=species:S:1:pos:R:3:spacegroup_kinds:I:1:forces:R:3 spacegroup="P 1" unit_cell=conventional occupancy="_JSON {\"0\": {\"In\": 1}, \"1\": {\"In\": 1}, \"2\": {\"In\": 1}, \"3\": {\"In\": 1}, \"4\": {\"O\": 1}, \"5\": {\"O\": 1}, \"6\": {\"O\": 1}, \"7\": {\"O\": 1}, \"8\": {\"O\": 1}, \"9\": {\"O\": 1}}" n_minim_iter=3 energy=-11287.6291452252 stress="0.020346010879092224 -0.00025457281389018523 -0.0001757789472439215 -0.00025457281389018523 0.020680194684337804 -9.488603860775095e-05 -0.0001757789472439215 -9.488603860775095e-05 0.020752096416597296" free_energy=-11287.6291452252 pbc="T T T"
In      10.86827375       5.86672879       4.05089379        0       0.02287895       0.01235013       0.00852759
In       8.24001127       4.44798433       3.07127068        1      -0.02287895      -0.01235013      -0.00852759
In       4.49884541       2.42849109       1.67683897        2       0.02287895       0.01235013       0.00852759
In       1.87058293       1.00974663       0.69721586        3      -0.02287895      -0.01235013      -0.00852759
O        6.20967679       2.38292038       0.25731875        4       0.00000000       0.00614447      -0.00889877
O        7.33933806       5.25980849       1.20746070        5      -0.00513681       0.00951608      -0.00000000
O        8.42448125       2.28046845       2.61094029        6       0.00513681      -0.00337161      -0.00889877
O        4.31437544       4.59600697       2.13716936        7      -0.00513681       0.00337161       0.00889877
O        6.52917989       4.49355504       4.49079089        8      -0.00000000      -0.00614447       0.00889877
O        5.39951863       1.61666693       3.54064895        9       0.00513681      -0.00951608      -0.00000000
10
Lattice="6.050317698694559 0.029994327102243402 0.020710661384657585 3.3450169024531458 5.041637217918178 0.020710661384654754 3.345016902453144 1.8056507789552814 4.707245482556753" Properties=species:S:1:pos:R:3:spacegroup_kinds:I:1:forces:R:3 spacegroup="P 1" unit_cell=conventional occupancy="_JSON {\"0\": {\"In\": 1}, \"1\": {\"In\": 1}, \"2\": {\"In\": 1}, \"3\": {\"In\": 1}, \"4\": {\"O\": 1}, \"5\": {\"O\": 1}, \"6\": {\"O\": 1}, \"7\": {\"O\": 1}, \"8\": {\"O\": 1}, \"9\": {\"O\": 1}}" n_minim_iter=4 energy=-11287.629374674476 stress="0.02089126396714673 -4.009487771782269e-06 -2.768491614091548e-06 -4.009487771782269e-06 0.02089652730431642 -1.4944481614447045e-06 -2.768491614091548e-06 -1.4944481614447045e-06 0.020897659743410155" free_energy=-11287.629374674476 pbc="T T T"
In      10.87204319       5.86876355       4.05229876        0       0.00418698       0.00226014       0.00156060
In       8.23848408       4.44715995       3.07070145        1      -0.00418698      -0.00226014      -0.00156060
In       4.50186744       2.43012238       1.67796536        2       0.00418698       0.00226014       0.00156060
In       1.86830833       1.00851879       0.69636805        3      -0.00418698      -0.00226014      -0.00156060
O        6.21024673       2.38434404       0.25611795        4       0.00000000      -0.00311906       0.00451719
O        7.33932996       5.26184628       1.20787737        5       0.00260755      -0.00483055      -0.00000000
O        8.42618040       2.28045951       2.60974069        6      -0.00260755       0.00171150       0.00451719
O        4.31417111       4.59682282       2.13892612        7       0.00260755      -0.00171150      -0.00451719
O        6.53010478       4.49293829       4.49254886        8      -0.00000000       0.00311906      -0.00451719
O        5.40102155       1.61543606       3.54078944        9      -0.00260755       0.00483055      -0.00000000
