10
Lattice="5.402368750658733 -0.17515832248229674 -0.12094436035417669 2.817964521828843 4.612520407515029 -0.12094436035418651 2.817964521828848 1.5211462250540677 4.356154980030885" Properties=species:S:1:pos:R:3:spacegroup_kinds:I:1:forces:R:3 spacegroup="P 1" unit_cell=conventional occupancy="_JSON {\"0\": {\"In\": 1}, \"1\": {\"In\": 1}, \"2\": {\"In\": 1}, \"3\": {\"In\": 1}, \"4\": {\"O\": 1}, \"5\": {\"O\": 1}, \"6\": {\"O\": 1}, \"7\": {\"O\": 1}, \"8\": {\"O\": 1}, \"9\": {\"O\": 1}}" n_minim_iter=7 energy=-11287.655829987307 stress="0.06779899791518221 3.132063588544785e-07 2.1627881923637082e-07 3.132063588544785e-07 0.06779858673453745 1.1673978777389289e-07 2.1627881923637082e-07 1.1673978777389289e-07 0.0677984982700192" free_energy=-11287.655829987307 pbc="T T T"
In       9.61527725       5.19035729       3.58386877        0      -0.00000893      -0.00000482      -0.00000333
In       6.94216945       3.74740518       2.58753062        1       0.00000893       0.00000482       0.00000333
In       4.09612836       2.21110314       1.52673564        2      -0.00000893      -0.00000482      -0.00000333
In       1.42302055       0.76815103       0.53039749        3       0.00000893       0.00000482       0.00000333
O        5.46075883       2.09806072      -0.03990990        4       0.00000000      -0.00003493       0.00005059
O        6.28787092       4.78623835       0.90762221        5       0.00002921      -0.00005410       0.00000000
O        7.45161126       1.78070361       2.13816759        6      -0.00002921       0.00001917       0.00005059
O        3.58668654       4.17780471       1.97609868        7       0.00002921      -0.00001917      -0.00005059
O        5.57753897       3.86044760       4.15417617        8       0.00000000       0.00003493      -0.00005059
O        4.75042688       1.17226997       3.20664406        9      -0.00002921       0.00005410      -0.00000000
