1
Lattice="4.839688099095443 -0.08760211308581116 -3.0809643607337204e-10 0.24756172725309192 4.834146069156643 -9.71540846593614e-10 -2.543624912947972 -2.3732719773705893 3.3656808301443366" Properties=species:S:1:pos:R:3:spacegroup_kinds:I:1:forces:R:3 spacegroup="P 1" unit_cell=conventional occupancy="_JSON {\"0\": {\"In\": 1}}" n_minim_iter=1 energy=-1970.5806246825318 stress="-0.015834462949990056 0.002520081347590898 -7.767539749601365e-13 0.002520081347590898 -0.016184129992400192 -6.206892672996092e-13 -7.767539749601365e-13 -6.206892672996092e-13 -0.018535435176499828" free_energy=-1970.5806246825318 pbc="T T T"
In       0.00000000       0.00000000       0.00000000        0       0.00000000       0.00000000      -0.00000000
