1
Lattice="4.925364034259911 -0.08915291404804854 -3.135530479252877e-10 0.2519442581226509 4.919723894982661 -9.88741397600015e-10 -2.588654145960979 -2.4152854897907083 3.4252627384581498" Properties=species:S:1:pos:R:3:spacegroup_kinds:I:1:forces:R:3 spacegroup="P 1" unit_cell=conventional occupancy="_JSON {\"0\": {\"In\": 1}}" n_minim_iter=1 energy=-1970.6191630267538 stress="-0.00010664266464350259 0.002994918881862382 -8.895345077237294e-13 0.002994918881862382 -0.000522194499613917 -6.653199776872113e-13 -8.895345077237294e-13 -6.653199776872113e-13 -0.0033165361582443817" free_energy=-1970.6191630267538 pbc="T T T"
In       0.00000000       0.00000000       0.00000000        0      -0.00000000      -0.00000000       0.00000000
