1
Lattice="4.882901886529395 -0.08838431619810612 -3.1084926236345816e-10 0.2497722167803588 4.877310371562054 -9.802156024970508e-10 -2.566337051426561 -2.3944630270112097 3.3957331419847594" Properties=species:S:1:pos:R:3:spacegroup_kinds:I:1:forces:R:3 spacegroup="P 1" unit_cell=conventional occupancy="_JSON {\"0\": {\"In\": 1}}" n_minim_iter=1 energy=-1970.6081476927757 stress="-0.007899449835546832 0.002791836118387306 -1.053367832477687e-12 0.002791836118387306 -0.008286823472859063 -3.799620751182171e-13 -1.053367832477687e-12 -3.799620751182171e-13 -0.010891683329730954" free_energy=-1970.6081476927757 pbc="T T T"
In       0.00000000       0.00000000       0.00000000        0      -0.00000000      -0.00000000       0.00000000
