1
Lattice="5.2039854823230405 -0.09419617863485336 -3.31289733957772e-10 0.26619641766680985 5.198026287690333 -1.0446766390623571e-09 -2.7350909497515956 -2.5519150538128654 3.6190254040291814" Properties=species:S:1:pos:R:3:spacegroup_kinds:I:1:forces:R:3 spacegroup="P 1" unit_cell=conventional occupancy="_JSON {\"0\": {\"In\": 1}}" n_minim_iter=1 energy=-1970.220265018041 stress="0.06053456883084288 0.0025489240193770912 -6.871672347187781e-13 0.0025489240193770912 0.06018089980165245 -6.411605246450814e-13 -6.871672347187781e-13 -6.411605246450814e-13 0.057802683611836984" free_energy=-1970.220265018041 pbc="T T T"
In       0.00000000       0.00000000       0.00000000        0       0.00000000      -0.00000000       0.00000000
