1
Lattice="4.967106397662485 -0.08990848324267259 -3.162109623709447e-10 0.2540794807593124 4.961418458315691 -9.971220676484044e-10 -2.610592938978645 -2.4357549868541764 3.454291772857127" Properties=species:S:1:pos:R:3:spacegroup_kinds:I:1:forces:R:3 spacegroup="P 1" unit_cell=conventional occupancy="_JSON {\"0\": {\"In\": 1}}" n_minim_iter=1 energy=-1970.6136200438 stress="0.007879173146964813 0.0032064672713157183 -7.384059829739536e-13 0.0032064672713157183 0.007434268489567117 -9.416422038859952e-13 -7.384059829739536e-13 -9.416422038859952e-13 0.004442546367374391" free_energy=-1970.6136200438 pbc="T T T"
In       0.00000000       0.00000000       0.00000000        0      -0.00000000       0.00000000      -0.00000000
