1
Lattice="5.127445165663088 -0.09281073946225087 -3.264163128402849e-10 0.26228119573331693 5.121573618977474 -1.0293102780945328e-09 -2.6948631804584524 -2.514381439053252 3.565796710104933" Properties=species:S:1:pos:R:3:spacegroup_kinds:I:1:forces:R:3 spacegroup="P 1" unit_cell=conventional occupancy="_JSON {\"0\": {\"In\": 1}}" n_minim_iter=1 energy=-1970.4267347685036 stress="0.03907670580498321 0.002265639644330093 -6.107956633847348e-13 0.002265639644330093 0.03876234312982541 -5.698914023979636e-13 -6.107956633847348e-13 -5.698914023979636e-13 0.036648439050507096" free_energy=-1970.4267347685036 pbc="T T T"
In       0.00000000       0.00000000       0.00000000        0       0.00000000      -0.00000000      -0.00000000
