1
Lattice="5.008158725426051 -0.09065156225634909 -3.188232127245288e-10 0.25617940640758025 5.0024237761842265 -1.005362704647628e-09 -2.6321690656826435 -2.4558861062759663 3.4828409334140766" Properties=species:S:1:pos:R:3:spacegroup_kinds:I:1:forces:R:3 spacegroup="P 1" unit_cell=conventional occupancy="_JSON {\"0\": {\"In\": 1}}" n_minim_iter=1 energy=-1970.5907834564493 stress="0.015855000610677926 0.0032700456341584333 -8.554543170261224e-13 0.0032700456341584333 0.015401274310462903 -8.505703469006455e-13 -8.554543170261224e-13 -8.505703469006455e-13 0.012350231827646364" free_energy=-1970.5907834564493 pbc="T T T"
In       0.00000000       0.00000000       0.00000000        0      -0.00000000       0.00000000       0.00000000
