1
Lattice="5.165998832577679 -0.09350859077410524 -3.2887272079319077e-10 0.2642533088484382 5.160083137266798 -1.03704934924321e-09 -2.7151260704715043 -2.53328727253669 3.5926082184106973" Properties=species:S:1:pos:R:3:spacegroup_kinds:I:1:forces:R:3 spacegroup="P 1" unit_cell=conventional occupancy="_JSON {\"0\": {\"In\": 1}}" n_minim_iter=1 energy=-1970.3349163648963 stress="0.049267571036930066 0.002459710109080104 -6.631459523450033e-13 0.002459710109080104 0.04892628064154953 -6.18685199664909e-13 -6.631459523450033e-13 -6.18685199664909e-13 0.04663130348287505" free_energy=-1970.3349163648963 pbc="T T T"
In       0.00000000       0.00000000       0.00000000        0       0.00000000      -0.00000000      -0.00000000
