1
Lattice="4.795688499149839 -0.08680568615679149 -3.0529557856208964e-10 0.24531104151922922 4.7901968540902296 -9.627070371665184e-10 -2.5204997701102974 -2.3516955833079365 3.3350820380241135" Properties=species:S:1:pos:R:3:spacegroup_kinds:I:1:forces:R:3 spacegroup="P 1" unit_cell=conventional occupancy="_JSON {\"0\": {\"In\": 1}}" n_minim_iter=1 energy=-1970.536161986785 stress="-0.024085913199530032 0.0021317957053249804 -5.9163706246221e-13 0.0021317957053249804 -0.02438170472163708 -5.520154070284424e-13 -5.9163706246221e-13 -5.520154070284424e-13 -0.02637072872673986" free_energy=-1970.536161986785 pbc="T T T"
In       0.00000000       0.00000000       0.00000000        0       0.00000000      -0.00000000       0.00000000
