1
Lattice="5.314741660133571 -0.09620095146625315 -3.3834060330759146e-10 0.2718618634809428 5.30865563624229 -1.0669108296473174e-09 -2.7933017615587477 -2.606227341657929 3.69604895117608" Properties=species:S:1:pos:R:3:spacegroup_kinds:I:1:forces:R:3 spacegroup="P 1" unit_cell=conventional occupancy="_JSON {\"0\": {\"In\": 1}}" n_minim_iter=1 energy=-1969.9179072304817 stress="0.08284084898026194 0.0022588075172696185 -6.089653639349074e-13 0.0022588075172696185 0.08252743427833764 -5.682340446284348e-13 -6.089653639349074e-13 -5.682340446284348e-13 0.08041990476140824" free_energy=-1969.9179072304817 pbc="T T T"
In       0.00000000       0.00000000       0.00000000        0       0.00000000      -0.00000000      -0.00000000
