1
Lattice="4.5625121120304835 -0.08258501246561123 -2.9045483427591344e-10 0.23338350652772968 4.55728748221896 -9.158975087096161e-10 -2.3979478090657698 -2.2373512342499238 3.1729233864538586" Properties=species:S:1:pos:R:3:spacegroup_kinds:I:1:forces:R:3 spacegroup="P 1" unit_cell=conventional occupancy="_JSON {\"0\": {\"In\": 1}}" n_minim_iter=1 energy=-1970.1768904250657 stress="-0.059880304426974604 -0.00039117359955724335 9.328248618962127e-13 -0.00039117359955724335 -0.05982602819663248 8.70347329332571e-13 9.328248618962127e-13 8.70347329332571e-13 -0.0594610524744717" free_energy=-1970.1768904250657 pbc="T T T"
In       0.00000000       0.00000000       0.00000000        0       0.00000000       0.00000000       0.00000000
