1
Lattice="4.512915660990386 -0.08168727818527924 -2.872979130553806e-10 0.23084652835192382 4.507747825131468 -9.059407936840808e-10 -2.3718810944601376 -2.213030272853157 3.1384323570546604" Properties=species:S:1:pos:R:3:spacegroup_kinds:I:1:forces:R:3 spacegroup="P 1" unit_cell=conventional occupancy="_JSON {\"0\": {\"In\": 1}}" n_minim_iter=1 energy=-1970.0408712520523 stress="-0.06815813849197065 -0.0010611559097222219 -3.180166707992309e-14 -0.0010611559097222219 -0.0680109006859168 -2.891433580173719e-13 -3.180166707992309e-14 -2.891433580173719e-13 -0.06702081304747551" free_energy=-1970.0408712520523 pbc="T T T"
In       0.00000000       0.00000000       0.00000000        0       0.00000000       0.00000000       0.00000000
