20
Lattice="5.588757553499286 -7.046254175207399e-63 -3.0871599374479737e-44 -2.964886274433798e-62 5.675652660562394 5.7554851530727806e-18 -7.729941891543188e-44 8.173860157128365e-18 8.078182793679268" Properties=species:S:1:pos:R:3:spacegroup_kinds:I:1:forces:R:3 spacegroup="P 1" unit_cell=conventional occupancy="_JSON {\"0\": {\"In\": 1}, \"1\": {\"In\": 1}, \"2\": {\"In\": 1}, \"3\": {\"In\": 1}, \"4\": {\"In\": 1}, \"5\": {\"In\": 1}, \"6\": {\"In\": 1}, \"7\": {\"In\": 1}, \"8\": {\"O\": 1}, \"9\": {\"O\": 1}, \"10\": {\"O\": 1}, \"11\": {\"O\": 1}, \"12\": {\"O\": 1}, \"13\": {\"O\": 1}, \"14\": {\"O\": 1}, \"15\": {\"O\": 1}, \"16\": {\"O\": 1}, \"17\": {\"O\": 1}, \"18\": {\"O\": 1}, \"19\": {\"O\": 1}}" n_minim_iter=6 energy=-22574.96282704738 stress="-0.0003907113153856484 -2.172626044817633e-13 -8.046055733611798e-14 -2.172626044817633e-13 -0.0003685642856384919 3.462141909182794e-13 -8.046055733611798e-14 3.462141909182794e-13 -0.0002879828533387722" free_energy=-22574.96282704738 pbc="T T T"
In       1.38637781       2.99956220       0.92566327        0       0.00145668      -0.00220502      -0.00113910
In       1.40800096       0.16173587       3.11342813        1      -0.00145668      -0.00220502       0.00113910
In       1.40800096       2.67609046       4.96475467        2      -0.00145668       0.00220502      -0.00113910
In       1.38637781       5.51391679       7.15251952        3       0.00145668       0.00220502       0.00113910
In       4.20237974       2.67609046       7.15251952        4      -0.00145668       0.00220502       0.00113910
In       4.18075659       5.51391679       4.96475467        5       0.00145668       0.00220502      -0.00113910
In       4.18075659       2.99956220       3.11342813        6       0.00145668      -0.00220502       0.00113910
In       4.20237974       0.16173587       0.92566327        7      -0.00145668      -0.00220502      -0.00113910
O        2.18054789       3.42685304       6.86077286        8      -0.00314039      -0.00161533       0.00327925
O        0.61383089       0.58902671       5.25650133        9       0.00314039      -0.00161533      -0.00327925
O        0.61383089       2.24879962       2.82168146       10       0.00314039       0.00161533       0.00327925
O        2.18054789       5.08662595       1.21740993       11      -0.00314039       0.00161533      -0.00327925
O        3.40820967       2.24879962       1.21740993       12       0.00314039       0.00161533      -0.00327925
O        4.97492666       5.08662595       2.82168146       13      -0.00314039       0.00161533       0.00327925
O        4.97492666       3.42685304       5.25650133       14      -0.00314039      -0.00161533      -0.00327925
O        3.40820967       0.58902671       6.86077286       15       0.00314039      -0.00161533       0.00327925
O        5.35610900       4.25673950      -0.00000000       16       0.00215412      -0.00000000      -0.00000000
O        3.02702733       1.41891317       4.03909140       17      -0.00215412       0.00000000       0.00000000
O        0.23264855       1.41891317      -0.00000000       18      -0.00215412       0.00000000      -0.00000000
O        2.56173023       4.25673950       4.03909140       19       0.00215412       0.00000000      -0.00000000
