20
Lattice="5.745971563959007 6.841216114341763e-60 -4.983040709295867e-44 1.9433465179257364e-59 6.088311208066661 1.5520111271654186e-15 -1.2839701782610087e-43 -1.0852997877536095e-15 5.676571888348857" Properties=species:S:1:pos:R:3:spacegroup_kinds:I:1:forces:R:3 spacegroup="P 1" unit_cell=conventional occupancy="_JSON {\"0\": {\"In\": 1}, \"1\": {\"In\": 1}, \"2\": {\"In\": 1}, \"3\": {\"In\": 1}, \"4\": {\"In\": 1}, \"5\": {\"In\": 1}, \"6\": {\"In\": 1}, \"7\": {\"In\": 1}, \"8\": {\"O\": 1}, \"9\": {\"O\": 1}, \"10\": {\"O\": 1}, \"11\": {\"O\": 1}, \"12\": {\"O\": 1}, \"13\": {\"O\": 1}, \"14\": {\"O\": 1}, \"15\": {\"O\": 1}, \"16\": {\"O\": 1}, \"17\": {\"O\": 1}, \"18\": {\"O\": 1}, \"19\": {\"O\": 1}}" n_minim_iter=11 energy=-22579.16199457945 stress="-0.04903612280818725 1.4882409144050043e-13 5.408427027232417e-13 1.4882409144050043e-13 -0.049067956867833606 -1.3241275637944048e-13 5.408427027232417e-13 -1.3241275637944048e-13 -0.049075524082322824" free_energy=-22579.16199457945 pbc="T T T"
In       1.53524820       3.37257033       0.64342017        0       0.00430430       0.00016558      -0.00285900
In       1.33773759       0.32841472       2.19486577        1      -0.00430430       0.00016558       0.00285900
In       1.33773759       2.71574088       3.48170611        2      -0.00430430      -0.00016558      -0.00285900
In       1.53524820       5.75989648       5.03315172        3       0.00430430      -0.00016558       0.00285900
In       4.21072337       2.71574088       5.03315172        4      -0.00430430      -0.00016558       0.00285900
In       4.40823398       5.75989648       3.48170611        5       0.00430430      -0.00016558      -0.00285900
In       4.40823398       3.37257033       2.19486577        6       0.00430430       0.00016558       0.00285900
In       4.21072337       0.32841472       0.64342017        7      -0.00430430       0.00016558      -0.00285900
O        2.77324489       4.07871993       4.33738728        8      -0.00258885      -0.00145738      -0.00145740
O        0.09974089       1.03456433       4.17747055        9       0.00258885      -0.00145738       0.00145740
O        0.09974089       2.00959127       1.49910134       10       0.00258885       0.00145738      -0.00145740
O        2.77324489       5.05374688       1.33918461       11      -0.00258885       0.00145738       0.00145740
O        2.97272667       2.00959127       1.33918461       12       0.00258885       0.00145738       0.00145740
O        5.64623068       5.05374688       1.49910134       13      -0.00258885       0.00145738      -0.00145740
O        5.64623068       4.07871993       4.17747055       14      -0.00258885      -0.00145738       0.00145740
O        2.97272667       1.03456433       4.33738728       15       0.00258885      -0.00145738      -0.00145740
O        5.39453268       4.56623341       0.00000000       16       0.00744671       0.00000000      -0.00000000
O        3.22442467       1.52207780       2.83828594       17      -0.00744671       0.00000000       0.00000000
O        0.35143889       1.52207780       0.00000000       18      -0.00744671      -0.00000000      -0.00000000
O        2.52154689       4.56623341       2.83828594       19       0.00744671      -0.00000000      -0.00000000
