20
Lattice="5.422398854046534 -3.3114777125128392e-59 8.704990750213303e-44 3.387155509432698e-59 5.527731471638739 -7.070493869999708e-18 -1.2351671194045507e-43 9.841282084448609e-18 7.693941286096232" Properties=species:S:1:pos:R:3:spacegroup_kinds:I:1:forces:R:3 spacegroup="P 1" unit_cell=conventional occupancy="_JSON {\"0\": {\"In\": 1}, \"1\": {\"In\": 1}, \"2\": {\"In\": 1}, \"3\": {\"In\": 1}, \"4\": {\"In\": 1}, \"5\": {\"In\": 1}, \"6\": {\"In\": 1}, \"7\": {\"In\": 1}, \"8\": {\"O\": 1}, \"9\": {\"O\": 1}, \"10\": {\"O\": 1}, \"11\": {\"O\": 1}, \"12\": {\"O\": 1}, \"13\": {\"O\": 1}, \"14\": {\"O\": 1}, \"15\": {\"O\": 1}, \"16\": {\"O\": 1}, \"17\": {\"O\": 1}, \"18\": {\"O\": 1}, \"19\": {\"O\": 1}}" n_minim_iter=1 energy=-22573.80334386955 stress="-0.10492543358971636 -3.092787812112434e-13 -2.860589262254457e-13 -3.092787812112434e-13 -0.10512554789916034 1.342195363274294e-13 -2.860589262254457e-13 1.342195363274294e-13 -0.09979873465835415" free_energy=-22573.80334386955 pbc="T T T"
In       1.35501487       2.94141350       0.88655331        0       0.04262036       0.02101731       0.07254159
In       1.35618456       0.17754776       2.96041734        1      -0.04262036       0.02101731      -0.07254159
In       1.35618456       2.58631797       4.73352395        2      -0.04262036      -0.02101731       0.07254159
In       1.35501487       5.35018371       6.80738798        3       0.04262036      -0.02101731      -0.07254159
In       4.06738399       2.58631797       6.80738798        4      -0.04262036      -0.02101731      -0.07254159
In       4.06621429       5.35018371       4.73352395        5       0.04262036      -0.02101731       0.07254159
In       4.06621429       2.94141350       2.96041734        6       0.04262036       0.02101731      -0.07254159
In       4.06738399       0.17754776       0.88655331        7      -0.04262036       0.02101731       0.07254159
O        2.10461294       3.33060039       6.54468265        8      -0.04313303       0.00661037       0.05909481
O        0.60658649       0.56673466       4.99622928        9       0.04313303       0.00661037      -0.05909481
O        0.60658649       2.19713108       2.69771201       10       0.04313303      -0.00661037       0.05909481
O        2.10461294       4.96099681       1.14925863       11      -0.04313303      -0.00661037      -0.05909481
O        3.31778592       2.19713108       1.14925863       12       0.04313303      -0.00661037      -0.05909481
O        4.81581236       4.96099681       2.69771201       13      -0.04313303      -0.00661037       0.05909481
O        4.81581236       3.33060039       4.99622928       14      -0.04313303       0.00661037      -0.05909481
O        3.31778592       0.56673466       6.54468265       15       0.04313303       0.00661037       0.05909481
O        5.18756433       4.14579860       0.00000000       16       0.01893381      -0.00000000       0.00000000
O        2.94603395       1.38193287       3.84697064       17      -0.01893381       0.00000000      -0.00000000
O        0.23483452       1.38193287       0.00000000       18      -0.01893381      -0.00000000       0.00000000
O        2.47636490       4.14579860       3.84697064       19       0.01893381       0.00000000       0.00000000
20
Lattice="5.430054359173898 -3.124974815025276e-59 7.714585715622971e-44 3.5387129656547025e-59 5.536487446294866 2.47739734268731e-17 -1.4137077147536352e-43 5.3798338182428357e-17 7.670943223070905" Properties=species:S:1:pos:R:3:spacegroup_kinds:I:1:forces:R:3 spacegroup="P 1" unit_cell=conventional occupancy="_JSON {\"0\": {\"In\": 1}, \"1\": {\"In\": 1}, \"2\": {\"In\": 1}, \"3\": {\"In\": 1}, \"4\": {\"In\": 1}, \"5\": {\"In\": 1}, \"6\": {\"In\": 1}, \"7\": {\"In\": 1}, \"8\": {\"O\": 1}, \"9\": {\"O\": 1}, \"10\": {\"O\": 1}, \"11\": {\"O\": 1}, \"12\": {\"O\": 1}, \"13\": {\"O\": 1}, \"14\": {\"O\": 1}, \"15\": {\"O\": 1}, \"16\": {\"O\": 1}, \"17\": {\"O\": 1}, \"18\": {\"O\": 1}, \"19\": {\"O\": 1}}" n_minim_iter=2 energy=-22573.805239431964 stress="-0.10178737649410774 9.427092054386799e-13 -4.873834150483611e-13 9.427092054386799e-13 -0.10266871142012472 2.753455054674606e-13 -4.873834150483611e-13 2.753455054674606e-13 -0.1030527919986462" free_energy=-22573.805239431964 pbc="T T T"
In       1.35708692       2.94615114       0.88417273        0       0.06211291       0.03677159       0.05667779
In       1.35794026       0.17790742       2.95129888        1      -0.06211291       0.03677159      -0.05667779
In       1.35794026       2.59033630       4.71964434        2      -0.06211291      -0.03677159       0.05667779
In       1.35708692       5.35858003       6.78677049        3       0.06211291      -0.03677159      -0.05667779
In       4.07296744       2.59033630       6.78677049        4      -0.06211291      -0.03677159      -0.05667779
In       4.07211410       5.35858003       4.71964434        5       0.06211291      -0.03677159       0.05667779
In       4.07211410       2.94615114       2.95129888        6       0.06211291       0.03677159      -0.05667779
In       4.07296744       0.17790742       0.88417273        7      -0.06211291       0.03677159       0.05667779
O        2.10742338       3.33590076       6.52533934        8      -0.01698556       0.02461855       0.06865083
O        0.60760380       0.56765703       4.98107549        9       0.01698556       0.02461855      -0.06865083
O        0.60760380       2.20058669       2.68986773       10       0.01698556      -0.02461855       0.06865083
O        2.10742338       4.96883041       1.14560388       11      -0.01698556      -0.02461855      -0.06865083
O        3.32263098       2.20058669       1.14560388       12       0.01698556      -0.02461855      -0.06865083
O        4.82245056       4.96883041       2.68986773       13      -0.01698556      -0.02461855       0.06865083
O        4.82245056       3.33590076       4.98107549       14      -0.01698556       0.02461855      -0.06865083
O        3.32263098       0.56765703       6.52533934       15       0.01698556       0.02461855       0.06865083
O        5.19495892       4.15236558       0.00000000       16       0.01528259       0.00000000       0.00000000
O        2.95012262       1.38412186       3.83547161       17      -0.01528259      -0.00000000       0.00000000
O        0.23509544       1.38412186       0.00000000       18      -0.01528259      -0.00000000       0.00000000
O        2.47993174       4.15236558       3.83547161       19       0.01528259       0.00000000      -0.00000000
20
Lattice="5.422617015184468 -3.0847326605086206e-59 6.539027242765048e-44 3.5923317650453604e-59 5.544902444850436 2.002492326741294e-17 -1.247611056271409e-43 4.7258784440964795e-17 7.669806773865775" Properties=species:S:1:pos:R:3:spacegroup_kinds:I:1:forces:R:3 spacegroup="P 1" unit_cell=conventional occupancy="_JSON {\"0\": {\"In\": 1}, \"1\": {\"In\": 1}, \"2\": {\"In\": 1}, \"3\": {\"In\": 1}, \"4\": {\"In\": 1}, \"5\": {\"In\": 1}, \"6\": {\"In\": 1}, \"7\": {\"In\": 1}, \"8\": {\"O\": 1}, \"9\": {\"O\": 1}, \"10\": {\"O\": 1}, \"11\": {\"O\": 1}, \"12\": {\"O\": 1}, \"13\": {\"O\": 1}, \"14\": {\"O\": 1}, \"15\": {\"O\": 1}, \"16\": {\"O\": 1}, \"17\": {\"O\": 1}, \"18\": {\"O\": 1}, \"19\": {\"O\": 1}}" n_minim_iter=3 energy=-22573.806710792593 stress="-0.10257445085233838 3.881340873344876e-13 3.4294001766615607e-13 3.881340873344876e-13 -0.10136732213969199 -1.6503707362464628e-13 3.4294001766615607e-13 -1.6503707362464628e-13 -0.10238138755575475" free_energy=-22573.806710792593 pbc="T T T"
In       1.35617923       2.95118399       0.88498204        0       0.02300133       0.04557988       0.04547079
In       1.35512928       0.17873277       2.94992135        1      -0.02300133       0.04557988      -0.04547079
In       1.35512928       2.59371845       4.71988542        2      -0.02300133      -0.04557988       0.04547079
In       1.35617923       5.36616968       6.78482474        3       0.02300133      -0.04557988      -0.04547079
In       4.06643779       2.59371845       6.78482474        4      -0.02300133      -0.04557988      -0.04547079
In       4.06748773       5.36616968       4.71988542        5       0.02300133      -0.04557988       0.04547079
In       4.06748773       2.95118399       2.94992135        6       0.02300133       0.04557988      -0.04547079
In       4.06643779       0.17873277       0.88498204        7      -0.02300133       0.04557988       0.04547079
O        2.10420307       3.34132504       6.52544433        8      -0.03689943       0.02902533       0.04831879
O        0.60710544       0.56887382       4.97926583        9       0.03689943       0.02902533      -0.04831879
O        0.60710544       2.20357740       2.69054094       10       0.03689943      -0.02902533       0.04831879
O        2.10420307       4.97602862       1.14436244       11      -0.03689943      -0.02902533      -0.04831879
O        3.31841395       2.20357740       1.14436244       12       0.03689943      -0.02902533      -0.04831879
O        4.81551157       4.97602862       2.69054094       13      -0.03689943      -0.02902533       0.04831879
O        4.81551157       3.34132504       4.97926583       14      -0.03689943       0.02902533      -0.04831879
O        3.31841395       0.56887382       6.52544433       15       0.03689943       0.02902533       0.04831879
O        5.18809738       4.15867683       0.00000000       16      -0.00192019       0.00000000       0.00000000
O        2.94582814       1.38622561       3.83490339       17       0.00192019       0.00000000       0.00000000
O        0.23451963       1.38622561       0.00000000       18       0.00192019      -0.00000000      -0.00000000
O        2.47678887       4.15867683       3.83490339       19      -0.00192019       0.00000000      -0.00000000
20
Lattice="5.425859549168947 -3.0873414116222945e-59 6.545386514211506e-44 3.590316222812082e-59 5.541284666438532 2.002602222727291e-17 -1.2268357450913405e-43 4.7227950389000154e-17 7.670227689824635" Properties=species:S:1:pos:R:3:spacegroup_kinds:I:1:forces:R:3 spacegroup="P 1" unit_cell=conventional occupancy="_JSON {\"0\": {\"In\": 1}, \"1\": {\"In\": 1}, \"2\": {\"In\": 1}, \"3\": {\"In\": 1}, \"4\": {\"In\": 1}, \"5\": {\"In\": 1}, \"6\": {\"In\": 1}, \"7\": {\"In\": 1}, \"8\": {\"O\": 1}, \"9\": {\"O\": 1}, \"10\": {\"O\": 1}, \"11\": {\"O\": 1}, \"12\": {\"O\": 1}, \"13\": {\"O\": 1}, \"14\": {\"O\": 1}, \"15\": {\"O\": 1}, \"16\": {\"O\": 1}, \"17\": {\"O\": 1}, \"18\": {\"O\": 1}, \"19\": {\"O\": 1}}" n_minim_iter=4 energy=-22573.809077497383 stress="-0.10132318266625814 -1.899895665893034e-13 3.353770680172012e-13 -1.899895665893034e-13 -0.10161554939726455 -6.117859337368167e-13 3.353770680172012e-13 -6.117859337368167e-13 -0.10108864028677522" free_energy=-22573.809077497383 pbc="T T T"
In       1.35953569       2.95155980       0.88816332        0      -0.04467374      -0.02339931       0.05500814
In       1.35339408       0.18091747       2.94695052        1       0.04467374      -0.02339931      -0.05500814
In       1.35339408       2.58972486       4.72327717        2       0.04467374       0.02339931       0.05500814
In       1.35953569       5.36036720       6.78206437        3      -0.04467374       0.02339931      -0.05500814
In       4.06632386       2.58972486       6.78206437        4       0.04467374       0.02339931      -0.05500814
In       4.07246547       5.36036720       4.72327717        5      -0.04467374       0.02339931       0.05500814
In       4.07246547       2.95155980       2.94695052        6      -0.04467374      -0.02339931      -0.05500814
In       4.06632386       0.18091747       0.88816332        7       0.04467374      -0.02339931       0.05500814
O        2.10379084       3.34060109       6.52924775        8      -0.02209987      -0.01860253      -0.00180947
O        0.60913894       0.56995875       4.97609378        9       0.02209987      -0.01860253       0.00180947
O        0.60913894       2.20068358       2.69413391       10       0.02209987       0.01860253      -0.00180947
O        2.10379084       4.97132591       1.14097994       11      -0.02209987       0.01860253       0.00180947
O        3.32206871       2.20068358       1.14097994       12       0.02209987       0.01860253       0.00180947
O        4.81672061       4.97132591       2.69413391       13      -0.02209987       0.01860253      -0.00180947
O        4.81672061       3.34060109       4.97609378       14      -0.02209987      -0.01860253       0.00180947
O        3.32206871       0.56995875       6.52924775       15       0.02209987      -0.01860253      -0.00180947
O        5.19168589       4.15596350       0.00000000       16      -0.04603073       0.00000000      -0.00000000
O        2.94710343       1.38532117       3.83511384       17       0.04603073       0.00000000       0.00000000
O        0.23417366       1.38532117       0.00000000       18       0.04603073      -0.00000000       0.00000000
O        2.47875612       4.15596350       3.83511384       19      -0.04603073      -0.00000000       0.00000000
20
Lattice="5.418906710336787 -3.0673595707391333e-59 6.356642230571654e-44 3.5838106237478006e-59 5.549346639509458 2.3511557015179214e-17 -1.2157070563112921e-43 5.2158744976234497e-17 7.668911690474033" Properties=species:S:1:pos:R:3:spacegroup_kinds:I:1:forces:R:3 spacegroup="P 1" unit_cell=conventional occupancy="_JSON {\"0\": {\"In\": 1}, \"1\": {\"In\": 1}, \"2\": {\"In\": 1}, \"3\": {\"In\": 1}, \"4\": {\"In\": 1}, \"5\": {\"In\": 1}, \"6\": {\"In\": 1}, \"7\": {\"In\": 1}, \"8\": {\"O\": 1}, \"9\": {\"O\": 1}, \"10\": {\"O\": 1}, \"11\": {\"O\": 1}, \"12\": {\"O\": 1}, \"13\": {\"O\": 1}, \"14\": {\"O\": 1}, \"15\": {\"O\": 1}, \"16\": {\"O\": 1}, \"17\": {\"O\": 1}, \"18\": {\"O\": 1}, \"19\": {\"O\": 1}}" n_minim_iter=5 energy=-22573.810712194318 stress="-0.10090195196678964 1.4723110083997e-13 -3.2247575371335324e-13 1.4723110083997e-13 -0.0993559056759083 -1.0536272115199984e-12 -3.2247575371335324e-13 -1.0536272115199984e-12 -0.10103270469945289" free_energy=-22573.810712194318 pbc="T T T"
In       1.35710958       2.95620442       0.89304765        0      -0.03656675       0.02145202      -0.02055552
In       1.35234378       0.18153110       2.94140820        1       0.03656675       0.02145202       0.02055552
In       1.35234378       2.59314222       4.72750349        2       0.03656675      -0.02145202      -0.02055552
In       1.35710958       5.36781554       6.77586404        3      -0.03656675      -0.02145202       0.02055552
In       4.06179713       2.59314222       6.77586404        4       0.03656675      -0.02145202       0.02055552
In       4.06656293       5.36781554       4.72750349        5      -0.03656675      -0.02145202      -0.02055552
In       4.06656293       2.95620442       2.94140820        6      -0.03656675       0.02145202       0.02055552
In       4.06179713       0.18153110       0.89304765        7       0.03656675       0.02145202      -0.02055552
O        2.09881948       3.34550026       6.53037866        8      -0.01043657      -0.00937675       0.03139043
O        0.61063387       0.57082694       4.97298887        9       0.01043657      -0.00937675      -0.03139043
O        0.61063387       2.20384638       2.69592282       10       0.01043657       0.00937675       0.03139043
O        2.09881948       4.97851970       1.13853303       11      -0.01043657       0.00937675      -0.03139043
O        3.32008723       2.20384638       1.13853303       12       0.01043657       0.00937675      -0.03139043
O        4.80827284       4.97851970       2.69592282       13      -0.01043657       0.00937675       0.03139043
O        4.80827284       3.34550026       4.97298887       14      -0.01043657      -0.00937675      -0.03139043
O        3.32008723       0.57082694       6.53037866       15       0.01043657      -0.00937675       0.03139043
O        5.18282732       4.16200998       0.00000000       16      -0.03836044      -0.00000000       0.00000000
O        2.94553274       1.38733666       3.83445585       17       0.03836044      -0.00000000       0.00000000
O        0.23607939       1.38733666       0.00000000       18       0.03836044       0.00000000      -0.00000000
O        2.47337397       4.16200998       3.83445585       19      -0.03836044       0.00000000      -0.00000000
20
Lattice="5.424221401823793 -2.8816501216304042e-59 3.436655848394908e-44 3.4081442979021254e-59 5.536130168267089 2.7335836777282208e-17 -8.881486693732437e-44 5.729810199123346e-17 7.679687783407263" Properties=species:S:1:pos:R:3:spacegroup_kinds:I:1:forces:R:3 spacegroup="P 1" unit_cell=conventional occupancy="_JSON {\"0\": {\"In\": 1}, \"1\": {\"In\": 1}, \"2\": {\"In\": 1}, \"3\": {\"In\": 1}, \"4\": {\"In\": 1}, \"5\": {\"In\": 1}, \"6\": {\"In\": 1}, \"7\": {\"In\": 1}, \"8\": {\"O\": 1}, \"9\": {\"O\": 1}, \"10\": {\"O\": 1}, \"11\": {\"O\": 1}, \"12\": {\"O\": 1}, \"13\": {\"O\": 1}, \"14\": {\"O\": 1}, \"15\": {\"O\": 1}, \"16\": {\"O\": 1}, \"17\": {\"O\": 1}, \"18\": {\"O\": 1}, \"19\": {\"O\": 1}}" n_minim_iter=6 energy=-22573.811750402325 stress="-0.10013863523183128 -1.3871219181667467e-12 -3.5843042430528144e-13 -1.3871219181667467e-12 -0.10108588955616313 1.7012085520146668e-13 -3.5843042430528144e-13 1.7012085520146668e-13 -0.10001736948693823" free_energy=-22573.811750402325 pbc="T T T"
In       1.35679447       2.94949176       0.89670571        0       0.00034923       0.00325795      -0.01996308
In       1.35531623       0.18142668       2.94313818        1      -0.00034923       0.00325795       0.01996308
In       1.35531623       2.58663840       4.73654960        2      -0.00034923      -0.00325795      -0.01996308
In       1.35679447       5.35470349       6.78298207        3       0.00034923      -0.00325795       0.01996308
In       4.06742694       2.58663840       6.78298207        4      -0.00034923      -0.00325795       0.01996308
In       4.06890517       5.35470349       4.73654960        5       0.00034923      -0.00325795      -0.01996308
In       4.06890517       2.94949176       2.94313818        6       0.00034923       0.00325795       0.01996308
In       4.06742694       0.18142668       0.89670571        7      -0.00034923       0.00325795      -0.01996308
O        2.09947224       3.33684607       6.54172069        8       0.01912123      -0.03605803       0.03894663
O        0.61263847       0.56878099       4.97781099        9      -0.01912123      -0.03605803      -0.03894663
O        0.61263847       2.19928409       2.70187679       10      -0.01912123       0.03605803       0.03894663
O        2.09947224       4.96734918       1.13796710       11       0.01912123       0.03605803      -0.03894663
O        3.32474917       2.19928409       1.13796710       12      -0.01912123       0.03605803      -0.03894663
O        4.81158294       4.96734918       2.70187679       13       0.01912123       0.03605803       0.03894663
O        4.81158294       3.33684607       4.97781099       14       0.01912123      -0.03605803      -0.03894663
O        3.32474917       0.56878099       6.54172069       15      -0.01912123      -0.03605803       0.03894663
O        5.18533444       4.15209763       0.00000000       16      -0.01444989       0.00000000       0.00000000
O        2.95099766       1.38403254       3.83984389       17       0.01444989       0.00000000       0.00000000
O        0.23888696       1.38403254       0.00000000       18       0.01444989       0.00000000       0.00000000
O        2.47322374       4.15209763       3.83984389       19      -0.01444989      -0.00000000       0.00000000
20
Lattice="5.4199833053287785 -2.8308896016038957e-59 4.0196873809021416e-44 3.5048853114577992e-59 5.543074491386412 4.129434178376032e-18 -8.871930200381098e-44 2.5071781358781154e-17 7.676064251352345" Properties=species:S:1:pos:R:3:spacegroup_kinds:I:1:forces:R:3 spacegroup="P 1" unit_cell=conventional occupancy="_JSON {\"0\": {\"In\": 1}, \"1\": {\"In\": 1}, \"2\": {\"In\": 1}, \"3\": {\"In\": 1}, \"4\": {\"In\": 1}, \"5\": {\"In\": 1}, \"6\": {\"In\": 1}, \"7\": {\"In\": 1}, \"8\": {\"O\": 1}, \"9\": {\"O\": 1}, \"10\": {\"O\": 1}, \"11\": {\"O\": 1}, \"12\": {\"O\": 1}, \"13\": {\"O\": 1}, \"14\": {\"O\": 1}, \"15\": {\"O\": 1}, \"16\": {\"O\": 1}, \"17\": {\"O\": 1}, \"18\": {\"O\": 1}, \"19\": {\"O\": 1}}" n_minim_iter=7 energy=-22573.812830577386 stress="-0.09991945075557754 -6.189018617731865e-13 8.73086184386343e-14 -6.189018617731865e-13 -0.09953181365339446 -3.740036045300589e-13 8.73086184386343e-14 -3.740036045300589e-13 -0.10032232159580352" free_energy=-22573.812830577386 pbc="T T T"
In       1.35427429       2.95411329       0.89692992        0       0.00569266       0.02549233       0.01159731
In       1.35571736       0.18257604       2.94110220        1      -0.00569266       0.02549233      -0.01159731
In       1.35571736       2.58896121       4.73496205        2      -0.00569266      -0.02549233       0.01159731
In       1.35427429       5.36049845       6.77913433        3       0.00569266      -0.02549233      -0.01159731
In       4.06570902       2.58896121       6.77913433        4      -0.00569266      -0.02549233      -0.01159731
In       4.06426594       5.36049845       4.73496205        5       0.00569266      -0.02549233       0.01159731
In       4.06426594       2.95411329       2.94110220        6       0.00569266       0.02549233      -0.01159731
In       4.06570902       0.18257604       0.89692992        7      -0.00569266       0.02549233       0.01159731
O        2.09749485       3.33884802       6.54252359        8       0.00625533      -0.01854806      -0.00944890
O        0.61249680       0.56731077       4.97157278        9      -0.00625533      -0.01854806       0.00944890
O        0.61249680       2.20422647       2.70449147       10      -0.00625533       0.01854806      -0.00944890
O        2.09749485       4.97576372       1.13354066       11       0.00625533       0.01854806       0.00944890
O        3.32248846       2.20422647       1.13354066       12      -0.00625533       0.01854806       0.00944890
O        4.80748650       4.97576372       2.70449147       13       0.00625533       0.01854806      -0.00944890
O        4.80748650       3.33884802       4.97157278       14       0.00625533      -0.01854806       0.00944890
O        3.32248846       0.56731077       6.54252359       15      -0.00625533      -0.01854806      -0.00944890
O        5.17834212       4.15730587       0.00000000       16       0.00380071       0.00000000      -0.00000000
O        2.95163284       1.38576862       3.83803213       17      -0.00380071      -0.00000000      -0.00000000
O        0.24164119       1.38576862       0.00000000       18      -0.00380071      -0.00000000       0.00000000
O        2.46835047       4.15730587       3.83803213       19       0.00380071      -0.00000000       0.00000000
20
Lattice="5.420370355412394 -2.2105940811915464e-59 2.701354830116386e-44 3.7949107581584813e-59 5.53749301553674 1.0453086612926585e-17 -9.507894802155623e-44 3.38478547820044e-17 7.683252610605786" Properties=species:S:1:pos:R:3:spacegroup_kinds:I:1:forces:R:3 spacegroup="P 1" unit_cell=conventional occupancy="_JSON {\"0\": {\"In\": 1}, \"1\": {\"In\": 1}, \"2\": {\"In\": 1}, \"3\": {\"In\": 1}, \"4\": {\"In\": 1}, \"5\": {\"In\": 1}, \"6\": {\"In\": 1}, \"7\": {\"In\": 1}, \"8\": {\"O\": 1}, \"9\": {\"O\": 1}, \"10\": {\"O\": 1}, \"11\": {\"O\": 1}, \"12\": {\"O\": 1}, \"13\": {\"O\": 1}, \"14\": {\"O\": 1}, \"15\": {\"O\": 1}, \"16\": {\"O\": 1}, \"17\": {\"O\": 1}, \"18\": {\"O\": 1}, \"19\": {\"O\": 1}}" n_minim_iter=8 energy=-22573.81318999789 stress="-0.09960621414946975 -9.920082618371532e-13 -9.254431199355458e-13 -9.920082618371532e-13 -0.09991698194274788 7.220587405950942e-13 -9.254431199355458e-13 7.220587405950942e-13 -0.09901214823643958" free_energy=-22573.81318999789 pbc="T T T"
In       1.35376636       2.95275688       0.90035853        0       0.00470045       0.00953188       0.00986975
In       1.35641881       0.18401037       2.94126778        1      -0.00470045       0.00953188      -0.00986975
In       1.35641881       2.58473614       4.74198483        2      -0.00470045      -0.00953188       0.00986975
In       1.35376636       5.35348264       6.78289408        3       0.00470045      -0.00953188      -0.00986975
In       4.06660399       2.58473614       6.78289408        4      -0.00470045      -0.00953188      -0.00986975
In       4.06395154       5.35348264       4.74198483        5       0.00470045      -0.00953188       0.00986975
In       4.06395154       2.95275688       2.94126778        6       0.00470045       0.00953188      -0.00986975
In       4.06660399       0.18401037       0.90035853        7      -0.00470045       0.00953188       0.00986975
O        2.09686818       3.33369026       6.55124567        8       0.00878205      -0.02982891      -0.01974598
O        0.61331700       0.56494375       4.97363324        9      -0.00878205      -0.02982891       0.01974598
O        0.61331700       2.20380276       2.70961937       10      -0.00878205       0.02982891      -0.01974598
O        2.09686818       4.97254927       1.13200694       11       0.00878205       0.02982891       0.01974598
O        3.32350218       2.20380276       1.13200694       12      -0.00878205       0.02982891       0.01974598
O        4.80705336       4.97254927       2.70961937       13       0.00878205       0.02982891      -0.01974598
O        4.80705336       3.33369026       4.97363324       14       0.00878205      -0.02982891       0.01974598
O        3.32350218       0.56494375       6.55124567       15      -0.00878205      -0.02982891      -0.01974598
O        5.17669412       4.15311976       0.00000000       16       0.00851276      -0.00000000      -0.00000000
O        2.95386141       1.38437325       3.84162631       17      -0.00851276       0.00000000      -0.00000000
O        0.24367623       1.38437325       0.00000000       18      -0.00851276       0.00000000       0.00000000
O        2.46650895       4.15311976       3.84162631       19       0.00851276      -0.00000000       0.00000000
20
Lattice="5.4221330521407225 -2.0357098541057106e-59 3.748420548363305e-45 5.813369554726212e-59 5.536278761509845 -9.564021562378922e-18 1.3650161537167088e-43 5.981436470677494e-18 7.6824394350540555" Properties=species:S:1:pos:R:3:spacegroup_kinds:I:1:forces:R:3 spacegroup="P 1" unit_cell=conventional occupancy="_JSON {\"0\": {\"In\": 1}, \"1\": {\"In\": 1}, \"2\": {\"In\": 1}, \"3\": {\"In\": 1}, \"4\": {\"In\": 1}, \"5\": {\"In\": 1}, \"6\": {\"In\": 1}, \"7\": {\"In\": 1}, \"8\": {\"O\": 1}, \"9\": {\"O\": 1}, \"10\": {\"O\": 1}, \"11\": {\"O\": 1}, \"12\": {\"O\": 1}, \"13\": {\"O\": 1}, \"14\": {\"O\": 1}, \"15\": {\"O\": 1}, \"16\": {\"O\": 1}, \"17\": {\"O\": 1}, \"18\": {\"O\": 1}, \"19\": {\"O\": 1}}" n_minim_iter=9 energy=-22573.814001283466 stress="-0.09937897409197982 -1.0971201148139927e-12 5.413230042787387e-13 -1.0971201148139927e-12 -0.09929408959039758 8.373768155334e-13 5.413230042787387e-13 8.373768155334e-13 -0.09933411715565311" free_energy=-22573.814001283466 pbc="T T T"
In       1.35407490       2.95543800       0.90178109        0      -0.00349446      -0.00086763      -0.00298322
In       1.35699163       0.18729862       2.93943863        1       0.00349446      -0.00086763       0.00298322
In       1.35699163       2.58084076       4.74300080        2       0.00349446       0.00086763      -0.00298322
In       1.35407490       5.34898014       6.78065835        3      -0.00349446       0.00086763       0.00298322
In       4.06805815       2.58084076       6.78065835        4       0.00349446       0.00086763       0.00298322
In       4.06514143       5.34898014       4.74300080        5      -0.00349446       0.00086763      -0.00298322
In       4.06514143       2.95543800       2.93943863        6      -0.00349446      -0.00086763       0.00298322
In       4.06805815       0.18729862       0.90178109        7       0.00349446      -0.00086763      -0.00298322
O        2.09878303       3.32777923       6.55077426        8      -0.00839404      -0.00315892      -0.00150180
O        0.61228349       0.55963985       4.97288489        9       0.00839404      -0.00315892       0.00150180
O        0.61228349       2.20849953       2.70955454       10       0.00839404       0.00315892      -0.00150180
O        2.09878303       4.97663891       1.13166517       11      -0.00839404       0.00315892       0.00150180
O        3.32335002       2.20849953       1.13166517       12       0.00839404       0.00315892       0.00150180
O        4.80984956       4.97663891       2.70955454       13      -0.00839404       0.00315892      -0.00150180
O        4.80984956       3.32777923       4.97288489       14      -0.00839404      -0.00315892       0.00150180
O        3.32335002       0.55963985       6.55077426       15       0.00839404      -0.00315892      -0.00150180
O        5.17750215       4.15220907       0.00000000       16       0.00235938       0.00000000      -0.00000000
O        2.95569742       1.38406969       3.84121972       17      -0.00235938      -0.00000000       0.00000000
O        0.24463090       1.38406969       0.00000000       18      -0.00235938      -0.00000000      -0.00000000
O        2.46643563       4.15220907       3.84121972       19       0.00235938      -0.00000000      -0.00000000
