20
Lattice="5.634343698754832 -3.7566941856891426e-62 7.859449846110032e-44 -6.3257397409316625e-62 5.713527032144534 -1.3263478251910643e-17 1.7343140983161192e-44 -2.395213281400367e-18 8.158700650918979" Properties=species:S:1:pos:R:3:spacegroup_kinds:I:1:forces:R:3 spacegroup="P 1" unit_cell=conventional occupancy="_JSON {\"0\": {\"In\": 1}, \"1\": {\"In\": 1}, \"2\": {\"In\": 1}, \"3\": {\"In\": 1}, \"4\": {\"In\": 1}, \"5\": {\"In\": 1}, \"6\": {\"In\": 1}, \"7\": {\"In\": 1}, \"8\": {\"O\": 1}, \"9\": {\"O\": 1}, \"10\": {\"O\": 1}, \"11\": {\"O\": 1}, \"12\": {\"O\": 1}, \"13\": {\"O\": 1}, \"14\": {\"O\": 1}, \"15\": {\"O\": 1}, \"16\": {\"O\": 1}, \"17\": {\"O\": 1}, \"18\": {\"O\": 1}, \"19\": {\"O\": 1}}" n_minim_iter=5 energy=-22574.899509265077 stress="0.019764785530743588 -4.0237580573517256e-13 -5.327069916516613e-13 -4.0237580573517256e-13 0.019723044023073316 -4.700077244382768e-13 -5.327069916516613e-13 -4.700077244382768e-13 0.019833309535244217" free_energy=-22574.899509265077 pbc="T T T"
In       1.39510981       3.01330497       0.93797784        0      -0.00367574      -0.00013565       0.00146451
In       1.42206203       0.15654145       3.14137249        1       0.00367574      -0.00013565      -0.00146451
In       1.42206203       2.70022206       5.01732816        2       0.00367574       0.00013565       0.00146451
In       1.39510981       5.55698558       7.22072282        3      -0.00367574       0.00013565      -0.00146451
In       4.23923388       2.70022206       7.22072282        4       0.00367574       0.00013565      -0.00146451
In       4.21228166       5.55698558       5.01732816        5      -0.00367574       0.00013565       0.00146451
In       4.21228166       3.01330497       3.14137249        6      -0.00367574      -0.00013565      -0.00146451
In       4.23923388       0.15654145       0.93797784        7       0.00367574      -0.00013565       0.00146451
O        2.20020353       3.44774231       6.93012448        8      -0.00174966       0.00124490      -0.00272507
O        0.61696832       0.59097879       5.30792649        9       0.00174966       0.00124490       0.00272507
O        0.61696832       2.26578473       2.85077416       10       0.00174966      -0.00124490      -0.00272507
O        2.20020353       5.12254824       1.22857617       11      -0.00174966      -0.00124490       0.00272507
O        3.43414017       2.26578473       1.22857617       12       0.00174966      -0.00124490       0.00272507
O        5.01737538       5.12254824       2.85077416       13      -0.00174966      -0.00124490      -0.00272507
O        5.01737538       3.44774231       5.30792649       14      -0.00174966       0.00124490       0.00272507
O        3.43414017       0.59097879       6.93012448       15       0.00174966       0.00124490      -0.00272507
O        5.39900408       4.28514527      -0.00000000       16       0.00580036       0.00000000      -0.00000000
O        3.05251147       1.42838176       4.07935033       17      -0.00580036      -0.00000000       0.00000000
O        0.23533962       1.42838176      -0.00000000       18      -0.00580036       0.00000000      -0.00000000
O        2.58183223       4.28514527       4.07935033       19       0.00580036      -0.00000000      -0.00000000
