20
Lattice="5.719653821848116 -1.9661772216179557e-62 -1.5857090540751138e-43 4.430078921991728e-62 5.798513308350987 2.0163017441826178e-18 1.2997804366547253e-43 -2.0265104941483737e-18 8.30551979024135" Properties=species:S:1:pos:R:3:spacegroup_kinds:I:1:forces:R:3 spacegroup="P 1" unit_cell=conventional occupancy="_JSON {\"0\": {\"In\": 1}, \"1\": {\"In\": 1}, \"2\": {\"In\": 1}, \"3\": {\"In\": 1}, \"4\": {\"In\": 1}, \"5\": {\"In\": 1}, \"6\": {\"In\": 1}, \"7\": {\"In\": 1}, \"8\": {\"O\": 1}, \"9\": {\"O\": 1}, \"10\": {\"O\": 1}, \"11\": {\"O\": 1}, \"12\": {\"O\": 1}, \"13\": {\"O\": 1}, \"14\": {\"O\": 1}, \"15\": {\"O\": 1}, \"16\": {\"O\": 1}, \"17\": {\"O\": 1}, \"18\": {\"O\": 1}, \"19\": {\"O\": 1}}" n_minim_iter=7 energy=-22574.424278739123 stress="0.052198834332831 -6.059156214239164e-13 3.717561274537031e-13 -6.059156214239164e-13 0.05218686425943352 -1.9660853501317612e-13 3.717561274537031e-13 -1.9660853501317612e-13 0.052200976209444264" free_energy=-22574.424278739123 pbc="T T T"
In       1.40840391       3.05703542       0.96437828        0       0.00067663       0.00014108       0.00015644
In       1.45142300       0.15777876       3.18838162        1      -0.00067663       0.00014108      -0.00015644
In       1.45142300       2.74147789       5.11713817        2      -0.00067663      -0.00014108       0.00015644
In       1.40840391       5.64073455       7.34114151        3       0.00067663      -0.00014108      -0.00015644
In       4.31124991       2.74147789       7.34114151        4      -0.00067663      -0.00014108      -0.00015644
In       4.26823082       5.64073455       5.11713817        5       0.00067663      -0.00014108       0.00015644
In       4.26823082       3.05703542       3.18838162        6       0.00067663       0.00014108      -0.00015644
In       4.31124991       0.15777876       0.96437828        7      -0.00067663       0.00014108       0.00015644
O        2.23682268       3.48497214       7.05523571        8       0.00082791      -0.00121958      -0.00140616
O        0.62300424       0.58571548       5.40304398        9      -0.00082791      -0.00121958       0.00140616
O        0.62300424       2.31354117       2.90247581       10      -0.00082791       0.00121958      -0.00140616
O        2.23682268       5.21279783       1.25028408       11       0.00082791       0.00121958       0.00140616
O        3.48283115       2.31354117       1.25028408       12      -0.00082791       0.00121958       0.00140616
O        5.09664959       5.21279783       2.90247581       13       0.00082791       0.00121958      -0.00140616
O        5.09664959       3.48497214       5.40304398       14       0.00082791      -0.00121958       0.00140616
O        3.48283115       0.58571548       7.05523571       15      -0.00082791      -0.00121958      -0.00140616
O        5.46760823       4.34888498      -0.00000000       16       0.00213000      -0.00000000       0.00000000
O        3.11187250       1.44962833       4.15275990       17      -0.00213000      -0.00000000      -0.00000000
O        0.25204559       1.44962833      -0.00000000       18      -0.00213000       0.00000000       0.00000000
O        2.60778132       4.34888498       4.15275990       19       0.00213000      -0.00000000      -0.00000000
