20
Lattice="5.645724410359489 8.014558833994187e-60 -9.099640630465871e-43 -3.4958064630471487e-60 5.8928396939951595 6.8766984965606756e-18 1.2651283976556968e-42 -3.8881452880715995e-17 9.049786229160802" Properties=species:S:1:pos:R:3:spacegroup_kinds:I:1:forces:R:3 spacegroup="P 1" unit_cell=conventional occupancy="_JSON {\"0\": {\"In\": 1}, \"1\": {\"In\": 1}, \"2\": {\"In\": 1}, \"3\": {\"In\": 1}, \"4\": {\"In\": 1}, \"5\": {\"In\": 1}, \"6\": {\"In\": 1}, \"7\": {\"In\": 1}, \"8\": {\"O\": 1}, \"9\": {\"O\": 1}, \"10\": {\"O\": 1}, \"11\": {\"O\": 1}, \"12\": {\"O\": 1}, \"13\": {\"O\": 1}, \"14\": {\"O\": 1}, \"15\": {\"O\": 1}, \"16\": {\"O\": 1}, \"17\": {\"O\": 1}, \"18\": {\"O\": 1}, \"19\": {\"O\": 1}}" n_minim_iter=9 energy=-22572.837743983342 stress="0.06673116527960306 -4.367574466595383e-14 1.624954225882749e-13 -4.367574466595383e-14 0.06661216875107283 -2.1324116030331313e-13 1.624954225882749e-13 -2.1324116030331313e-13 0.06668923581963863" free_energy=-22572.837743983342 pbc="T T T"
In       1.33839532       3.18634896       1.12108485        0      -0.00428146      -0.00172060      -0.00204169
In       1.48446689       0.23992912       3.40380826        1       0.00428146      -0.00172060       0.00204169
In       1.48446689       2.70649073       5.64597796        2       0.00428146       0.00172060      -0.00204169
In       1.33839532       5.65291058       7.92870138        3      -0.00428146       0.00172060       0.00204169
In       4.30732909       2.70649073       7.92870138        4       0.00428146       0.00172060       0.00204169
In       4.16125752       5.65291058       5.64597796        5      -0.00428146       0.00172060      -0.00204169
In       4.16125752       3.18634896       3.40380826        6      -0.00428146      -0.00172060       0.00204169
In       4.30732909       0.23992912       1.12108485        7       0.00428146      -0.00172060      -0.00204169
O        2.21204460       3.48078385       7.63087242        8       0.00012129      -0.00631419      -0.00153359
O        0.61081760       0.53436400       5.94380692        9      -0.00012129      -0.00631419       0.00153359
O        0.61081760       2.41205585       3.10597931       10      -0.00012129       0.00631419      -0.00153359
O        2.21204460       5.35847569       1.41891380       11       0.00012129       0.00631419       0.00153359
O        3.43367981       2.41205585       1.41891380       12      -0.00012129       0.00631419       0.00153359
O        5.03490681       5.35847569       3.10597931       13       0.00012129       0.00631419      -0.00153359
O        5.03490681       3.48078385       5.94380692       14       0.00012129      -0.00631419       0.00153359
O        3.43367981       0.53436400       7.63087242       15      -0.00012129      -0.00631419      -0.00153359
O        5.37822766       4.41962977       0.00000000       16       0.00587942       0.00000000      -0.00000000
O        3.09035896       1.47320992       4.52489311       17      -0.00587942       0.00000000       0.00000000
O        0.26749676       1.47320992       0.00000000       18      -0.00587942      -0.00000000      -0.00000000
O        2.55536545       4.41962977       4.52489311       19       0.00587942      -0.00000000       0.00000000
