20
Lattice="5.09324821852742 -5.5075447570790725e-59 -3.8084120459486396e-43 3.34526857485473e-59 5.577045292027308 -3.591403236756638e-16 5.5647899877783545e-43 4.792473156362108e-16 7.442171789652395" Properties=species:S:1:pos:R:3:spacegroup_kinds:I:1:forces:R:3 spacegroup="P 1" unit_cell=conventional occupancy="_JSON {\"0\": {\"In\": 1}, \"1\": {\"In\": 1}, \"2\": {\"In\": 1}, \"3\": {\"In\": 1}, \"4\": {\"In\": 1}, \"5\": {\"In\": 1}, \"6\": {\"In\": 1}, \"7\": {\"In\": 1}, \"8\": {\"O\": 1}, \"9\": {\"O\": 1}, \"10\": {\"O\": 1}, \"11\": {\"O\": 1}, \"12\": {\"O\": 1}, \"13\": {\"O\": 1}, \"14\": {\"O\": 1}, \"15\": {\"O\": 1}, \"16\": {\"O\": 1}, \"17\": {\"O\": 1}, \"18\": {\"O\": 1}, \"19\": {\"O\": 1}}" n_minim_iter=1 energy=-22570.63906712337 stress="-0.27686804660541076 4.464670849182087e-13 -5.805421650360356e-13 4.464670849182087e-13 -0.2754033718795172 6.2915578338298e-13 -5.805421650360356e-13 6.2915578338298e-13 -0.27066815033903535" free_energy=-22570.63906712337 pbc="T T T"
In       1.26859408       3.03189823       0.90796127        0      -0.01338299       0.08428192       0.10937831
In       1.27803003       0.24337558       2.81312462        1       0.01338299       0.08428192      -0.10937831
In       1.27803003       2.54514706       4.62904717        2       0.01338299      -0.08428192       0.10937831
In       1.26859408       5.33366971       6.53421052        3      -0.01338299      -0.08428192      -0.10937831
In       3.82465414       2.54514706       6.53421052        4       0.01338299      -0.08428192      -0.10937831
In       3.81521819       5.33366971       4.62904717        5      -0.01338299      -0.08428192       0.10937831
In       3.81521819       3.03189823       2.81312462        6      -0.01338299       0.08428192      -0.10937831
In       3.82465414       0.24337558       0.90796127        7       0.01338299       0.08428192       0.10937831
O        1.93675601       3.34160195       6.37583191        8       0.09484331       0.07675804       0.01902616
O        0.60986810       0.55307930       4.78742578        9      -0.09484331       0.07675804      -0.01902616
O        0.60986810       2.23544334       2.65474601       10      -0.09484331      -0.07675804       0.01902616
O        1.93675601       5.02396599       1.06633988       11       0.09484331      -0.07675804      -0.01902616
O        3.15649220       2.23544334       1.06633988       12      -0.09484331      -0.07675804      -0.01902616
O        4.48338012       5.02396599       2.65474601       13       0.09484331      -0.07675804       0.01902616
O        4.48338012       3.34160195       4.78742578       14       0.09484331       0.07675804      -0.01902616
O        3.15649220       0.55307930       6.37583191       15      -0.09484331       0.07675804       0.01902616
O        4.76842180       4.18278397       0.00000000       16      -0.17279812       0.00000000       0.00000000
O        2.87145052       1.39426132       3.72108589       17       0.17279812      -0.00000000       0.00000000
O        0.32482641       1.39426132       0.00000000       18       0.17279812       0.00000000      -0.00000000
O        2.22179770       4.18278397       3.72108589       19      -0.17279812      -0.00000000       0.00000000
20
Lattice="5.102052846456052 -5.407847388475373e-59 -4.011073090315547e-43 3.443173132525582e-59 5.5811571470770875 -3.5014229847332985e-16 5.748255516926982e-43 4.9042837382640755e-16 7.423855336597395" Properties=species:S:1:pos:R:3:spacegroup_kinds:I:1:forces:R:3 spacegroup="P 1" unit_cell=conventional occupancy="_JSON {\"0\": {\"In\": 1}, \"1\": {\"In\": 1}, \"2\": {\"In\": 1}, \"3\": {\"In\": 1}, \"4\": {\"In\": 1}, \"5\": {\"In\": 1}, \"6\": {\"In\": 1}, \"7\": {\"In\": 1}, \"8\": {\"O\": 1}, \"9\": {\"O\": 1}, \"10\": {\"O\": 1}, \"11\": {\"O\": 1}, \"12\": {\"O\": 1}, \"13\": {\"O\": 1}, \"14\": {\"O\": 1}, \"15\": {\"O\": 1}, \"16\": {\"O\": 1}, \"17\": {\"O\": 1}, \"18\": {\"O\": 1}, \"19\": {\"O\": 1}}" n_minim_iter=2 energy=-22570.64118323155 stress="-0.2726032901439827 -3.4660109963085973e-13 -7.789199788128498e-15 -3.4660109963085973e-13 -0.27299660985473484 -7.036205790662725e-13 -7.789199788128498e-15 -7.036205790662725e-13 -0.2753725640682999" free_energy=-22570.64118323155 pbc="T T T"
In       1.27074421       3.03440332       0.90607555        0       0.01022198       0.08910823       0.09557372
In       1.28028221       0.24382475       2.80585212        1      -0.01022198       0.08910823      -0.09557372
In       1.28028221       2.54675382       4.61800322        2      -0.01022198      -0.08910823       0.09557372
In       1.27074421       5.33733240       6.51777978        3       0.01022198      -0.08910823      -0.09557372
In       3.83130864       2.54675382       6.51777978        4      -0.01022198      -0.08910823      -0.09557372
In       3.82177063       5.33733240       4.61800322        5       0.01022198      -0.08910823       0.09557372
In       3.82177063       3.03440332       2.80585212        6       0.01022198       0.08910823      -0.09557372
In       3.83130864       0.24382475       0.90607555        7      -0.01022198       0.08910823       0.09557372
O        1.94040789       3.34431130       6.36020059        8       0.14008243       0.09181085       0.02959099
O        0.61061853       0.55373273       4.77558241        9      -0.14008243       0.09181085      -0.02959099
O        0.61061853       2.23684584       2.64827292       10      -0.14008243      -0.09181085       0.02959099
O        1.94040789       5.02742442       1.06365474       11       0.14008243      -0.09181085      -0.02959099
O        3.16164496       2.23684584       1.06365474       12      -0.14008243      -0.09181085      -0.02959099
O        4.49143431       5.02742442       2.64827292       13       0.14008243      -0.09181085       0.02959099
O        4.49143431       3.34431130       4.77558241       14       0.14008243       0.09181085      -0.02959099
O        3.16164496       0.55373273       6.36020059       15      -0.14008243       0.09181085       0.02959099
O        4.77611135       4.18586786       0.00000000       16      -0.16277974      -0.00000000       0.00000000
O        2.87696792       1.39528929       3.71192767       17       0.16277974      -0.00000000      -0.00000000
O        0.32594150       1.39528929       0.00000000       18       0.16277974       0.00000000       0.00000000
O        2.22508493       4.18586786       3.71192767       19      -0.16277974      -0.00000000       0.00000000
20
Lattice="5.1182742256555604 -5.569829633705666e-59 -4.0341796399631135e-43 3.196380988515656e-59 5.57350206328258 -3.589756718874837e-16 5.710029092352669e-43 4.771256849125344e-16 7.410491052358629" Properties=species:S:1:pos:R:3:spacegroup_kinds:I:1:forces:R:3 spacegroup="P 1" unit_cell=conventional occupancy="_JSON {\"0\": {\"In\": 1}, \"1\": {\"In\": 1}, \"2\": {\"In\": 1}, \"3\": {\"In\": 1}, \"4\": {\"In\": 1}, \"5\": {\"In\": 1}, \"6\": {\"In\": 1}, \"7\": {\"In\": 1}, \"8\": {\"O\": 1}, \"9\": {\"O\": 1}, \"10\": {\"O\": 1}, \"11\": {\"O\": 1}, \"12\": {\"O\": 1}, \"13\": {\"O\": 1}, \"14\": {\"O\": 1}, \"15\": {\"O\": 1}, \"16\": {\"O\": 1}, \"17\": {\"O\": 1}, \"18\": {\"O\": 1}, \"19\": {\"O\": 1}}" n_minim_iter=3 energy=-22570.660633541942 stress="-0.26132922645937284 4.871332981149967e-14 -1.8589303835042744e-13 4.871332981149967e-14 -0.2731292066240488 7.030827906019439e-13 -1.8589303835042744e-13 7.030827906019439e-13 -0.2636884538171917" free_energy=-22570.660633541942 pbc="T T T"
In       1.27499513       3.03830822       0.91363447        0      -0.11410824      -0.04204462      -0.02305973
In       1.28414199       0.25155719       2.79161106        1       0.11410824      -0.04204462       0.02305973
In       1.28414199       2.53519384       4.61887999        2       0.11410824       0.04204462      -0.02305973
In       1.27499513       5.32194487       6.49685659        3      -0.11410824       0.04204462       0.02305973
In       3.84327910       2.53519384       6.49685659        4       0.11410824       0.04204462       0.02305973
In       3.83413224       5.32194487       4.61887999        5      -0.11410824       0.04204462      -0.02305973
In       3.83413224       3.03830822       2.79161106        6      -0.11410824      -0.04204462       0.02305973
In       3.84327910       0.25155719       0.91363447        7       0.11410824      -0.04204462      -0.02305973
O        1.95816093       3.34772251       6.35113692        8       0.08608259      -0.06332030       0.10128754
O        0.60097619       0.56097148       4.76459966        9      -0.08608259      -0.06332030      -0.10128754
O        0.60097619       2.22577955       2.64589139       10      -0.08608259       0.06332030       0.10128754
O        1.95816093       5.01253058       1.05935413       11       0.08608259       0.06332030      -0.10128754
O        3.16011330       2.22577955       1.05935413       12      -0.08608259       0.06332030      -0.10128754
O        4.51729804       5.01253058       2.64589139       13       0.08608259       0.06332030       0.10128754
O        4.51729804       3.34772251       4.76459966       14       0.08608259      -0.06332030      -0.10128754
O        3.16011330       0.56097148       6.35113692       15      -0.08608259      -0.06332030       0.10128754
O        4.77587979       4.18012655       0.00000000       16      -0.02142133       0.00000000      -0.00000000
O        2.90153154       1.39337552       3.70524553       17       0.02142133      -0.00000000       0.00000000
O        0.34239443       1.39337552       0.00000000       18       0.02142133       0.00000000       0.00000000
O        2.21674268       4.18012655       3.70524553       19      -0.02142133       0.00000000      -0.00000000
20
Lattice="5.101406206876166 -5.400427655697878e-59 -4.0286565087838705e-43 3.3091279640288526e-59 5.6025833926342745 -3.705071795077012e-16 5.687734267816306e-43 4.638324745421977e-16 7.396401335545743" Properties=species:S:1:pos:R:3:spacegroup_kinds:I:1:forces:R:3 spacegroup="P 1" unit_cell=conventional occupancy="_JSON {\"0\": {\"In\": 1}, \"1\": {\"In\": 1}, \"2\": {\"In\": 1}, \"3\": {\"In\": 1}, \"4\": {\"In\": 1}, \"5\": {\"In\": 1}, \"6\": {\"In\": 1}, \"7\": {\"In\": 1}, \"8\": {\"O\": 1}, \"9\": {\"O\": 1}, \"10\": {\"O\": 1}, \"11\": {\"O\": 1}, \"12\": {\"O\": 1}, \"13\": {\"O\": 1}, \"14\": {\"O\": 1}, \"15\": {\"O\": 1}, \"16\": {\"O\": 1}, \"17\": {\"O\": 1}, \"18\": {\"O\": 1}, \"19\": {\"O\": 1}}" n_minim_iter=4 energy=-22570.66769404316 stress="-0.2646274953596548 -1.606590040495531e-13 -2.803039483783892e-13 -1.606590040495531e-13 -0.2634580118002461 1.0241288490186507e-12 -2.803039483783892e-13 1.0241288490186507e-12 -0.2627072797057705" free_energy=-22570.66769404316 pbc="T T T"
In       1.27042607       3.05670734       0.91486370        0      -0.18359722       0.04748036      -0.10283136
In       1.28027703       0.25541564       2.78333697        1       0.18359722       0.04748036       0.10283136
In       1.28027703       2.54587606       4.61306437        2       0.18359722      -0.04748036      -0.10283136
In       1.27042607       5.34716775       6.48153764        3      -0.18359722      -0.04748036       0.10283136
In       3.83098013       2.54587606       6.48153764        4       0.18359722      -0.04748036       0.10283136
In       3.82112918       5.34716775       4.61306437        5      -0.18359722      -0.04748036      -0.10283136
In       3.82112918       3.05670734       2.78333697        6      -0.18359722       0.04748036       0.10283136
In       3.83098013       0.25541564       0.91486370        7       0.18359722       0.04748036      -0.10283136
O        1.95593102       3.36763513       6.34025653        8      -0.00843049       0.00640301       0.09332474
O        0.59477209       0.56634343       4.75434547        9       0.00843049       0.00640301      -0.09332474
O        0.59477209       2.23494827       2.64205587       10       0.00843049      -0.00640301       0.09332474
O        1.95593102       5.03623996       1.05614480       11      -0.00843049      -0.00640301      -0.09332474
O        3.14547519       2.23494827       1.05614480       12       0.00843049      -0.00640301      -0.09332474
O        4.50663412       5.03623996       2.64205587       13      -0.00843049      -0.00640301       0.09332474
O        4.50663412       3.36763513       4.75434547       14      -0.00843049       0.00640301      -0.09332474
O        3.14547519       0.56634343       6.34025653       15       0.00843049       0.00640301       0.09332474
O        4.75492825       4.20193754       0.00000000       16      -0.03696408       0.00000000      -0.00000000
O        2.89718106       1.40064585       3.69820067       17       0.03696408       0.00000000       0.00000000
O        0.34647795       1.40064585       0.00000000       18       0.03696408       0.00000000      -0.00000000
O        2.20422515       4.20193754       3.69820067       19      -0.03696408      -0.00000000       0.00000000
20
Lattice="5.099079612008786 -4.051648596886781e-59 -3.927166130641041e-43 3.144435334420464e-59 5.621064711596053 -3.830677425107374e-16 5.640540718471473e-43 4.472006195153025e-16 7.375446659008405" Properties=species:S:1:pos:R:3:spacegroup_kinds:I:1:forces:R:3 spacegroup="P 1" unit_cell=conventional occupancy="_JSON {\"0\": {\"In\": 1}, \"1\": {\"In\": 1}, \"2\": {\"In\": 1}, \"3\": {\"In\": 1}, \"4\": {\"In\": 1}, \"5\": {\"In\": 1}, \"6\": {\"In\": 1}, \"7\": {\"In\": 1}, \"8\": {\"O\": 1}, \"9\": {\"O\": 1}, \"10\": {\"O\": 1}, \"11\": {\"O\": 1}, \"12\": {\"O\": 1}, \"13\": {\"O\": 1}, \"14\": {\"O\": 1}, \"15\": {\"O\": 1}, \"16\": {\"O\": 1}, \"17\": {\"O\": 1}, \"18\": {\"O\": 1}, \"19\": {\"O\": 1}}" n_minim_iter=5 energy=-22570.677451328454 stress="-0.25813514994372516 -7.573030889614616e-13 -1.3407530613799616e-12 -7.573030889614616e-13 -0.2581020328278399 -4.540384146871957e-13 -1.3407530613799616e-12 -4.540384146871957e-13 -0.2612535836935549" free_energy=-22570.677451328454 pbc="T T T"
In       1.26186338       3.07255748       0.91228531        0      -0.07279874      -0.03276715       0.04704086
In       1.28767643       0.26202512       2.77543802        1       0.07279874      -0.03276715      -0.04704086
In       1.28767643       2.54850724       4.60000864        2       0.07279874       0.03276715       0.04704086
In       1.26186338       5.35903959       6.46316135        3      -0.07279874       0.03276715      -0.04704086
In       3.83721624       2.54850724       6.46316135        4       0.07279874       0.03276715      -0.04704086
In       3.81140318       5.35903959       4.60000864        5      -0.07279874       0.03276715       0.04704086
In       3.81140318       3.07255748       2.77543802        6      -0.07279874      -0.03276715      -0.04704086
In       3.83721624       0.26202512       0.91228531        7       0.07279874      -0.03276715       0.04704086
O        1.96110441       3.38271199       6.32787992        8       0.04460118      -0.04867023      -0.06158132
O        0.58843540       0.57217963       4.73529007        9      -0.04460118      -0.04867023       0.06158132
O        0.58843540       2.23835272       2.64015659       10      -0.04460118       0.04867023      -0.06158132
O        1.96110441       5.04888508       1.04756674       11       0.04460118       0.04867023       0.06158132
O        3.13797520       2.23835272       1.04756674       12      -0.04460118       0.04867023       0.06158132
O        4.51064422       5.04888508       2.64015659       13       0.04460118       0.04867023      -0.06158132
O        4.51064422       3.38271199       4.73529007       14       0.04460118      -0.04867023       0.06158132
O        3.13797520       0.57217963       6.32787992       15      -0.04460118      -0.04867023      -0.06158132
O        4.74370700       4.21579853       0.00000000       16      -0.02307687       0.00000000      -0.00000000
O        2.90491242       1.40526618       3.68772333       17       0.02307687       0.00000000       0.00000000
O        0.35537261       1.40526618       0.00000000       18       0.02307687       0.00000000      -0.00000000
O        2.19416720       4.21579853       3.68772333       19      -0.02307687       0.00000000       0.00000000
20
Lattice="5.097094685306962 -9.198487575571892e-60 -3.2054797506531922e-43 4.289373795462121e-59 5.6192714185814205 -4.55958999998966e-16 6.344638985868729e-43 3.501501948088234e-16 7.380673491214977" Properties=species:S:1:pos:R:3:spacegroup_kinds:I:1:forces:R:3 spacegroup="P 1" unit_cell=conventional occupancy="_JSON {\"0\": {\"In\": 1}, \"1\": {\"In\": 1}, \"2\": {\"In\": 1}, \"3\": {\"In\": 1}, \"4\": {\"In\": 1}, \"5\": {\"In\": 1}, \"6\": {\"In\": 1}, \"7\": {\"In\": 1}, \"8\": {\"O\": 1}, \"9\": {\"O\": 1}, \"10\": {\"O\": 1}, \"11\": {\"O\": 1}, \"12\": {\"O\": 1}, \"13\": {\"O\": 1}, \"14\": {\"O\": 1}, \"15\": {\"O\": 1}, \"16\": {\"O\": 1}, \"17\": {\"O\": 1}, \"18\": {\"O\": 1}, \"19\": {\"O\": 1}}" n_minim_iter=6 energy=-22570.679396826145 stress="-0.25812905556936144 -9.695354458247078e-13 -5.242575035619656e-13 -9.695354458247078e-13 -0.25806505550553244 3.413769832516116e-13 -5.242575035619656e-13 3.413769832516116e-13 -0.2590954090647936" free_energy=-22570.679396826145 pbc="T T T"
In       1.25907758       3.07192967       0.91373447        0      -0.02295106      -0.01079216       0.01478708
In       1.28946976       0.26229396       2.77660228        1       0.02295106      -0.01079216      -0.01478708
In       1.28946976       2.54734174       4.60407122        2       0.02295106       0.01079216       0.01478708
In       1.25907758       5.35697745       6.46693902        3      -0.02295106       0.01079216      -0.01478708
In       3.83801710       2.54734174       6.46693902        4       0.02295106       0.01079216      -0.01478708
In       3.80762493       5.35697745       4.60407122        5      -0.02295106       0.01079216       0.01478708
In       3.80762493       3.07192967       2.77660228        6      -0.02295106      -0.01079216      -0.01478708
In       3.83801710       0.26229396       0.91373447        7       0.02295106      -0.01079216       0.01478708
O        1.96177731       3.38145199       6.33230150        8       0.03667205      -0.04141656      -0.01589496
O        0.58677003       0.57181628       4.73870874        9      -0.03667205      -0.04141656       0.01589496
O        0.58677003       2.23781943       2.64196475       10      -0.03667205       0.04141656      -0.01589496
O        1.96177731       5.04745514       1.04837199       11       0.03667205       0.04141656       0.01589496
O        3.13531738       2.23781943       1.04837199       12      -0.03667205       0.04141656       0.01589496
O        4.51032465       5.04745514       2.64196475       13       0.03667205       0.04141656      -0.01589496
O        4.51032465       3.38145199       4.73870874       14       0.03667205      -0.04141656       0.01589496
O        3.13531738       0.57181628       6.33230150       15      -0.03667205      -0.04141656      -0.01589496
O        4.74008155       4.21445356       0.00000000       16       0.00279134      -0.00000000      -0.00000000
O        2.90556048       1.40481785       3.69033675       17      -0.00279134       0.00000000       0.00000000
O        0.35701314       1.40481785       0.00000000       18      -0.00279134       0.00000000      -0.00000000
O        2.19153421       4.21445356       3.69033675       19       0.00279134      -0.00000000      -0.00000000
20
Lattice="5.097070011238117 -1.1021663909508626e-59 -3.238822157922533e-43 3.98462598627254e-59 5.616954864855919 -4.776749529319715e-16 6.297794421953923e-43 3.212797578246015e-16 7.3837531840142345" Properties=species:S:1:pos:R:3:spacegroup_kinds:I:1:forces:R:3 spacegroup="P 1" unit_cell=conventional occupancy="_JSON {\"0\": {\"In\": 1}, \"1\": {\"In\": 1}, \"2\": {\"In\": 1}, \"3\": {\"In\": 1}, \"4\": {\"In\": 1}, \"5\": {\"In\": 1}, \"6\": {\"In\": 1}, \"7\": {\"In\": 1}, \"8\": {\"O\": 1}, \"9\": {\"O\": 1}, \"10\": {\"O\": 1}, \"11\": {\"O\": 1}, \"12\": {\"O\": 1}, \"13\": {\"O\": 1}, \"14\": {\"O\": 1}, \"15\": {\"O\": 1}, \"16\": {\"O\": 1}, \"17\": {\"O\": 1}, \"18\": {\"O\": 1}, \"19\": {\"O\": 1}}" n_minim_iter=7 energy=-22570.680079890943 stress="-0.25803330681318476 -1.4010522496592014e-12 -6.894387743855579e-13 -1.4010522496592014e-12 -0.2579235216276081 -3.0815594116241976e-13 -6.894387743855579e-13 -3.0815594116241976e-13 -0.2576887581658108" free_energy=-22570.680079890943 pbc="T T T"
In       1.25743713       3.07095705       0.91459038        0       0.00626707       0.00738640       0.00044503
In       1.29109788       0.26247962       2.77728621        1      -0.00626707       0.00738640      -0.00044503
In       1.29109788       2.54599782       4.60646698        2      -0.00626707      -0.00738640       0.00044503
In       1.25743713       5.35447525       6.46916280        3       0.00626707      -0.00738640      -0.00044503
In       3.83963288       2.54599782       6.46916280        4      -0.00626707      -0.00738640      -0.00044503
In       3.80597213       5.35447525       4.60646698        5       0.00626707      -0.00738640       0.00044503
In       3.80597213       3.07095705       2.77728621        6       0.00626707       0.00738640      -0.00044503
In       3.83963288       0.26247962       0.91459038        7      -0.00626707       0.00738640       0.00044503
O        1.96328080       3.37935902       6.33507289        8       0.02483450      -0.02926952       0.01087063
O        0.58525421       0.57088159       4.74055689        9      -0.02483451      -0.02926952      -0.01087063
O        0.58525421       2.23759584       2.64319629       10      -0.02483451       0.02926952       0.01087063
O        1.96328080       5.04607327       1.04868030       11       0.02483451       0.02926952      -0.01087063
O        3.13378921       2.23759584       1.04868030       12      -0.02483451       0.02926952      -0.01087063
O        4.51181581       5.04607327       2.64319629       13       0.02483451       0.02926952       0.01087063
O        4.51181581       3.37935902       4.74055689       14       0.02483451      -0.02926952      -0.01087063
O        3.13378921       0.57088159       6.33507289       15      -0.02483451      -0.02926952       0.01087063
O        4.73904672       4.21271615       0.00000000       16       0.02300880      -0.00000000       0.00000000
O        2.90655830       1.40423872       3.69187659       17      -0.02300880       0.00000000      -0.00000000
O        0.35802329       1.40423872       0.00000000       18      -0.02300880       0.00000000       0.00000000
O        2.19051171       4.21271615       3.69187659       19       0.02300880       0.00000000       0.00000000
20
Lattice="5.100672350423959 -1.5021034569640567e-59 -3.2499984994657217e-43 1.4679559691122272e-59 5.612147180155724 -4.995644956171213e-16 4.349852926225967e-43 2.918883984248697e-16 7.384859299738735" Properties=species:S:1:pos:R:3:spacegroup_kinds:I:1:forces:R:3 spacegroup="P 1" unit_cell=conventional occupancy="_JSON {\"0\": {\"In\": 1}, \"1\": {\"In\": 1}, \"2\": {\"In\": 1}, \"3\": {\"In\": 1}, \"4\": {\"In\": 1}, \"5\": {\"In\": 1}, \"6\": {\"In\": 1}, \"7\": {\"In\": 1}, \"8\": {\"O\": 1}, \"9\": {\"O\": 1}, \"10\": {\"O\": 1}, \"11\": {\"O\": 1}, \"12\": {\"O\": 1}, \"13\": {\"O\": 1}, \"14\": {\"O\": 1}, \"15\": {\"O\": 1}, \"16\": {\"O\": 1}, \"17\": {\"O\": 1}, \"18\": {\"O\": 1}, \"19\": {\"O\": 1}}" n_minim_iter=8 energy=-22570.68060559688 stress="-0.2575295166293176 5.59048503929931e-13 -6.052588838680879e-13 5.59048503929931e-13 -0.25743137616617373 9.338213513677522e-13 -6.052588838680879e-13 9.338213513677522e-13 -0.25634117669680595" free_energy=-22570.68060559688 pbc="T T T"
In       1.25661669       3.06909181       0.91535174        0       0.02086311       0.02416865      -0.00063389
In       1.29371948       0.26301822       2.77707791        1      -0.02086311       0.02416865       0.00063389
In       1.29371948       2.54305537       4.60778139        2      -0.02086311      -0.02416865      -0.00063389
In       1.25661669       5.34912896       6.46950756        3       0.02086311      -0.02416865       0.00063389
In       3.84405566       2.54305537       6.46950756        4      -0.02086311      -0.02416865       0.00063389
In       3.80695287       5.34912896       4.60778139        5       0.02086311      -0.02416865      -0.00063389
In       3.80695287       3.06909181       2.77707791        6       0.02086311       0.02416865       0.00063389
In       3.84405566       0.26301822       0.91535174        7      -0.02086311       0.02416865      -0.00063389
O        1.96759715       3.37446326       6.33665620        8      -0.00057907      -0.00454209       0.02848396
O        0.58273903       0.56838967       4.74063275        9       0.00057907      -0.00454209      -0.02848396
O        0.58273903       2.23768392       2.64422655       10       0.00057907       0.00454209       0.02848396
O        1.96759715       5.04375751       1.04820310       11      -0.00057907       0.00454209      -0.02848396
O        3.13307520       2.23768392       1.04820310       12       0.00057907       0.00454209      -0.02848396
O        4.51793332       5.04375751       2.64422655       13      -0.00057907       0.00454209       0.02848396
O        4.51793332       3.37446326       4.74063275       14      -0.00057907      -0.00454209      -0.02848396
O        3.13307520       0.56838967       6.33665620       15       0.00057907      -0.00454209       0.02848396
O        4.74214368       4.20911039       0.00000000       16       0.04253218      -0.00000000       0.00000000
O        2.90886484       1.40303680       3.69242965       17      -0.04253218       0.00000000      -0.00000000
O        0.35852867       1.40303680       0.00000000       18      -0.04253218      -0.00000000      -0.00000000
O        2.19180751       4.20911039       3.69242965       19       0.04253218       0.00000000      -0.00000000
20
Lattice="5.106643145825043 -1.0428962943470539e-59 -3.745464760158519e-43 1.83613724361379e-59 5.609185124079793 -4.896715318696602e-16 4.508618632437011e-43 3.0450926416884824e-16 7.380119946735251" Properties=species:S:1:pos:R:3:spacegroup_kinds:I:1:forces:R:3 spacegroup="P 1" unit_cell=conventional occupancy="_JSON {\"0\": {\"In\": 1}, \"1\": {\"In\": 1}, \"2\": {\"In\": 1}, \"3\": {\"In\": 1}, \"4\": {\"In\": 1}, \"5\": {\"In\": 1}, \"6\": {\"In\": 1}, \"7\": {\"In\": 1}, \"8\": {\"O\": 1}, \"9\": {\"O\": 1}, \"10\": {\"O\": 1}, \"11\": {\"O\": 1}, \"12\": {\"O\": 1}, \"13\": {\"O\": 1}, \"14\": {\"O\": 1}, \"15\": {\"O\": 1}, \"16\": {\"O\": 1}, \"17\": {\"O\": 1}, \"18\": {\"O\": 1}, \"19\": {\"O\": 1}}" n_minim_iter=9 energy=-22570.681182389046 stress="-0.25696425402056877 1.0496147560725902e-13 -2.086694978599053e-13 1.0496147560725902e-13 -0.2569716995193275 -6.947764797115471e-13 -2.086694978599053e-13 -6.947764797115471e-13 -0.2572755588066154" free_energy=-22570.681182389046 pbc="T T T"
In       1.25871954       3.06833436       0.91512846        0      -0.01264655       0.00181877       0.02022254
In       1.29460203       0.26374180       2.77493152        1       0.01264655       0.00181877      -0.02022254
In       1.29460203       2.54085076       4.60518843        2       0.01264655      -0.00181877       0.02022254
In       1.25871954       5.34544332       6.46499149        3      -0.01264655      -0.00181877      -0.02022254
In       3.84792360       2.54085076       6.46499149        4       0.01264655      -0.00181877      -0.02022254
In       3.81204112       5.34544332       4.60518843        5      -0.01264655      -0.00181877       0.02022254
In       3.81204112       3.06833436       2.77493152        6      -0.01264655       0.00181877      -0.02022254
In       3.84792360       0.26374180       0.91512846        7       0.01264655       0.00181877       0.02022254
O        1.97120920       3.37083542       6.33346495        8      -0.00924779       0.00498329       0.00382392
O        0.58211237       0.56624286       4.73671497        9       0.00924779       0.00498329      -0.00382392
O        0.58211237       2.23834970       2.64340498       10       0.00924779      -0.00498329       0.00382392
O        1.97120920       5.04294227       1.04665500       11      -0.00924779      -0.00498329      -0.00382392
O        3.13543395       2.23834970       1.04665500       12       0.00924779      -0.00498329      -0.00382392
O        4.52453077       5.04294227       2.64340498       13      -0.00924779      -0.00498329       0.00382392
O        4.52453077       3.37083542       4.73671497       14      -0.00924779       0.00498329      -0.00382392
O        3.13543395       0.56624286       6.33346495       15       0.00924779       0.00498329       0.00382392
O        4.75036059       4.20688884       0.00000000       16       0.01601906       0.00000000       0.00000000
O        2.90960413       1.40229628       3.69005997       17      -0.01601906       0.00000000       0.00000000
O        0.35628255       1.40229628       0.00000000       18      -0.01601906      -0.00000000      -0.00000000
O        2.19703902       4.20688884       3.69005997       19       0.01601906      -0.00000000       0.00000000
20