20
Lattice="5.47003163182912 -7.498763054093726e-60 2.5118034789865297e-43 1.005441720957734e-59 5.561053656173482 -5.293788542172768e-17 -3.577959209214911e-43 7.417355072441035e-17 7.7918317318744466" Properties=species:S:1:pos:R:3:spacegroup_kinds:I:1:forces:R:3 spacegroup="P 1" unit_cell=conventional occupancy="_JSON {\"0\": {\"In\": 1}, \"1\": {\"In\": 1}, \"2\": {\"In\": 1}, \"3\": {\"In\": 1}, \"4\": {\"In\": 1}, \"5\": {\"In\": 1}, \"6\": {\"In\": 1}, \"7\": {\"In\": 1}, \"8\": {\"O\": 1}, \"9\": {\"O\": 1}, \"10\": {\"O\": 1}, \"11\": {\"O\": 1}, \"12\": {\"O\": 1}, \"13\": {\"O\": 1}, \"14\": {\"O\": 1}, \"15\": {\"O\": 1}, \"16\": {\"O\": 1}, \"17\": {\"O\": 1}, \"18\": {\"O\": 1}, \"19\": {\"O\": 1}}" n_minim_iter=1 energy=-22574.34214885764 stress="-0.07220811958343498 1.7096029121133666e-13 7.765940442657919e-14 1.7096029121133666e-13 -0.07201951781785043 -4.491183769797954e-13 7.765940442657919e-14 -4.491183769797954e-13 -0.06674104094701334" free_energy=-22574.34214885764 pbc="T T T"
In       1.36559141       2.95215674       0.89056219        0       0.03890407       0.04868804       0.03157785
In       1.36942440       0.17162991       3.00535368        1      -0.03890407       0.04868804      -0.03157785
In       1.36942440       2.60889692       4.78647805        2      -0.03890407      -0.04868804       0.03157785
In       1.36559141       5.38942374       6.90126955        3       0.03890407      -0.04868804      -0.03157785
In       4.10444022       2.60889692       6.90126955        4      -0.03890407      -0.04868804      -0.03157785
In       4.10060723       5.38942374       4.78647805        5       0.03890407      -0.04868804       0.03157785
In       4.10060723       2.95215674       3.00535368        6       0.03890407       0.04868804      -0.03157785
In       4.10444022       0.17162991       0.89056219        7      -0.03890407       0.04868804       0.03157785
O        2.12677613       3.35317779       6.62052230        8      -0.04248226       0.00925827       0.04180558
O        0.60823969       0.57265096       5.06722529        9       0.04248226       0.00925827      -0.04180558
O        0.60823969       2.20787587       2.72460644       10       0.04248226      -0.00925827       0.04180558
O        2.12677613       4.98840269       1.17130943       11      -0.04248226      -0.00925827      -0.04180558
O        3.34325551       2.20787587       1.17130943       12       0.04248226      -0.00925827      -0.04180558
O        4.86179194       4.98840269       2.72460644       13      -0.04248226      -0.00925827       0.04180558
O        4.86179194       3.35317779       5.06722529       14      -0.04248226       0.00925827      -0.04180558
O        3.34325551       0.57265096       6.62052230       15       0.04248226       0.00925827       0.04180558
O        5.23717414       4.17079024       0.00000000       16       0.04599133       0.00000000       0.00000000
O        2.96787331       1.39026341       3.89591587       17      -0.04599133       0.00000000      -0.00000000
O        0.23285749       1.39026341       0.00000000       18      -0.04599133      -0.00000000       0.00000000
O        2.50215833       4.17079024       3.89591587       19       0.04599133       0.00000000      -0.00000000
20
Lattice="5.479696337260132 -8.140788354761039e-60 2.5132517420386363e-43 8.611090845454032e-60 5.569895437623329 -3.069602213793004e-17 -3.5291834557875857e-43 1.0470535087285035e-16 7.765741924332864" Properties=species:S:1:pos:R:3:spacegroup_kinds:I:1:forces:R:3 spacegroup="P 1" unit_cell=conventional occupancy="_JSON {\"0\": {\"In\": 1}, \"1\": {\"In\": 1}, \"2\": {\"In\": 1}, \"3\": {\"In\": 1}, \"4\": {\"In\": 1}, \"5\": {\"In\": 1}, \"6\": {\"In\": 1}, \"7\": {\"In\": 1}, \"8\": {\"O\": 1}, \"9\": {\"O\": 1}, \"10\": {\"O\": 1}, \"11\": {\"O\": 1}, \"12\": {\"O\": 1}, \"13\": {\"O\": 1}, \"14\": {\"O\": 1}, \"15\": {\"O\": 1}, \"16\": {\"O\": 1}, \"17\": {\"O\": 1}, \"18\": {\"O\": 1}, \"19\": {\"O\": 1}}" n_minim_iter=2 energy=-22574.3444551853 stress="-0.06915367028047031 -5.716159510890983e-13 -1.200248500696583e-13 -5.716159510890983e-13 -0.06983405894475203 1.0176525348436243e-13 -1.200248500696583e-13 1.0176525348436243e-13 -0.06983517714381089" free_energy=-22574.3444551853 pbc="T T T"
In       1.36815817       2.95704317       0.88770460        0       0.06155814       0.05776050       0.01997648
In       1.37169000       0.17209545       2.99516636        1      -0.06155814       0.05776050      -0.01997648
In       1.37169000       2.61285227       4.77057556        2      -0.06155814      -0.05776050       0.01997648
In       1.36815817       5.39779999       6.87803732        3       0.06155814      -0.05776050      -0.01997648
In       4.11153817       2.61285227       6.87803732        4      -0.06155814      -0.05776050      -0.01997648
In       4.10800634       5.39779999       4.77057556        5       0.06155814      -0.05776050       0.01997648
In       4.10800634       2.95704317       2.99516636        6       0.06155814       0.05776050      -0.01997648
In       4.11153817       0.17209545       0.88770460        7      -0.06155814       0.05776050       0.01997648
O        2.13036569       3.35854580       6.59851906        8      -0.01510991       0.02075983       0.05377480
O        0.60948248       0.57359808       5.05009383        9       0.01510991       0.02075983      -0.05377480
O        0.60948248       2.21134964       2.71564810       10       0.01510991      -0.02075983       0.05377480
O        2.13036569       4.99629736       1.16722287       11      -0.01510991      -0.02075983      -0.05377480
O        3.34933065       2.21134964       1.16722287       12       0.01510991      -0.02075983      -0.05377480
O        4.87021385       4.99629736       2.71564810       13      -0.01510991      -0.02075983       0.05377480
O        4.87021385       3.35854580       5.05009383       14      -0.01510991       0.02075983      -0.05377480
O        3.34933065       0.57359808       6.59851906       15       0.01510991       0.02075983       0.05377480
O        5.24660944       4.17742158       0.00000000       16       0.03899890      -0.00000000      -0.00000000
O        2.97293507       1.39247386       3.88287096       17      -0.03899890       0.00000000       0.00000000
O        0.23308690       1.39247386       0.00000000       18      -0.03899890       0.00000000      -0.00000000
O        2.50676127       4.17742158       3.88287096       19       0.03899890      -0.00000000       0.00000000
20
Lattice="5.469428047715883 -9.658523807811954e-60 2.338961281421235e-43 9.717615989439479e-60 5.584373725204962 -4.7633306588895674e-17 -3.6042738005600815e-43 8.12084292550003e-17 7.760149711627398" Properties=species:S:1:pos:R:3:spacegroup_kinds:I:1:forces:R:3 spacegroup="P 1" unit_cell=conventional occupancy="_JSON {\"0\": {\"In\": 1}, \"1\": {\"In\": 1}, \"2\": {\"In\": 1}, \"3\": {\"In\": 1}, \"4\": {\"In\": 1}, \"5\": {\"In\": 1}, \"6\": {\"In\": 1}, \"7\": {\"In\": 1}, \"8\": {\"O\": 1}, \"9\": {\"O\": 1}, \"10\": {\"O\": 1}, \"11\": {\"O\": 1}, \"12\": {\"O\": 1}, \"13\": {\"O\": 1}, \"14\": {\"O\": 1}, \"15\": {\"O\": 1}, \"16\": {\"O\": 1}, \"17\": {\"O\": 1}, \"18\": {\"O\": 1}, \"19\": {\"O\": 1}}" n_minim_iter=3 energy=-22574.346058459625 stress="-0.0700377292559878 -6.87206199488941e-13 5.045584556853496e-13 -6.87206199488941e-13 -0.06793201960727248 -6.239364475453294e-13 5.045584556853496e-13 -6.239364475453294e-13 -0.0693291260082836" free_energy=-22574.346058459625 pbc="T T T"
In       1.36745290       2.96651321       0.88771333        0       0.00011893       0.04419649       0.01904071
In       1.36726113       0.17432635       2.99236153        1      -0.00011893       0.04419649      -0.01904071
In       1.36726113       2.61786052       4.76778818        2      -0.00011893      -0.04419649       0.01904071
In       1.36745290       5.41004738       6.87243638        3       0.00011893      -0.04419649      -0.01904071
In       4.10197515       2.61786052       6.87243638        4      -0.00011893      -0.04419649      -0.01904071
In       4.10216692       5.41004738       4.76778818        5       0.00011893      -0.04419649       0.01904071
In       4.10216692       2.96651321       2.99236153        6       0.00011893       0.04419649      -0.01904071
In       4.10197515       0.17432635       0.88771333        7      -0.00011893       0.04419649       0.01904071
O        2.12582997       3.36789499       6.59539736        8      -0.03069493       0.02016116       0.01690388
O        0.60888405       0.57570813       5.04482721        9       0.03069493       0.02016116      -0.01690388
O        0.60888405       2.21647873       2.71532250       10       0.03069493      -0.02016116       0.01690388
O        2.12582997       5.00866560       1.16475236       11      -0.03069493      -0.02016116      -0.01690388
O        3.34359808       2.21647873       1.16475236       12       0.03069493      -0.02016116      -0.01690388
O        4.86054399       5.00866560       2.71532250       13      -0.03069493      -0.02016116       0.01690388
O        4.86054399       3.36789499       5.04482721       14      -0.03069493       0.02016116      -0.01690388
O        3.34359808       0.57570813       6.59539736       15       0.03069493       0.02016116       0.01690388
O        5.23801204       4.18828029       0.00000000       16      -0.00209089       0.00000000       0.00000000
O        2.96613003       1.39609343       3.88007486       17       0.00209089       0.00000000       0.00000000
O        0.23141601       1.39609343       0.00000000       18       0.00209089       0.00000000       0.00000000
O        2.50329801       4.18828029       3.88007486       19      -0.00209089      -0.00000000      -0.00000000
20
Lattice="5.47634216786073 -1.5113294103729723e-59 1.88307651431263e-43 8.463843248923844e-60 5.5769369732591345 -6.218365170203765e-17 -3.766636668900165e-43 6.071337626145848e-17 7.760687149828585" Properties=species:S:1:pos:R:3:spacegroup_kinds:I:1:forces:R:3 spacegroup="P 1" unit_cell=conventional occupancy="_JSON {\"0\": {\"In\": 1}, \"1\": {\"In\": 1}, \"2\": {\"In\": 1}, \"3\": {\"In\": 1}, \"4\": {\"In\": 1}, \"5\": {\"In\": 1}, \"6\": {\"In\": 1}, \"7\": {\"In\": 1}, \"8\": {\"O\": 1}, \"9\": {\"O\": 1}, \"10\": {\"O\": 1}, \"11\": {\"O\": 1}, \"12\": {\"O\": 1}, \"13\": {\"O\": 1}, \"14\": {\"O\": 1}, \"15\": {\"O\": 1}, \"16\": {\"O\": 1}, \"17\": {\"O\": 1}, \"18\": {\"O\": 1}, \"19\": {\"O\": 1}}" n_minim_iter=4 energy=-22574.346813206852 stress="-0.0687924444906692 3.866823420156941e-13 -7.343818584551442e-13 3.866823420156941e-13 -0.06894047258492231 5.599004727879106e-13 -7.343818584551442e-13 5.599004727879106e-13 -0.0689455432545792" free_energy=-22574.346813206852 pbc="T T T"
In       1.37004490       2.96380419       0.88825330        0      -0.01092685      -0.00103809       0.03597034
In       1.36812619       0.17533570       2.99209028        1       0.01092685      -0.00103809      -0.03597034
In       1.36812619       2.61313278       4.76859687        2       0.01092685       0.00103809       0.03597034
In       1.37004490       5.40160127       6.87243385        3      -0.01092685       0.00103809      -0.03597034
In       4.10629727       2.61313278       6.87243385        4       0.01092685       0.00103809      -0.03597034
In       4.10821598       5.40160127       4.76859687        5      -0.01092685       0.00103809       0.03597034
In       4.10821598       2.96380419       2.99209028        6      -0.01092685      -0.00103809      -0.03597034
In       4.10629727       0.17533570       0.88825330        7       0.01092685      -0.00103809       0.03597034
O        2.12797489       3.36388514       6.59676663        8      -0.01562850      -0.00477529      -0.00042666
O        0.61019620       0.57541665       5.04426409        9       0.01562850      -0.00477529       0.00042666
O        0.61019620       2.21305183       2.71642306       10       0.01562850       0.00477529      -0.00042666
O        2.12797489       5.00152032       1.16392052       11      -0.01562850       0.00477529       0.00042666
O        3.34836728       2.21305183       1.16392052       12       0.01562850       0.00477529       0.00042666
O        4.86614597       5.00152032       2.71642306       13      -0.01562850       0.00477529      -0.00042666
O        4.86614597       3.36388514       5.04426409       14      -0.01562850      -0.00477529       0.00042666
O        3.34836728       0.57541665       6.59676663       15       0.01562850      -0.00477529      -0.00042666
O        5.24518919       4.18270273       0.00000000       16      -0.02043696      -0.00000000       0.00000000
O        2.96932407       1.39423424       3.88034357       17       0.02043696      -0.00000000       0.00000000
O        0.23115298       1.39423424       0.00000000       18       0.02043696      -0.00000000      -0.00000000
O        2.50701810       4.18270273       3.88034357       19      -0.02043696       0.00000000       0.00000000
20
Lattice="5.473779088331797 -1.4591453673629586e-59 1.8769686694320014e-43 9.23576724041782e-60 5.5768521271520015 -6.896522011764794e-17 -3.782523883832529e-43 5.1256401068640084e-17 7.764439192945807" Properties=species:S:1:pos:R:3:spacegroup_kinds:I:1:forces:R:3 spacegroup="P 1" unit_cell=conventional occupancy="_JSON {\"0\": {\"In\": 1}, \"1\": {\"In\": 1}, \"2\": {\"In\": 1}, \"3\": {\"In\": 1}, \"4\": {\"In\": 1}, \"5\": {\"In\": 1}, \"6\": {\"In\": 1}, \"7\": {\"In\": 1}, \"8\": {\"O\": 1}, \"9\": {\"O\": 1}, \"10\": {\"O\": 1}, \"11\": {\"O\": 1}, \"12\": {\"O\": 1}, \"13\": {\"O\": 1}, \"14\": {\"O\": 1}, \"15\": {\"O\": 1}, \"16\": {\"O\": 1}, \"17\": {\"O\": 1}, \"18\": {\"O\": 1}, \"19\": {\"O\": 1}}" n_minim_iter=5 energy=-22574.347466475538 stress="-0.06875494382407527 2.305485004589932e-13 -3.628678260054267e-13 2.305485004589932e-13 -0.06877063675219686 -2.4679167701221575e-13 -3.628678260054267e-13 -2.4679167701221575e-13 -0.06847059242739771" free_energy=-22574.347466475538 pbc="T T T"
In       1.36929897       2.96466612       0.89163382        0      -0.01041299      -0.00133542      -0.00131375
In       1.36759058       0.17624006       2.99058578        1       0.01041299      -0.00133542       0.00131375
In       1.36759058       2.61218601       4.77385341        2       0.01041299       0.00133542      -0.00131375
In       1.36929897       5.40061207       6.87280538        3      -0.01041299       0.00133542       0.00131375
In       4.10448012       2.61218601       6.87280538        4       0.01041299       0.00133542       0.00131375
In       4.10618851       5.40061207       4.77385341        5      -0.01041299       0.00133542      -0.00131375
In       4.10618851       2.96466612       2.99058578        6      -0.01041299      -0.00133542       0.00131375
In       4.10448012       0.17624006       0.89163382        7       0.01041299      -0.00133542      -0.00131375
O        2.12541195       3.36385990       6.60064906        8      -0.00199347      -0.01027152       0.01928858
O        0.61147760       0.57543384       5.04600973        9       0.00199347      -0.01027152      -0.01928858
O        0.61147760       2.21299223       2.71842946       10       0.00199347       0.01027152       0.01928858
O        2.12541195       5.00141829       1.16379014       11      -0.00199347       0.01027152      -0.01928858
O        3.34836714       2.21299223       1.16379014       12       0.00199347       0.01027152      -0.01928858
O        4.86230149       5.00141829       2.71842946       13      -0.00199347       0.01027152       0.01928858
O        4.86230149       3.36385990       5.04600973       14      -0.00199347      -0.01027152      -0.01928858
O        3.34836714       0.57543384       6.60064906       15       0.00199347      -0.01027152       0.01928858
O        5.24171339       4.18263910       0.00000000       16      -0.02389012       0.00000000       0.00000000
O        2.96895525       1.39421303       3.88221960       17       0.02389012      -0.00000000      -0.00000000
O        0.23206570       1.39421303       0.00000000       18       0.02389012      -0.00000000      -0.00000000
O        2.50482384       4.18263910       3.88221960       19      -0.02389012      -0.00000000      -0.00000000
20
Lattice="5.473039672549041 -1.2701283876383925e-59 1.914486560730264e-43 1.0802496693680335e-59 5.578750883500434 -9.198178089215624e-17 -3.769014085722723e-43 1.9001369227059917e-17 7.7628451566517285" Properties=species:S:1:pos:R:3:spacegroup_kinds:I:1:forces:R:3 spacegroup="P 1" unit_cell=conventional occupancy="_JSON {\"0\": {\"In\": 1}, \"1\": {\"In\": 1}, \"2\": {\"In\": 1}, \"3\": {\"In\": 1}, \"4\": {\"In\": 1}, \"5\": {\"In\": 1}, \"6\": {\"In\": 1}, \"7\": {\"In\": 1}, \"8\": {\"O\": 1}, \"9\": {\"O\": 1}, \"10\": {\"O\": 1}, \"11\": {\"O\": 1}, \"12\": {\"O\": 1}, \"13\": {\"O\": 1}, \"14\": {\"O\": 1}, \"15\": {\"O\": 1}, \"16\": {\"O\": 1}, \"17\": {\"O\": 1}, \"18\": {\"O\": 1}, \"19\": {\"O\": 1}}" n_minim_iter=6 energy=-22574.347720209676 stress="-0.06824158548090548 -4.278703030939212e-13 -1.824614185859058e-13 -4.278703030939212e-13 -0.0682022190308568 8.428204120562863e-13 -1.824614185859058e-13 8.428204120562863e-13 -0.06869553787687518" free_energy=-22574.347720209676 pbc="T T T"
In       1.36856235       2.96634256       0.89358770        0      -0.00065420       0.00706034      -0.02067585
In       1.36795749       0.17696712       2.98783488        1       0.00065420       0.00706034       0.02067585
In       1.36795749       2.61240832       4.77501027        2       0.00065420      -0.00706034      -0.02067585
In       1.36856235       5.40178377       6.86925746        3      -0.00065420      -0.00706034       0.02067585
In       4.10447733       2.61240832       6.86925746        4       0.00065420      -0.00706034       0.02067585
In       4.10508218       5.40178377       4.77501027        5      -0.00065420      -0.00706034      -0.02067585
In       4.10508218       2.96634256       2.98783488        6      -0.00065420       0.00706034       0.02067585
In       4.10447733       0.17696712       0.89358770        7       0.00065420       0.00706034      -0.02067585
O        2.12387869       3.36455258       6.60079443        8       0.01035851      -0.00936010       0.02425418
O        0.61264114       0.57517714       5.04347331        9      -0.01035851      -0.00936010      -0.02425418
O        0.61264114       2.21419830       2.71937185       10      -0.01035851       0.00936010       0.02425418
O        2.12387869       5.00357374       1.16205073       11       0.01035851       0.00936010      -0.02425418
O        3.34916098       2.21419830       1.16205073       12      -0.01035851       0.00936010      -0.02425418
O        4.86039853       5.00357374       2.71937185       13       0.01035851       0.00936010       0.02425418
O        4.86039853       3.36455258       5.04347331       14       0.01035851      -0.00936010      -0.02425418
O        3.34916098       0.57517714       6.60079443       15      -0.01035851      -0.00936010       0.02425418
O        5.23904494       4.18406316       0.00000000       16      -0.01484946       0.00000000       0.00000000
O        2.97051457       1.39468772       3.88142258       17       0.01484946      -0.00000000      -0.00000000
O        0.23399473       1.39468772       0.00000000       18       0.01484946       0.00000000      -0.00000000
O        2.50252510       4.18406316       3.88142258       19      -0.01484946      -0.00000000       0.00000000
20
Lattice="5.472068423297318 -1.2992951698277775e-59 1.8997882903773657e-43 1.1420832858917974e-59 5.5781962684265824 -8.854908804056432e-17 -3.871999399489074e-43 2.3847037252948238e-17 7.764994962739184" Properties=species:S:1:pos:R:3:spacegroup_kinds:I:1:forces:R:3 spacegroup="P 1" unit_cell=conventional occupancy="_JSON {\"0\": {\"In\": 1}, \"1\": {\"In\": 1}, \"2\": {\"In\": 1}, \"3\": {\"In\": 1}, \"4\": {\"In\": 1}, \"5\": {\"In\": 1}, \"6\": {\"In\": 1}, \"7\": {\"In\": 1}, \"8\": {\"O\": 1}, \"9\": {\"O\": 1}, \"10\": {\"O\": 1}, \"11\": {\"O\": 1}, \"12\": {\"O\": 1}, \"13\": {\"O\": 1}, \"14\": {\"O\": 1}, \"15\": {\"O\": 1}, \"16\": {\"O\": 1}, \"17\": {\"O\": 1}, \"18\": {\"O\": 1}, \"19\": {\"O\": 1}}" n_minim_iter=7 energy=-22574.348038799864 stress="-0.06834899212905085 1.5303389388378021e-13 3.02977486848381e-13 1.5303389388378021e-13 -0.06835474117356678 3.9099745078675846e-13 3.02977486848381e-13 3.9099745078675846e-13 -0.06832274100174222" free_energy=-22574.348038799864 pbc="T T T"
In       1.36769680       2.96651584       0.89391968        0       0.00020186       0.00735189       0.00243832
In       1.36833742       0.17741771       2.98857780        1      -0.00020186       0.00735189      -0.00243832
In       1.36833742       2.61168043       4.77641716        2      -0.00020186      -0.00735189       0.00243832
In       1.36769680       5.40077856       6.87107528        3       0.00020186      -0.00735189      -0.00243832
In       4.10437163       2.61168043       6.87107528        4      -0.00020186      -0.00735189      -0.00243832
In       4.10373101       5.40077856       4.77641716        5       0.00020186      -0.00735189       0.00243832
In       4.10373101       2.96651584       2.98857780        6       0.00020186       0.00735189      -0.00243832
In       4.10437163       0.17741771       0.89391968        7      -0.00020186       0.00735189       0.00243832
O        2.12330708       3.36329758       6.60473837        8       0.00478172      -0.01006617      -0.00456126
O        0.61272714       0.57419945       5.04275407        9      -0.00478172      -0.01006617       0.00456126
O        0.61272714       2.21489868       2.72224089       10      -0.00478172       0.01006617      -0.00456126
O        2.12330708       5.00399682       1.16025659       11       0.00478172       0.01006617       0.00456126
O        3.34876135       2.21489868       1.16025659       12      -0.00478172       0.01006617       0.00456126
O        4.85934129       5.00399682       2.72224089       13       0.00478172       0.01006617      -0.00456126
O        4.85934129       3.36329758       5.04275407       14       0.00478172      -0.01006617       0.00456126
O        3.34876135       0.57419945       6.60473837       15      -0.00478172      -0.01006617      -0.00456126
O        5.23596916       4.18364720       0.00000000       16       0.00184205       0.00000000      -0.00000000
O        2.97213347       1.39454907       3.88249748       17      -0.00184205      -0.00000000      -0.00000000
O        0.23609926       1.39454907       0.00000000       18      -0.00184205      -0.00000000       0.00000000
O        2.49993495       4.18364720       3.88249748       19       0.00184205       0.00000000      -0.00000000
20
Lattice="5.472148411459584 -3.346443761078707e-59 5.20121292812054e-44 1.3141353035274027e-61 5.57844743732374 -9.847607595616788e-17 -1.2464995608526142e-43 9.931574119626532e-18 7.7645318464825515" Properties=species:S:1:pos:R:3:spacegroup_kinds:I:1:forces:R:3 spacegroup="P 1" unit_cell=conventional occupancy="_JSON {\"0\": {\"In\": 1}, \"1\": {\"In\": 1}, \"2\": {\"In\": 1}, \"3\": {\"In\": 1}, \"4\": {\"In\": 1}, \"5\": {\"In\": 1}, \"6\": {\"In\": 1}, \"7\": {\"In\": 1}, \"8\": {\"O\": 1}, \"9\": {\"O\": 1}, \"10\": {\"O\": 1}, \"11\": {\"O\": 1}, \"12\": {\"O\": 1}, \"13\": {\"O\": 1}, \"14\": {\"O\": 1}, \"15\": {\"O\": 1}, \"16\": {\"O\": 1}, \"17\": {\"O\": 1}, \"18\": {\"O\": 1}, \"19\": {\"O\": 1}}" n_minim_iter=8 energy=-22574.348191380497 stress="-0.06830171943432686 -5.351348144734461e-13 -2.3861441138488203e-13 -5.351348144734461e-13 -0.06815363285622507 -4.9636194668232695e-14 -2.3861441138488203e-13 -4.9636194668232695e-14 -0.06833275274435553" free_energy=-22574.348191380497 pbc="T T T"
In       1.36744689       2.96840045       0.89468728        0      -0.00218340       0.00207337      -0.00155275
In       1.36862731       0.17917673       2.98757865        1       0.00218340       0.00207337       0.00155275
In       1.36862731       2.61004699       4.77695320        2       0.00218340      -0.00207337      -0.00155275
In       1.36744689       5.39927071       6.86984457        3      -0.00218340      -0.00207337       0.00155275
In       4.10470152       2.61004699       6.86984457        4       0.00218340      -0.00207337       0.00155275
In       4.10352110       5.39927071       4.77695320        5      -0.00218340      -0.00207337      -0.00155275
In       4.10352110       2.96840045       2.98757865        6      -0.00218340       0.00207337       0.00155275
In       4.10470152       0.17917673       0.89468728        7       0.00218340       0.00207337      -0.00155275
O        2.12392239       3.36115807       6.60472897        8      -0.00235485       0.00017301      -0.00073373
O        0.61215182       0.57193435       5.04206880        9       0.00235485       0.00017301       0.00073373
O        0.61215182       2.21728937       2.72246304       10       0.00235485      -0.00017301      -0.00073373
O        2.12392239       5.00651309       1.15980288       11      -0.00235485      -0.00017301       0.00073373
O        3.34822602       2.21728937       1.15980288       12       0.00235485      -0.00017301       0.00073373
O        4.85999660       5.00651309       2.72246304       13      -0.00235485      -0.00017301      -0.00073373
O        4.85999660       3.36115807       5.04206880       14      -0.00235485       0.00017301       0.00073373
O        3.34822602       0.57193435       6.60472897       15       0.00235485       0.00017301      -0.00073373
O        5.23515932       4.18383558       0.00000000       16       0.00151197       0.00000000       0.00000000
O        2.97306330       1.39461186       3.88226592       17      -0.00151197      -0.00000000      -0.00000000
O        0.23698909       1.39461186       0.00000000       18      -0.00151197       0.00000000      -0.00000000
O        2.49908512       4.18383558       3.88226592       19       0.00151197       0.00000000       0.00000000
