20
Lattice="5.54179098381259 7.764467035135002e-62 5.302890931543098e-44 -2.4360656150592004e-62 5.627955845367238 -5.694612913007995e-18 -7.664981325433825e-44 8.105169009050429e-18 8.010295695072948" Properties=species:S:1:pos:R:3:spacegroup_kinds:I:1:forces:R:3 spacegroup="P 1" unit_cell=conventional occupancy="_JSON {\"0\": {\"In\": 1}, \"1\": {\"In\": 1}, \"2\": {\"In\": 1}, \"3\": {\"In\": 1}, \"4\": {\"In\": 1}, \"5\": {\"In\": 1}, \"6\": {\"In\": 1}, \"7\": {\"In\": 1}, \"8\": {\"O\": 1}, \"9\": {\"O\": 1}, \"10\": {\"O\": 1}, \"11\": {\"O\": 1}, \"12\": {\"O\": 1}, \"13\": {\"O\": 1}, \"14\": {\"O\": 1}, \"15\": {\"O\": 1}, \"16\": {\"O\": 1}, \"17\": {\"O\": 1}, \"18\": {\"O\": 1}, \"19\": {\"O\": 1}}" n_minim_iter=1 energy=-22574.889675639814 stress="-0.02479506662484054 -2.2572928645286937e-13 -5.332158583854445e-13 -2.2572928645286937e-13 -0.023057231939971404 -2.4779880094989953e-14 -5.332158583854445e-13 -2.4779880094989953e-14 -0.019309946706022856" free_energy=-22574.889675639814 pbc="T T T"
In       1.37472703       2.97435460       0.91788422        0       0.03140510       0.07351313      -0.02226658
In       1.39616846       0.16037668       3.08726363        1      -0.03140510       0.07351313       0.02226658
In       1.39616846       2.65360124       4.92303207        2      -0.03140510      -0.07351313      -0.02226658
In       1.37472703       5.46757916       7.09241148        3       0.03140510      -0.07351313       0.02226658
In       4.16706395       2.65360124       7.09241148        4      -0.03140510      -0.07351313       0.02226658
In       4.14562252       5.46757916       4.92303207        5       0.03140510      -0.07351313      -0.02226658
In       4.14562252       2.97435460       3.08726363        6       0.03140510       0.07351313       0.02226658
In       4.16706395       0.16037668       0.91788422        7      -0.03140510       0.07351313      -0.02226658
O        2.16222309       3.39805459       6.80311658        8      -0.03547149       0.01712871       0.02613055
O        0.60867240       0.58407667       5.21232696        9       0.03547149       0.01712871      -0.02613055
O        0.60867240       2.22990125       2.79796873       10       0.03547149      -0.01712871       0.02613055
O        2.16222309       5.04387918       1.20717911       11      -0.03547149      -0.01712871      -0.02613055
O        3.37956790       2.22990125       1.20717911       12       0.03547149      -0.01712871      -0.02613055
O        4.93311858       5.04387918       2.79796873       13      -0.03547149      -0.01712871       0.02613055
O        4.93311858       3.39805459       5.21232696       14      -0.03547149       0.01712871      -0.02613055
O        3.37956790       0.58407667       6.80311658       15       0.03547149       0.01712871       0.02613055
O        5.31109755       4.22096688      -0.00000000       16       0.03871407       0.00000000       0.00000000
O        3.00158892       1.40698896       4.00514785       17      -0.03871407       0.00000000       0.00000000
O        0.23069343       1.40698896      -0.00000000       18      -0.03871407      -0.00000000      -0.00000000
O        2.54020206       4.22096688       4.00514785       19       0.03871407       0.00000000       0.00000000
20
Lattice="5.559017840263227 1.1234149867282267e-61 5.405482576404731e-44 -5.031045610810532e-62 5.632817480784428 -2.6929008332385182e-18 -1.8766672744687047e-44 1.2316357718323576e-17 7.978580375184331" Properties=species:S:1:pos:R:3:spacegroup_kinds:I:1:forces:R:3 spacegroup="P 1" unit_cell=conventional occupancy="_JSON {\"0\": {\"In\": 1}, \"1\": {\"In\": 1}, \"2\": {\"In\": 1}, \"3\": {\"In\": 1}, \"4\": {\"In\": 1}, \"5\": {\"In\": 1}, \"6\": {\"In\": 1}, \"7\": {\"In\": 1}, \"8\": {\"O\": 1}, \"9\": {\"O\": 1}, \"10\": {\"O\": 1}, \"11\": {\"O\": 1}, \"12\": {\"O\": 1}, \"13\": {\"O\": 1}, \"14\": {\"O\": 1}, \"15\": {\"O\": 1}, \"16\": {\"O\": 1}, \"17\": {\"O\": 1}, \"18\": {\"O\": 1}, \"19\": {\"O\": 1}}" n_minim_iter=2 energy=-22574.892429197844 stress="-0.02090572145588433 -3.618735071349541e-13 4.037540023963852e-13 -3.618735071349541e-13 -0.021344580072462815 -4.145503917616357e-14 4.037540023963852e-13 -4.145503917616357e-14 -0.021402328150282954" free_energy=-22574.892429197844 pbc="T T T"
In       1.37916297       2.97730361       0.91413559        0       0.06581620       0.07223416      -0.03152578
In       1.40034595       0.16089487       3.07515460        1      -0.06581620       0.07223416       0.03152578
In       1.40034595       2.65551387       4.90342577        2      -0.06581620      -0.07223416      -0.03152578
In       1.37916297       5.47192261       7.06444479        3       0.06581620      -0.07223416       0.03152578
In       4.17985487       2.65551387       7.06444479        4      -0.06581620      -0.07223416       0.03152578
In       4.15867189       5.47192261       4.90342577        5       0.06581620      -0.07223416      -0.03152578
In       4.15867189       2.97730361       3.07515460        6       0.06581620       0.07223416       0.03152578
In       4.17985487       0.16089487       0.91413559        7      -0.06581620       0.07223416      -0.03152578
O        2.16876084       3.40107841       6.77631517        8      -0.01342096       0.01459223       0.04081717
O        0.61074808       0.58466967       5.19155540        9       0.01342096       0.01459223      -0.04081717
O        0.61074808       2.23173907       2.78702498       10       0.01342096      -0.01459223       0.04081717
O        2.16876084       5.04814781       1.20226521       11      -0.01342096      -0.01459223      -0.04081717
O        3.39025700       2.23173907       1.20226521       12       0.01342096      -0.01459223      -0.04081717
O        4.94826976       5.04814781       2.78702498       13      -0.01342096      -0.01459223       0.04081717
O        4.94826976       3.40107841       5.19155540       14      -0.01342096       0.01459223      -0.04081717
O        3.39025700       0.58466967       6.77631517       15       0.01342096       0.01459223       0.04081717
O        5.32780767       4.22461311      -0.00000000       16       0.03148067       0.00000000       0.00000000
O        3.01071909       1.40820437       3.98929019       17      -0.03148067       0.00000000       0.00000000
O        0.23121017       1.40820437      -0.00000000       18      -0.03148067       0.00000000       0.00000000
O        2.54829875       4.22461311       3.98929019       19       0.03148067       0.00000000       0.00000000
20
Lattice="5.555115802085692 -3.420200586731111e-61 1.6606410449377661e-43 -1.0246021593309332e-60 5.645615703587338 1.683639843649172e-17 -2.2896667909165224e-43 4.0134481270064294e-17 7.966085111319784" Properties=species:S:1:pos:R:3:spacegroup_kinds:I:1:forces:R:3 spacegroup="P 1" unit_cell=conventional occupancy="_JSON {\"0\": {\"In\": 1}, \"1\": {\"In\": 1}, \"2\": {\"In\": 1}, \"3\": {\"In\": 1}, \"4\": {\"In\": 1}, \"5\": {\"In\": 1}, \"6\": {\"In\": 1}, \"7\": {\"In\": 1}, \"8\": {\"O\": 1}, \"9\": {\"O\": 1}, \"10\": {\"O\": 1}, \"11\": {\"O\": 1}, \"12\": {\"O\": 1}, \"13\": {\"O\": 1}, \"14\": {\"O\": 1}, \"15\": {\"O\": 1}, \"16\": {\"O\": 1}, \"17\": {\"O\": 1}, \"18\": {\"O\": 1}, \"19\": {\"O\": 1}}" n_minim_iter=3 energy=-22574.89507068848 stress="-0.02069054583864277 -1.3071169382577298e-13 -3.2577088536029047e-14 -1.3071169382577298e-13 -0.019668160953389545 3.744622854639949e-13 -3.2577088536029047e-14 3.744622854639949e-13 -0.020703180995715827" free_energy=-22574.89507068848 pbc="T T T"
In       1.38140041       2.98776983       0.91115634        0       0.00600001       0.01846670      -0.00672655
In       1.39615749       0.16496198       3.07188622        1      -0.00600001       0.01846670       0.00672655
In       1.39615749       2.65784588       4.89419889        2      -0.00600001      -0.01846670      -0.00672655
In       1.38140041       5.48065373       7.05492877        3       0.00600001      -0.01846670       0.00672655
In       4.17371539       2.65784588       7.05492877        4      -0.00600001      -0.01846670       0.00672655
In       4.15895831       5.48065373       4.89419889        5       0.00600001      -0.01846670      -0.00672655
In       4.15895831       2.98776983       3.07188622        6       0.00600001       0.01846670       0.00672655
In       4.17371539       0.16496198       0.91115634        7      -0.00600001       0.01846670      -0.00672655
O        2.16644473       3.40956469       6.76769360        8      -0.01384704      -0.00506473      -0.00852351
O        0.61111317       0.58675684       5.18143406        9       0.01384704      -0.00506473       0.00852351
O        0.61111317       2.23605101       2.78465105       10       0.01384704       0.00506473      -0.00852351
O        2.16644473       5.05885886       1.19839151       11      -0.01384704       0.00506473       0.00852351
O        3.38867107       2.23605101       1.19839151       12       0.01384704       0.00506473       0.00852351
O        4.94400263       5.05885886       2.78465105       13      -0.01384704       0.00506473      -0.00852351
O        4.94400263       3.40956469       5.18143406       14      -0.01384704      -0.00506473       0.00852351
O        3.38867107       0.58675684       6.76769360       15       0.01384704      -0.00506473      -0.00852351
O        5.32571539       4.23421178      -0.00000000       16      -0.02423558      -0.00000000       0.00000000
O        3.00695832       1.41140393       3.98304256       17       0.02423558       0.00000000       0.00000000
O        0.22940041       1.41140393      -0.00000000       18       0.02423558       0.00000000      -0.00000000
O        2.54815749       4.23421178       3.98304256       19      -0.02423558      -0.00000000      -0.00000000
20
Lattice="5.558719214404856 -1.8608267256017564e-61 1.6637095190452305e-43 -1.021325305901393e-60 5.639729464693151 2.203020872062021e-17 -2.290833426557242e-43 4.747023797796609e-17 7.96923002448812" Properties=species:S:1:pos:R:3:spacegroup_kinds:I:1:forces:R:3 spacegroup="P 1" unit_cell=conventional occupancy="_JSON {\"0\": {\"In\": 1}, \"1\": {\"In\": 1}, \"2\": {\"In\": 1}, \"3\": {\"In\": 1}, \"4\": {\"In\": 1}, \"5\": {\"In\": 1}, \"6\": {\"In\": 1}, \"7\": {\"In\": 1}, \"8\": {\"O\": 1}, \"9\": {\"O\": 1}, \"10\": {\"O\": 1}, \"11\": {\"O\": 1}, \"12\": {\"O\": 1}, \"13\": {\"O\": 1}, \"14\": {\"O\": 1}, \"15\": {\"O\": 1}, \"16\": {\"O\": 1}, \"17\": {\"O\": 1}, \"18\": {\"O\": 1}, \"19\": {\"O\": 1}}" n_minim_iter=4 energy=-22574.895250485282 stress="-0.020218016473081864 -4.699188745934263e-13 4.0595919267537444e-14 -4.699188745934263e-13 -0.02040788582729094 -1.6645651817475982e-13 4.0595919267537444e-14 -1.6645651817475982e-13 -0.020338125617998033" free_energy=-22574.895250485282 pbc="T T T"
In       1.38253778       2.98502080       0.91137206        0       0.00539255       0.00538746       0.00122870
In       1.39682183       0.16515607       3.07324295        1      -0.00539255       0.00538746      -0.00122870
In       1.39682183       2.65470866       4.89598707        2      -0.00539255      -0.00538746       0.00122870
In       1.38253778       5.47457339       7.05785796        3       0.00539255      -0.00538746      -0.00122870
In       4.17618143       2.65470866       7.05785796        4      -0.00539255      -0.00538746      -0.00122870
In       4.16189739       5.47457339       4.89598707        5       0.00539255      -0.00538746       0.00122870
In       4.16189739       2.98502080       3.07324295        6       0.00539255       0.00538746      -0.00122870
In       4.17618143       0.16515607       0.91137206        7      -0.00539255       0.00538746       0.00122870
O        2.16769814       3.40602249       6.77043045        8      -0.01193426      -0.01235557      -0.01230455
O        0.61166146       0.58615776       5.18341458        9       0.01193426      -0.01235557       0.01230455
O        0.61166146       2.23370698       2.78581544       10       0.01193426       0.01235557      -0.01230455
O        2.16769814       5.05357171       1.19879957       11      -0.01193426       0.01235557       0.01230455
O        3.39102107       2.23370698       1.19879957       12       0.01193426       0.01235557       0.01230455
O        4.94705775       5.05357171       2.78581544       13      -0.01193426       0.01235557      -0.01230455
O        4.94705775       3.40602249       5.18341458       14      -0.01193426      -0.01235557       0.01230455
O        3.39102107       0.58615776       6.77043045       15       0.01193426      -0.01235557      -0.01230455
O        5.32910412       4.22979710      -0.00000000       16      -0.02351380      -0.00000000      -0.00000000
O        3.00897470       1.40993237       3.98461501       17       0.02351380      -0.00000000       0.00000000
O        0.22961509       1.40993237      -0.00000000       18       0.02351380       0.00000000       0.00000000
O        2.54974452       4.22979710       3.98461501       19      -0.02351380      -0.00000000      -0.00000000
20
Lattice="5.55627734064734 -8.44002643275884e-61 1.6082144636272917e-43 -2.4001358495739904e-60 5.640423201177348 4.5228076287405546e-17 -2.3252664453512843e-43 8.047868187248792e-17 7.971751747321171" Properties=species:S:1:pos:R:3:spacegroup_kinds:I:1:forces:R:3 spacegroup="P 1" unit_cell=conventional occupancy="_JSON {\"0\": {\"In\": 1}, \"1\": {\"In\": 1}, \"2\": {\"In\": 1}, \"3\": {\"In\": 1}, \"4\": {\"In\": 1}, \"5\": {\"In\": 1}, \"6\": {\"In\": 1}, \"7\": {\"In\": 1}, \"8\": {\"O\": 1}, \"9\": {\"O\": 1}, \"10\": {\"O\": 1}, \"11\": {\"O\": 1}, \"12\": {\"O\": 1}, \"13\": {\"O\": 1}, \"14\": {\"O\": 1}, \"15\": {\"O\": 1}, \"16\": {\"O\": 1}, \"17\": {\"O\": 1}, \"18\": {\"O\": 1}, \"19\": {\"O\": 1}}" n_minim_iter=5 energy=-22574.895627954782 stress="-0.020519116144769697 -2.6659076747266553e-13 -6.0472010569515e-13 -2.6659076747266553e-13 -0.02042666125581856 -1.8413243565724467e-13 -6.0472010569515e-13 -1.8413243565724467e-13 -0.020057314941541875" free_energy=-22574.895627954782 pbc="T T T"
In       1.38260380       2.98625857       0.91156467        0      -0.00178777       0.00368243      -0.00256297
In       1.39553487       0.16604697       3.07431120        1       0.00178777       0.00368243       0.00256297
In       1.39553487       2.65416463       4.89744055        2       0.00178777      -0.00368243      -0.00256297
In       1.38260380       5.47437623       7.06018708        3      -0.00178777      -0.00368243       0.00256297
In       4.17367354       2.65416463       7.06018708        4       0.00178777      -0.00368243       0.00256297
In       4.16074247       5.47437623       4.89744055        5      -0.00178777      -0.00368243      -0.00256297
In       4.16074247       2.98625857       3.07431120        6      -0.00178777       0.00368243       0.00256297
In       4.17367354       0.16604697       0.91156467        7       0.00178777       0.00368243      -0.00256297
O        2.16566454       3.40556630       6.77176351        8      -0.00734740      -0.00925321      -0.00399533
O        0.61247413       0.58535470       5.18586412        9       0.00734740      -0.00925321       0.00399533
O        0.61247413       2.23485690       2.78588763       10       0.00734740       0.00925321      -0.00399533
O        2.16566454       5.05506851       1.19998824       11      -0.00734740       0.00925321       0.00399533
O        3.39061280       2.23485690       1.19998824       12       0.00734740       0.00925321       0.00399533
O        4.94380321       5.05506851       2.78588763       13      -0.00734740       0.00925321      -0.00399533
O        4.94380321       3.40556630       5.18586412       14      -0.00734740      -0.00925321       0.00399533
O        3.39061280       0.58535470       6.77176351       15       0.00734740      -0.00925321      -0.00399533
O        5.32496606       4.23031740      -0.00000000       16      -0.01430915       0.00000000      -0.00000000
O        3.00944996       1.41010580       3.98587587       17       0.01430915       0.00000000       0.00000000
O        0.23131128       1.41010580      -0.00000000       18       0.01430915      -0.00000000      -0.00000000
O        2.54682739       4.23031740       3.98587587       19      -0.01430915      -0.00000000      -0.00000000
20
Lattice="5.556300022352917 -8.449457421612379e-61 1.3857139222353029e-43 -1.8484186206623254e-60 5.642053660343528 4.5214821554735754e-17 -1.3515690366871765e-43 8.050194558867744e-17 7.969415511801242" Properties=species:S:1:pos:R:3:spacegroup_kinds:I:1:forces:R:3 spacegroup="P 1" unit_cell=conventional occupancy="_JSON {\"0\": {\"In\": 1}, \"1\": {\"In\": 1}, \"2\": {\"In\": 1}, \"3\": {\"In\": 1}, \"4\": {\"In\": 1}, \"5\": {\"In\": 1}, \"6\": {\"In\": 1}, \"7\": {\"In\": 1}, \"8\": {\"O\": 1}, \"9\": {\"O\": 1}, \"10\": {\"O\": 1}, \"11\": {\"O\": 1}, \"12\": {\"O\": 1}, \"13\": {\"O\": 1}, \"14\": {\"O\": 1}, \"15\": {\"O\": 1}, \"16\": {\"O\": 1}, \"17\": {\"O\": 1}, \"18\": {\"O\": 1}, \"19\": {\"O\": 1}}" n_minim_iter=6 energy=-22574.89582318163 stress="-0.020218676515850468 1.5567700980718457e-14 5.987066421192931e-14 1.5567700980718457e-14 -0.02016924289366766 -9.686914713651402e-14 5.987066421192931e-14 -9.686914713651402e-14 -0.020081953883337673" free_energy=-22574.89582318163 pbc="T T T"
In       1.38341312       2.98825887       0.91104525        0      -0.00487283       0.00041851      -0.00558733
In       1.39473689       0.16723204       3.07366251        1       0.00487283       0.00041851       0.00558733
In       1.39473689       2.65379479       4.89575300        2       0.00487283      -0.00041851      -0.00558733
In       1.38341312       5.47482162       7.05837027        3      -0.00487283      -0.00041851       0.00558733
In       4.17288690       2.65379479       7.05837027        4       0.00487283      -0.00041851       0.00558733
In       4.16156313       5.47482162       4.89575300        5      -0.00487283      -0.00041851      -0.00558733
In       4.16156313       2.98825887       3.07366251        6      -0.00487283       0.00041851       0.00558733
In       4.17288690       0.16723204       0.91104525        7       0.00487283       0.00041851      -0.00558733
O        2.16440016       3.40547922       6.76898115        8       0.00108977      -0.00625926       0.00548462
O        0.61374985       0.58445239       5.18514211        9      -0.00108977      -0.00625926      -0.00548462
O        0.61374985       2.23657444       2.78427340       10      -0.00108977       0.00625926       0.00548462
O        2.16440016       5.05760127       1.20043436       11       0.00108977       0.00625926      -0.00548462
O        3.39189987       2.23657444       1.20043436       12      -0.00108977       0.00625926      -0.00548462
O        4.94255017       5.05760127       2.78427340       13       0.00108977       0.00625926       0.00548462
O        4.94255017       3.40547922       5.18514211       14       0.00108977      -0.00625926      -0.00548462
O        3.39189987       0.58445239       6.76898115       15      -0.00108977      -0.00625926       0.00548462
O        5.32288414       4.23154025      -0.00000000       16      -0.00455033      -0.00000000       0.00000000
O        3.01156589       1.41051342       3.98470776       17       0.00455033      -0.00000000       0.00000000
O        0.23341588       1.41051342      -0.00000000       18       0.00455033       0.00000000      -0.00000000
O        2.54473413       4.23154025       3.98470776       19      -0.00455033       0.00000000       0.00000000
