20
Lattice="5.683510404327613 -2.7234769245038643e-59 1.2855395845458824e-43 2.814907768832383e-60 6.022128670610688 1.1513665459700146e-15 -1.2700128752403422e-43 -1.0735021165440968e-15 5.614865132767048" Properties=species:S:1:pos:R:3:spacegroup_kinds:I:1:forces:R:3 spacegroup="P 1" unit_cell=conventional occupancy="_JSON {\"0\": {\"In\": 1}, \"1\": {\"In\": 1}, \"2\": {\"In\": 1}, \"3\": {\"In\": 1}, \"4\": {\"In\": 1}, \"5\": {\"In\": 1}, \"6\": {\"In\": 1}, \"7\": {\"In\": 1}, \"8\": {\"O\": 1}, \"9\": {\"O\": 1}, \"10\": {\"O\": 1}, \"11\": {\"O\": 1}, \"12\": {\"O\": 1}, \"13\": {\"O\": 1}, \"14\": {\"O\": 1}, \"15\": {\"O\": 1}, \"16\": {\"O\": 1}, \"17\": {\"O\": 1}, \"18\": {\"O\": 1}, \"19\": {\"O\": 1}}" n_minim_iter=1 energy=-22578.62835484498 stress="-0.1125454449877539 2.3827765178006277e-13 3.5300152162760275e-13 2.3827765178006277e-13 -0.13274735962743028 3.605394786183281e-13 3.5300152162760275e-13 3.605394786183281e-13 -0.11403028858430717" free_energy=-22578.62835484498 pbc="T T T"
In       1.51855939       3.33590905       0.63642592        0      -0.05480203       0.00317671       0.11630431
In       1.32319581       0.32484472       2.17100665        1       0.05480203       0.00317671      -0.11630431
In       1.32319581       2.68621962       3.44385848        2       0.05480203      -0.00317671       0.11630431
In       1.51855939       5.69728395       4.97843921        3      -0.05480203      -0.00317671      -0.11630431
In       4.16495101       2.68621962       4.97843921        4       0.05480203      -0.00317671      -0.11630431
In       4.36031460       5.69728395       3.44385848        5      -0.05480203      -0.00317671       0.11630431
In       4.36031460       3.33590905       2.17100665        6      -0.05480203       0.00317671      -0.11630431
In       4.16495101       0.32484472       0.63642592        7       0.05480203       0.00317671       0.11630431
O        2.74309854       4.03438251       4.29023803        8      -0.06037004       0.11060063       0.37809253
O        0.09865666       1.02331818       4.13205966        9       0.06037004       0.11060063      -0.37809253
O        0.09865666       1.98774616       1.48280547       10       0.06037004      -0.11060063       0.37809253
O        2.74309854       4.99881050       1.32462710       11      -0.06037004      -0.11060063      -0.37809253
O        2.94041186       1.98774616       1.32462710       12       0.06037004      -0.11060063      -0.37809253
O        5.58485374       4.99881050       1.48280547       13      -0.06037004      -0.11060063       0.37809253
O        5.58485374       4.03438251       4.13205966       14      -0.06037004       0.11060063      -0.37809253
O        2.94041186       1.02331818       4.29023803       15       0.06037004       0.11060063       0.37809253
O        5.33589181       4.51659650       0.00000000       16       0.19441626       0.00000000      -0.00000000
O        3.18937380       1.50553217       2.80743257       17      -0.19441626       0.00000000      -0.00000000
O        0.34761860       1.50553217       0.00000000       18      -0.19441626      -0.00000000      -0.00000000
O        2.49413660       4.51659650       2.80743257       19       0.19441626      -0.00000000       0.00000000
20
Lattice="5.667261132938683 -2.98204116405006e-59 1.3723719120381353e-43 4.1258616209749725e-60 6.053150822336281 1.0672122646895038e-15 -1.2774074487139599e-43 -1.1511141807379953e-15 5.60210571109306" Properties=species:S:1:pos:R:3:spacegroup_kinds:I:1:forces:R:3 spacegroup="P 1" unit_cell=conventional occupancy="_JSON {\"0\": {\"In\": 1}, \"1\": {\"In\": 1}, \"2\": {\"In\": 1}, \"3\": {\"In\": 1}, \"4\": {\"In\": 1}, \"5\": {\"In\": 1}, \"6\": {\"In\": 1}, \"7\": {\"In\": 1}, \"8\": {\"O\": 1}, \"9\": {\"O\": 1}, \"10\": {\"O\": 1}, \"11\": {\"O\": 1}, \"12\": {\"O\": 1}, \"13\": {\"O\": 1}, \"14\": {\"O\": 1}, \"15\": {\"O\": 1}, \"16\": {\"O\": 1}, \"17\": {\"O\": 1}, \"18\": {\"O\": 1}, \"19\": {\"O\": 1}}" n_minim_iter=2 energy=-22578.639759335445 stress="-0.11749839539191466 -3.714732571879892e-13 -1.3661411906422275e-13 -3.714732571879892e-13 -0.1136646927873043 4.324137514704408e-13 -1.3661411906422275e-13 4.324137514704408e-13 -0.11524451067188916" free_energy=-22578.639759335445 pbc="T T T"
In       1.51410518       3.35310010       0.63521883        0      -0.04220441       0.06091692       0.08323607
In       1.31952538       0.32652469       2.16583403        1       0.04220441       0.06091692      -0.08323607
In       1.31952538       2.70005072       3.43627168        2       0.04220441      -0.06091692       0.08323607
In       1.51410518       5.72662613       4.96688688        3      -0.04220441      -0.06091692      -0.08323607
In       4.15315595       2.70005072       4.96688688        4       0.04220441      -0.06091692      -0.08323607
In       4.34773575       5.72662613       3.43627168        5      -0.04220441      -0.06091692       0.08323607
In       4.34773575       3.35310010       2.16583403        6      -0.04220441       0.06091692      -0.08323607
In       4.15315595       0.32652469       0.63521883        7       0.04220441       0.06091692       0.08323607
O        2.73513190       4.05539418       4.28126619        8      -0.08771554       0.05642043       0.40386561
O        0.09849866       1.02881877       4.12189238        9       0.08771554       0.05642043      -0.40386561
O        0.09849866       1.99775664       1.48021333       10       0.08771554      -0.05642043       0.40386562
O        2.73513190       5.02433205       1.32083952       11      -0.08771554      -0.05642043      -0.40386562
O        2.93212923       1.99775664       1.32083952       12       0.08771554      -0.05642043      -0.40386562
O        5.56876247       5.02433205       1.48021333       13      -0.08771554      -0.05642043       0.40386562
O        5.56876247       4.05539418       4.12189238       14      -0.08771554       0.05642043      -0.40386562
O        2.93212923       1.02881877       4.28126619       15       0.08771554       0.05642043       0.40386562
O        5.32103591       4.53986312       0.00000000       16       0.20010656      -0.00000000       0.00000000
O        3.17985579       1.51328771       2.80105286       17      -0.20010656      -0.00000000      -0.00000000
O        0.34622522       1.51328771       0.00000000       18      -0.20010656       0.00000000       0.00000000
O        2.48740535       4.53986312       2.80105286       19       0.20010656       0.00000000       0.00000000
20
Lattice="5.699497389563387 -3.0015392045310056e-59 1.3895834604452388e-43 4.0577545556847435e-60 6.065464019778268 1.0795758093262067e-15 -1.2658671194999827e-43 -1.13434285428878e-15 5.559112066324017" Properties=species:S:1:pos:R:3:spacegroup_kinds:I:1:forces:R:3 spacegroup="P 1" unit_cell=conventional occupancy="_JSON {\"0\": {\"In\": 1}, \"1\": {\"In\": 1}, \"2\": {\"In\": 1}, \"3\": {\"In\": 1}, \"4\": {\"In\": 1}, \"5\": {\"In\": 1}, \"6\": {\"In\": 1}, \"7\": {\"In\": 1}, \"8\": {\"O\": 1}, \"9\": {\"O\": 1}, \"10\": {\"O\": 1}, \"11\": {\"O\": 1}, \"12\": {\"O\": 1}, \"13\": {\"O\": 1}, \"14\": {\"O\": 1}, \"15\": {\"O\": 1}, \"16\": {\"O\": 1}, \"17\": {\"O\": 1}, \"18\": {\"O\": 1}, \"19\": {\"O\": 1}}" n_minim_iter=3 energy=-22578.672263097284 stress="-0.09340243434861384 8.194667642240817e-13 -1.0765215376371872e-12 8.194667642240817e-13 -0.10171413088439266 3.0185068652864244e-13 -1.0765215376371872e-12 3.0185068652864244e-13 -0.11553969648251343" free_energy=-22578.672263097284 pbc="T T T"
In       1.52094878       3.36207198       0.63383554        0      -0.10871520      -0.09968032       0.09179014
In       1.32879991       0.32933997       2.14572050        1       0.10871520      -0.09968032      -0.09179014
In       1.32879991       2.70339204       3.41339157        2       0.10871520       0.09968032       0.09179014
In       1.52094878       5.73612405       4.92527653        3      -0.10871520       0.09968032      -0.09179014
In       4.17854861       2.70339204       4.92527653        4       0.10871520       0.09968032      -0.09179014
In       4.37069748       5.73612405       3.41339157        5      -0.10871520       0.09968032       0.09179014
In       4.37069748       3.36207198       2.14572050        6      -0.10871520      -0.09968032      -0.09179014
In       4.17854861       0.32933997       0.63383554        7       0.10871520      -0.09968032       0.09179014
O        2.74731544       4.06624593       4.26431412        8      -0.01386313      -0.13031853       0.19924093
O        0.10243326       1.03351392       4.07435398        9       0.01386313      -0.13031853      -0.19924093
O        0.10243326       1.99921809       1.48475809       10       0.01386313       0.13031853       0.19924093
O        2.74731544       5.03195010       1.29479795       11      -0.01386313       0.13031853      -0.19924093
O        2.95218195       1.99921809       1.29479795       12       0.01386313       0.13031853      -0.19924093
O        5.59706413       5.03195010       1.48475809       13      -0.01386313       0.13031853       0.19924093
O        5.59706413       4.06624593       4.07435398       14      -0.01386312      -0.13031853      -0.19924093
O        2.95218195       1.03351392       4.26431412       15       0.01386313      -0.13031853       0.19924093
O        5.35932053       4.54909801       0.00000000       16       0.06108052      -0.00000000       0.00000000
O        3.18992556       1.51636600       2.77955603       17      -0.06108052      -0.00000000      -0.00000000
O        0.34017686       1.51636600       0.00000000       18      -0.06108052       0.00000000       0.00000000
O        2.50957183       4.54909801       2.77955603       19       0.06108052      -0.00000000       0.00000000
20
Lattice="5.677696863971084 -2.248425228684818e-59 8.354141129005615e-44 1.3300052034974206e-59 6.06406448115691 1.05901678445802e-15 -1.111884069814722e-43 -1.1572824558750892e-15 5.581745190383252" Properties=species:S:1:pos:R:3:spacegroup_kinds:I:1:forces:R:3 spacegroup="P 1" unit_cell=conventional occupancy="_JSON {\"0\": {\"In\": 1}, \"1\": {\"In\": 1}, \"2\": {\"In\": 1}, \"3\": {\"In\": 1}, \"4\": {\"In\": 1}, \"5\": {\"In\": 1}, \"6\": {\"In\": 1}, \"7\": {\"In\": 1}, \"8\": {\"O\": 1}, \"9\": {\"O\": 1}, \"10\": {\"O\": 1}, \"11\": {\"O\": 1}, \"12\": {\"O\": 1}, \"13\": {\"O\": 1}, \"14\": {\"O\": 1}, \"15\": {\"O\": 1}, \"16\": {\"O\": 1}, \"17\": {\"O\": 1}, \"18\": {\"O\": 1}, \"19\": {\"O\": 1}}" n_minim_iter=4 energy=-22578.688155134274 stress="-0.09890683130741242 1.0084962849552858e-13 3.949607282279257e-13 1.0084962849552858e-13 -0.09816703938347933 -5.186936126634172e-13 3.949607282279257e-13 -5.186936126634172e-13 -0.09802247416645654" free_energy=-22578.688155134274 pbc="T T T"
In       1.51393683       3.36197278       0.63837054        0      -0.20433287      -0.15130572       0.05449591
In       1.32491160       0.32994054       2.15250206        1       0.20433287      -0.15130572      -0.05449591
In       1.32491160       2.70209170       3.42924313        2       0.20433287       0.15130572       0.05449591
In       1.51393683       5.73412394       4.94337466        3      -0.20433287       0.15130572      -0.05449591
In       4.16376003       2.70209170       4.94337466        4       0.20433287       0.15130572      -0.05449591
In       4.35278526       5.73412394       3.42924313        5      -0.20433287       0.15130572       0.05449591
In       4.35278526       3.36197278       2.15250206        6      -0.20433287      -0.15130572      -0.05449591
In       4.16376003       0.32994054       0.63837054        7       0.20433287      -0.15130572       0.05449591
O        2.73517575       4.06609284       4.28985942        8      -0.04030735      -0.10325152      -0.04644877
O        0.10367268       1.03406060       4.08275836        9       0.04030735      -0.10325152       0.04644877
O        0.10367268       1.99797164       1.49898683       10       0.04030735       0.10325152      -0.04644877
O        2.73517575       5.03000388       1.29188577       11      -0.04030735       0.10325152       0.04644877
O        2.94252111       1.99797164       1.29188577       12       0.04030735       0.10325152       0.04644877
O        5.57402419       5.03000388       1.49898683       13      -0.04030735       0.10325152      -0.04644877
O        5.57402419       4.06609284       4.08275836       14      -0.04030735      -0.10325152       0.04644877
O        2.94252111       1.03406060       4.28985942       15       0.04030735      -0.10325152      -0.04644877
O        5.34279106       4.54804836       0.00000000       16       0.11780708       0.00000000      -0.00000000
O        3.17375423       1.51601612       2.79087260       17      -0.11780708      -0.00000000      -0.00000000
O        0.33490580       1.51601612       0.00000000       18      -0.11780708      -0.00000000       0.00000000
O        2.50394263       4.54804836       2.79087260       19       0.11780708      -0.00000000       0.00000000
20
Lattice="5.679350159392278 -2.1748431876764926e-59 6.763878187347466e-44 1.0304221864827965e-59 6.062100581578759 1.061646270260658e-15 -1.3482533242254998e-43 -1.1544898619008197e-15 5.581928063938901" Properties=species:S:1:pos:R:3:spacegroup_kinds:I:1:forces:R:3 spacegroup="P 1" unit_cell=conventional occupancy="_JSON {\"0\": {\"In\": 1}, \"1\": {\"In\": 1}, \"2\": {\"In\": 1}, \"3\": {\"In\": 1}, \"4\": {\"In\": 1}, \"5\": {\"In\": 1}, \"6\": {\"In\": 1}, \"7\": {\"In\": 1}, \"8\": {\"O\": 1}, \"9\": {\"O\": 1}, \"10\": {\"O\": 1}, \"11\": {\"O\": 1}, \"12\": {\"O\": 1}, \"13\": {\"O\": 1}, \"14\": {\"O\": 1}, \"15\": {\"O\": 1}, \"16\": {\"O\": 1}, \"17\": {\"O\": 1}, \"18\": {\"O\": 1}, \"19\": {\"O\": 1}}" n_minim_iter=5 energy=-22578.701266953958 stress="-0.09476981175968445 -2.5119171613742707e-13 1.2349980717086928e-12 -2.5119171613742707e-13 -0.09482467692069275 -1.3943761446757142e-12 1.2349980717086928e-12 -1.3943761446757142e-12 -0.09493506247656072" free_energy=-22578.701266953958 pbc="T T T"
In       1.50610307       3.35589503       0.64187922        0      -0.04477264       0.07809560      -0.01120390
In       1.33357201       0.32484474       2.14908481        1       0.04477264       0.07809560       0.01120390
In       1.33357201       2.70620555       3.43284325        2       0.04477264      -0.07809560      -0.01120390
In       1.50610307       5.73725584       4.94004884        3      -0.04477264      -0.07809560       0.01120390
In       4.17324709       2.70620555       4.94004884        4       0.04477264      -0.07809560       0.01120390
In       4.34577815       5.73725584       3.43284325        5      -0.04477264      -0.07809560      -0.01120390
In       4.34577815       3.35589503       2.14908481        6      -0.04477264       0.07809560       0.01120390
In       4.17324709       0.32484474       0.64187922        7       0.04477264       0.07809560      -0.01120390
O        2.73324284       4.06167753       4.29480130        8       0.01370780       0.01134016      -0.01524735
O        0.10643224       1.03062724       4.07809079        9      -0.01370780       0.01134016       0.01524735
O        0.10643224       2.00042305       1.50383727       10      -0.01370780      -0.01134016      -0.01524735
O        2.73324284       5.03147334       1.28712676       11       0.01370780      -0.01134016       0.01524735
O        2.94610732       2.00042305       1.28712676       12      -0.01370780      -0.01134016       0.01524735
O        5.57291792       5.03147334       1.50383727       13       0.01370780      -0.01134016      -0.01524735
O        5.57291792       4.06167753       4.07809079       14       0.01370780       0.01134016       0.01524735
O        2.94610732       1.03062724       4.29480130       15      -0.01370780       0.01134016      -0.01524735
O        5.35171782       4.54657544       0.00000000       16       0.05328397       0.00000000       0.00000000
O        3.16730742       1.51552515       2.79096403       17      -0.05328397      -0.00000000       0.00000000
O        0.32763234       1.51552515       0.00000000       18      -0.05328397      -0.00000000      -0.00000000
O        2.51204274       4.54657544       2.79096403       19       0.05328397      -0.00000000      -0.00000000
20
Lattice="5.676987147268983 -2.6661255639961215e-59 6.757734822672976e-44 3.757208150021037e-59 6.062778493022183 1.0359256025010145e-15 5.451476551709675e-44 -1.178899284841348e-15 5.583627103483016" Properties=species:S:1:pos:R:3:spacegroup_kinds:I:1:forces:R:3 spacegroup="P 1" unit_cell=conventional occupancy="_JSON {\"0\": {\"In\": 1}, \"1\": {\"In\": 1}, \"2\": {\"In\": 1}, \"3\": {\"In\": 1}, \"4\": {\"In\": 1}, \"5\": {\"In\": 1}, \"6\": {\"In\": 1}, \"7\": {\"In\": 1}, \"8\": {\"O\": 1}, \"9\": {\"O\": 1}, \"10\": {\"O\": 1}, \"11\": {\"O\": 1}, \"12\": {\"O\": 1}, \"13\": {\"O\": 1}, \"14\": {\"O\": 1}, \"15\": {\"O\": 1}, \"16\": {\"O\": 1}, \"17\": {\"O\": 1}, \"18\": {\"O\": 1}, \"19\": {\"O\": 1}}" n_minim_iter=6 energy=-22578.70254166896 stress="-0.09392352127411319 -6.861555979480989e-14 6.23498053322449e-13 -6.861555979480989e-14 -0.09386613593120549 -3.453771000654593e-13 6.23498053322449e-13 -3.453771000654593e-13 -0.09385844064602847" free_energy=-22578.70254166896 pbc="T T T"
In       1.50315204       3.35820861       0.64223777        0      -0.00037900      -0.00652668       0.00649040
In       1.33534154       0.32681936       2.14957578        1       0.00037900      -0.00652668      -0.00649040
In       1.33534154       2.70456989       3.43405132        2       0.00037900       0.00652668       0.00649040
In       1.50315204       5.73595913       4.94138933        3      -0.00037900       0.00652668      -0.00649040
In       4.17383511       2.70456989       4.94138933        4       0.00037900       0.00652668      -0.00649040
In       4.34164561       5.73595913       3.43405132        5      -0.00037900       0.00652668       0.00649040
In       4.34164561       3.35820861       2.14957578        6      -0.00037900      -0.00652668      -0.00649040
In       4.17383511       0.32681936       0.64223777        7       0.00037900      -0.00652668       0.00649040
O        2.73211670       4.06223197       4.29670861        8       0.04070567      -0.01002532      -0.00235923
O        0.10637688       1.03084273       4.07873205        9      -0.04070567      -0.01002532       0.00235923
O        0.10637688       2.00054652       1.50489506       10      -0.04070567       0.01002532      -0.00235923
O        2.73211670       5.03193576       1.28691849       11       0.04070567       0.01002532       0.00235923
O        2.94487045       2.00054652       1.28691849       12      -0.04070567       0.01002532       0.00235923
O        5.57061027       5.03193576       1.50489506       13       0.04070567       0.01002532      -0.00235923
O        5.57061027       4.06223197       4.07873205       14       0.04070567      -0.01002532       0.00235923
O        2.94487045       1.03084273       4.29670861       15      -0.04070567      -0.01002532      -0.00235923
O        5.35218149       4.54708387       0.00000000       16       0.00956577      -0.00000000      -0.00000000
O        3.16329923       1.51569462       2.79181355       17      -0.00956577      -0.00000000      -0.00000000
O        0.32480566       1.51569462       0.00000000       18      -0.00956577      -0.00000000       0.00000000
O        2.51368792       4.54708387       2.79181355       19       0.00956577      -0.00000000      -0.00000000
20
Lattice="5.6774112731039335 -3.3077608942582795e-59 9.951894915875626e-44 3.7622658110007917e-59 6.061750453977208 1.0457615607456317e-15 5.450709248904665e-44 -1.169616986974012e-15 5.584156864961046" Properties=species:S:1:pos:R:3:spacegroup_kinds:I:1:forces:R:3 spacegroup="P 1" unit_cell=conventional occupancy="_JSON {\"0\": {\"In\": 1}, \"1\": {\"In\": 1}, \"2\": {\"In\": 1}, \"3\": {\"In\": 1}, \"4\": {\"In\": 1}, \"5\": {\"In\": 1}, \"6\": {\"In\": 1}, \"7\": {\"In\": 1}, \"8\": {\"O\": 1}, \"9\": {\"O\": 1}, \"10\": {\"O\": 1}, \"11\": {\"O\": 1}, \"12\": {\"O\": 1}, \"13\": {\"O\": 1}, \"14\": {\"O\": 1}, \"15\": {\"O\": 1}, \"16\": {\"O\": 1}, \"17\": {\"O\": 1}, \"18\": {\"O\": 1}, \"19\": {\"O\": 1}}" n_minim_iter=7 energy=-22578.70296948658 stress="-0.09473989809650443 5.399817946552848e-13 4.047694627760419e-13 5.399817946552848e-13 -0.09471747023983965 7.285659810134276e-13 4.047694627760419e-13 7.285659810134276e-13 -0.09462470580511488" free_energy=-22578.70296948658 pbc="T T T"
In       1.50278902       3.35794196       0.64237256        0       0.00528444      -0.00019967       0.01002314
In       1.33591662       0.32706674       2.14970587        1      -0.00528444      -0.00019967      -0.01002314
In       1.33591662       2.70380849       3.43445100        2      -0.00528444       0.00019967       0.01002314
In       1.50278902       5.73468372       4.94178430        3       0.00528444       0.00019967      -0.01002314
In       4.17462225       2.70380849       4.94178430        4      -0.00528444       0.00019967      -0.01002314
In       4.34149466       5.73468372       3.43445100        5       0.00528444       0.00019967       0.01002314
In       4.34149466       3.35794196       2.14970587        6       0.00528444      -0.00019967      -0.01002314
In       4.17462225       0.32706674       0.64237256        7      -0.00528444      -0.00019967       0.01002314
O        2.73469589       4.06097989       4.29606483        8       0.01003600       0.01259923       0.01464288
O        0.10400974       1.03010466       4.08017047        9      -0.01003600       0.01259923      -0.01464288
O        0.10400974       2.00077057       1.50398640       10      -0.01003600      -0.01259923       0.01464288
O        2.73469589       5.03164579       1.28809203       11       0.01003600      -0.01259923      -0.01464288
O        2.94271538       2.00077057       1.28809203       12      -0.01003600      -0.01259923      -0.01464288
O        5.57340153       5.03164579       1.50398640       13       0.01003600      -0.01259923       0.01464288
O        5.57340153       4.06097989       4.08017047       14       0.01003600       0.01259923      -0.01464288
O        2.94271538       1.03010466       4.29606483       15      -0.01003600       0.01259923       0.01464288
O        5.35329020       4.54631284       0.00000000       16       0.00190932      -0.00000000      -0.00000000
O        3.16282671       1.51543761       2.79207843       17      -0.00190932       0.00000000       0.00000000
O        0.32412107       1.51543761       0.00000000       18      -0.00190932       0.00000000      -0.00000000
O        2.51458457       4.54631284       2.79207843       19       0.00190932       0.00000000       0.00000000
20
Lattice="5.67795551329248 -3.661490204562604e-59 1.1545948824289735e-43 3.763932458478888e-59 6.061918105341251 1.031611447943556e-15 5.449299440209259e-44 -1.1827251338937006e-15 5.583467192144609" Properties=species:S:1:pos:R:3:spacegroup_kinds:I:1:forces:R:3 spacegroup="P 1" unit_cell=conventional occupancy="_JSON {\"0\": {\"In\": 1}, \"1\": {\"In\": 1}, \"2\": {\"In\": 1}, \"3\": {\"In\": 1}, \"4\": {\"In\": 1}, \"5\": {\"In\": 1}, \"6\": {\"In\": 1}, \"7\": {\"In\": 1}, \"8\": {\"O\": 1}, \"9\": {\"O\": 1}, \"10\": {\"O\": 1}, \"11\": {\"O\": 1}, \"12\": {\"O\": 1}, \"13\": {\"O\": 1}, \"14\": {\"O\": 1}, \"15\": {\"O\": 1}, \"16\": {\"O\": 1}, \"17\": {\"O\": 1}, \"18\": {\"O\": 1}, \"19\": {\"O\": 1}}" n_minim_iter=8 energy=-22578.703069195646 stress="-0.0942324010075975 4.4943439803127056e-13 -3.2604393600411767e-13 4.4943439803127056e-13 -0.09423396832274306 1.2637010054582445e-13 -3.2604393600411767e-13 1.2637010054582445e-13 -0.09426048716750147" free_energy=-22578.703069195646 pbc="T T T"
In       1.50275029       3.35808192       0.64261708        0      -0.00037132      -0.00158049       0.00807695
In       1.33622747       0.32712287       2.14911652        1       0.00037132      -0.00158049      -0.00807695
In       1.33622747       2.70383618       3.43435067        2       0.00037132       0.00158049       0.00807695
In       1.50275029       5.73479524       4.94085012        3      -0.00037132       0.00158049      -0.00807695
In       4.17520522       2.70383618       4.94085012        4       0.00037132       0.00158049      -0.00807695
In       4.34172805       5.73479524       3.43435067        5      -0.00037132       0.00158049       0.00807695
In       4.34172805       3.35808192       2.14911652        6      -0.00037132      -0.00158049      -0.00807695
In       4.17520522       0.32712287       0.64261708        7       0.00037132      -0.00158049       0.00807695
O        2.73535455       4.06120934       4.29617361        8       0.00409338       0.01143726       0.00296846
O        0.10362320       1.03025029       4.07902718        9      -0.00409338       0.01143726      -0.00296846
O        0.10362320       2.00070876       1.50444001       10      -0.00409338      -0.01143726       0.00296846
O        2.73535455       5.03166781       1.28729359       11       0.00409338      -0.01143726      -0.00296846
O        2.94260096       2.00070876       1.28729359       12      -0.00409338      -0.01143726      -0.00296846
O        5.57433231       5.03166781       1.50444001       13       0.00409338      -0.01143726       0.00296846
O        5.57433231       4.06120934       4.07902718       14       0.00409338       0.01143726      -0.00296846
O        2.94260096       1.03025029       4.29617361       15      -0.00409338       0.01143726       0.00296846
O        5.35431540       4.54643858       0.00000000       16      -0.00141176       0.00000000      -0.00000000
O        3.16261787       1.51547953       2.79173360       17       0.00141176      -0.00000000       0.00000000
O        0.32364011       1.51547953       0.00000000       18       0.00141176      -0.00000000      -0.00000000
O        2.51533765       4.54643858       2.79173360       19      -0.00141176      -0.00000000      -0.00000000
20
Lattice="5.678235602774903 -3.644948323234341e-59 1.154458516506641e-43 3.768399117427241e-59 6.061740845527195 1.0385112877646865e-15 5.448451856221973e-44 -1.176237870470136e-15 5.583355043183136" Properties=species:S:1:pos:R:3:spacegroup_kinds:I:1:forces:R:3 spacegroup="P 1" unit_cell=conventional occupancy="_JSON {\"0\": {\"In\": 1}, \"1\": {\"In\": 1}, \"2\": {\"In\": 1}, \"3\": {\"In\": 1}, \"4\": {\"In\": 1}, \"5\": {\"In\": 1}, \"6\": {\"In\": 1}, \"7\": {\"In\": 1}, \"8\": {\"O\": 1}, \"9\": {\"O\": 1}, \"10\": {\"O\": 1}, \"11\": {\"O\": 1}, \"12\": {\"O\": 1}, \"13\": {\"O\": 1}, \"14\": {\"O\": 1}, \"15\": {\"O\": 1}, \"16\": {\"O\": 1}, \"17\": {\"O\": 1}, \"18\": {\"O\": 1}, \"19\": {\"O\": 1}}" n_minim_iter=9 energy=-22578.703113488697 stress="-0.09395531759653727 3.6540815477650754e-13 -6.111604738256497e-13 3.6540815477650754e-13 -0.09393437039939723 -1.102167312069473e-12 -6.111604738256497e-13 -1.102167312069473e-12 -0.09398536118245839" free_energy=-22578.703113488697 pbc="T T T"
In       1.50263486       3.35798733       0.64294652        0      -0.00357609      -0.00219674       0.00571247
In       1.33648294       0.32711691       2.14873101        1       0.00357609      -0.00219674      -0.00571247
In       1.33648294       2.70375351       3.43462404        2       0.00357609       0.00219674       0.00571247
In       1.50263486       5.73462394       4.94040853        3      -0.00357609       0.00219674      -0.00571247
In       4.17560074       2.70375351       4.94040853        4       0.00357609       0.00219674      -0.00571247
In       4.34175266       5.73462394       3.43462404        5      -0.00357609       0.00219674       0.00571247
In       4.34175266       3.35798733       2.14873101        6      -0.00357609      -0.00219674      -0.00571247
In       4.17560074       0.32711691       0.64294652        7       0.00357609      -0.00219674       0.00571247
O        2.73584730       4.06134187       4.29646191        8       0.00008563       0.00975503      -0.00437004
O        0.10327051       1.03047145       4.07857066        9      -0.00008563       0.00975503       0.00437004
O        0.10327051       2.00039898       1.50478439       10      -0.00008563      -0.00975503      -0.00437004
O        2.73584730       5.03126940       1.28689314       11       0.00008563      -0.00975503       0.00437004
O        2.94238831       2.00039898       1.28689314       12      -0.00008563      -0.00975503       0.00437004
O        5.57496510       5.03126940       1.50478439       13       0.00008563      -0.00975503      -0.00437004
O        5.57496510       4.06134187       4.07857066       14       0.00008563       0.00975503       0.00437004
O        2.94238831       1.03047145       4.29646191       15      -0.00008563       0.00975503      -0.00437004
O        5.35491005       4.54630563       0.00000000       16      -0.00259276       0.00000000       0.00000000
O        3.16244336       1.51543521       2.79167752       17       0.00259276       0.00000000       0.00000000
O        0.32332556       1.51543521       0.00000000       18       0.00259276       0.00000000       0.00000000
O        2.51579225       4.54630563       2.79167752       19      -0.00259276      -0.00000000      -0.00000000
20