20
Lattice="5.763652888011794 -1.9813022561669056e-62 -1.597907295395259e-43 4.4641577913901645e-62 5.8431190097888175 2.0318123671348936e-18 1.3097791406343566e-43 -2.042099649032683e-18 8.369410914801838" Properties=species:S:1:pos:R:3:spacegroup_kinds:I:1:forces:R:3 spacegroup="P 1" unit_cell=conventional occupancy="_JSON {\"0\": {\"In\": 1}, \"1\": {\"In\": 1}, \"2\": {\"In\": 1}, \"3\": {\"In\": 1}, \"4\": {\"In\": 1}, \"5\": {\"In\": 1}, \"6\": {\"In\": 1}, \"7\": {\"In\": 1}, \"8\": {\"O\": 1}, \"9\": {\"O\": 1}, \"10\": {\"O\": 1}, \"11\": {\"O\": 1}, \"12\": {\"O\": 1}, \"13\": {\"O\": 1}, \"14\": {\"O\": 1}, \"15\": {\"O\": 1}, \"16\": {\"O\": 1}, \"17\": {\"O\": 1}, \"18\": {\"O\": 1}, \"19\": {\"O\": 1}}" n_minim_iter=7 energy=-22574.424278739123 stress="0.052198834332831 -6.059156214239164e-13 3.717561274537031e-13 -6.059156214239164e-13 0.05218686425943352 -1.9660853501317612e-13 3.717561274537031e-13 -1.9660853501317612e-13 0.052200976209444264" free_energy=-22574.424278739123 pbc="T T T"
In       1.41923822       3.08055200       0.97179686        0       0.00067663       0.00014108       0.00015644
In       1.46258823       0.15899249       3.21290859        1      -0.00067663       0.00014108      -0.00015644
In       1.46258823       2.76256701       5.15650232        2      -0.00067663      -0.00014108       0.00015644
In       1.41923822       5.68412652       7.39761405        3       0.00067663      -0.00014108      -0.00015644
In       4.34441467       2.76256701       7.39761405        4      -0.00067663      -0.00014108      -0.00015644
In       4.30106466       5.68412652       5.15650232        5       0.00067663      -0.00014108       0.00015644
In       4.30106466       3.08055200       3.21290859        6       0.00067663       0.00014108      -0.00015644
In       4.34441467       0.15899249       0.97179686        7      -0.00067663       0.00014108       0.00015644
O        2.25402968       3.51178067       7.10950888        8       0.00082791      -0.00121958      -0.00140616
O        0.62779676       0.59022116       5.44460749        9      -0.00082791      -0.00121958       0.00140616
O        0.62779676       2.33133834       2.92480343       10      -0.00082791       0.00121958      -0.00140616
O        2.25402968       5.25289785       1.25990203       11       0.00082791       0.00121958       0.00140616
O        3.50962321       2.33133834       1.25990203       12      -0.00082791       0.00121958       0.00140616
O        5.13585612       5.25289785       2.92480343       13       0.00082791       0.00121958      -0.00140616
O        5.13585612       3.51178067       5.44460749       14       0.00082791      -0.00121958       0.00140616
O        3.50962321       0.59022116       7.10950888       15      -0.00082791      -0.00121958      -0.00140616
O        5.50966841       4.38233926      -0.00000000       16       0.00213000      -0.00000000       0.00000000
O        3.13581092       1.46077975       4.18470546       17      -0.00213000      -0.00000000      -0.00000000
O        0.25398448       1.46077975      -0.00000000       18      -0.00213000       0.00000000       0.00000000
O        2.62784197       4.38233926       4.18470546       19       0.00213000      -0.00000000      -0.00000000
