20
Lattice="5.371455946570288 -2.016683415212523e-59 3.713386530934169e-45 5.759035819310314e-59 5.484534811192429 -9.474632953553982e-18 1.35225824699217e-43 5.925531924519651e-18 7.610636734798481" Properties=species:S:1:pos:R:3:spacegroup_kinds:I:1:forces:R:3 spacegroup="P 1" unit_cell=conventional occupancy="_JSON {\"0\": {\"In\": 1}, \"1\": {\"In\": 1}, \"2\": {\"In\": 1}, \"3\": {\"In\": 1}, \"4\": {\"In\": 1}, \"5\": {\"In\": 1}, \"6\": {\"In\": 1}, \"7\": {\"In\": 1}, \"8\": {\"O\": 1}, \"9\": {\"O\": 1}, \"10\": {\"O\": 1}, \"11\": {\"O\": 1}, \"12\": {\"O\": 1}, \"13\": {\"O\": 1}, \"14\": {\"O\": 1}, \"15\": {\"O\": 1}, \"16\": {\"O\": 1}, \"17\": {\"O\": 1}, \"18\": {\"O\": 1}, \"19\": {\"O\": 1}}" n_minim_iter=9 energy=-22573.814001283466 stress="-0.09937897409197982 -1.0971201148139927e-12 5.413230042787387e-13 -1.0971201148139927e-12 -0.09929408959039758 8.373768155334e-13 5.413230042787387e-13 8.373768155334e-13 -0.09933411715565311" free_energy=-22573.814001283466 pbc="T T T"
In       1.34141925       2.92781547       0.89335273        0      -0.00349446      -0.00086763      -0.00298322
In       1.34430872       0.18554807       2.91196563        1       0.00349446      -0.00086763       0.00298322
In       1.34430872       2.55671934       4.69867110        2       0.00349446       0.00086763      -0.00298322
In       1.34141925       5.29898674       6.71728400        3      -0.00349446       0.00086763       0.00298322
In       4.03003669       2.55671934       6.71728400        4       0.00349446       0.00086763       0.00298322
In       4.02714723       5.29898674       4.69867110        5      -0.00349446       0.00086763      -0.00298322
In       4.02714723       2.92781547       2.91196563        6      -0.00349446      -0.00086763       0.00298322
In       4.03003669       0.18554807       0.89335273        7       0.00349446      -0.00086763      -0.00298322
O        2.07916709       3.29667667       6.48954849        8      -0.00839404      -0.00315892      -0.00150180
O        0.60656088       0.55440927       4.92640661        9       0.00839404      -0.00315892       0.00150180
O        0.60656088       2.18785814       2.68423012       10       0.00839404       0.00315892      -0.00150180
O        2.07916709       4.93012554       1.12108824       11      -0.00839404       0.00315892       0.00150180
O        3.29228886       2.18785814       1.12108824       12       0.00839404       0.00315892       0.00150180
O        4.76489506       4.93012554       2.68423012       13      -0.00839404       0.00315892      -0.00150180
O        4.76489506       3.29667667       4.92640661       14      -0.00839404      -0.00315892       0.00150180
O        3.29228886       0.55440927       6.48954849       15       0.00839404      -0.00315892      -0.00150180
O        5.12911145       4.11340111       0.00000000       16       0.00235938       0.00000000      -0.00000000
O        2.92807247       1.37113370       3.80531837       17      -0.00235938      -0.00000000       0.00000000
O        0.24234449       1.37113370       0.00000000       18      -0.00235938      -0.00000000      -0.00000000
O        2.44338348       4.11340111       3.80531837       19       0.00235938      -0.00000000      -0.00000000
