20
Lattice="5.422398854046534 -3.316019861084934e-59 5.15392655689509e-44 1.3021879576560002e-61 5.527731471638738 -9.758078934728613e-17 -1.2351671194045507e-43 9.841282084448609e-18 7.693941286096232" Properties=species:S:1:pos:R:3:spacegroup_kinds:I:1:forces:R:3 spacegroup="P 1" unit_cell=conventional occupancy="_JSON {\"0\": {\"In\": 1}, \"1\": {\"In\": 1}, \"2\": {\"In\": 1}, \"3\": {\"In\": 1}, \"4\": {\"In\": 1}, \"5\": {\"In\": 1}, \"6\": {\"In\": 1}, \"7\": {\"In\": 1}, \"8\": {\"O\": 1}, \"9\": {\"O\": 1}, \"10\": {\"O\": 1}, \"11\": {\"O\": 1}, \"12\": {\"O\": 1}, \"13\": {\"O\": 1}, \"14\": {\"O\": 1}, \"15\": {\"O\": 1}, \"16\": {\"O\": 1}, \"17\": {\"O\": 1}, \"18\": {\"O\": 1}, \"19\": {\"O\": 1}}" n_minim_iter=8 energy=-22574.348191380497 stress="-0.06830171943432686 -5.351348144734461e-13 -2.3861441138488203e-13 -5.351348144734461e-13 -0.06815363285622507 -4.9636194668232695e-14 -2.3861441138488203e-13 -4.9636194668232695e-14 -0.06833275274435553" free_energy=-22574.348191380497 pbc="T T T"
In       1.35501487       2.94141350       0.88655331        0      -0.00218340       0.00207337      -0.00155275
In       1.35618456       0.17754776       2.96041734        1       0.00218340       0.00207337       0.00155275
In       1.35618456       2.58631797       4.73352395        2       0.00218340      -0.00207337      -0.00155275
In       1.35501487       5.35018371       6.80738798        3      -0.00218340      -0.00207337       0.00155275
In       4.06738399       2.58631797       6.80738798        4       0.00218340      -0.00207337       0.00155275
In       4.06621429       5.35018371       4.73352395        5      -0.00218340      -0.00207337      -0.00155275
In       4.06621429       2.94141350       2.96041734        6      -0.00218340       0.00207337       0.00155275
In       4.06738399       0.17754776       0.88655331        7       0.00218340       0.00207337      -0.00155275
O        2.10461294       3.33060039       6.54468265        8      -0.00235485       0.00017301      -0.00073373
O        0.60658649       0.56673466       4.99622928        9       0.00235485       0.00017301       0.00073373
O        0.60658649       2.19713108       2.69771201       10       0.00235485      -0.00017301      -0.00073373
O        2.10461294       4.96099681       1.14925863       11      -0.00235485      -0.00017301       0.00073373
O        3.31778592       2.19713108       1.14925863       12       0.00235485      -0.00017301       0.00073373
O        4.81581236       4.96099681       2.69771201       13      -0.00235485      -0.00017301      -0.00073373
O        4.81581236       3.33060039       4.99622928       14      -0.00235485       0.00017301       0.00073373
O        3.31778592       0.56673466       6.54468265       15       0.00235485       0.00017301      -0.00073373
O        5.18756433       4.14579860       0.00000000       16       0.00151197       0.00000000       0.00000000
O        2.94603395       1.38193287       3.84697064       17      -0.00151197      -0.00000000      -0.00000000
O        0.23483452       1.38193287       0.00000000       18      -0.00151197       0.00000000      -0.00000000
O        2.47636490       4.14579860       3.84697064       19       0.00151197       0.00000000       0.00000000
