20
Lattice="5.724361238770081 -1.1554933705749407e-62 -3.9684457625879465e-44 2.007803829519808e-62 5.800463241938388 1.6898309544813997e-18 3.3967162416917154e-44 -2.4542545042862237e-18 8.295900003898518" Properties=species:S:1:pos:R:3:spacegroup_kinds:I:1:forces:R:3 spacegroup="P 1" unit_cell=conventional occupancy="_JSON {\"0\": {\"In\": 1}, \"1\": {\"In\": 1}, \"2\": {\"In\": 1}, \"3\": {\"In\": 1}, \"4\": {\"In\": 1}, \"5\": {\"In\": 1}, \"6\": {\"In\": 1}, \"7\": {\"In\": 1}, \"8\": {\"O\": 1}, \"9\": {\"O\": 1}, \"10\": {\"O\": 1}, \"11\": {\"O\": 1}, \"12\": {\"O\": 1}, \"13\": {\"O\": 1}, \"14\": {\"O\": 1}, \"15\": {\"O\": 1}, \"16\": {\"O\": 1}, \"17\": {\"O\": 1}, \"18\": {\"O\": 1}, \"19\": {\"O\": 1}}" n_minim_iter=5 energy=-22574.713737903206 stress="0.03776016140751891 -2.1406397610240469e-13 -3.18108890193577e-14 -2.1406397610240469e-13 0.03770201884996361 -5.778600821519117e-13 -3.18108890193577e-14 -5.778600821519117e-13 0.0377117495097225" free_energy=-22574.713737903206 pbc="T T T"
In       1.41489346       3.05474645       0.95694490        0      -0.00289835       0.00503473       0.00225490
In       1.44728716       0.15451483       3.19100510        1       0.00289835       0.00503473      -0.00225490
In       1.44728716       2.74571679       5.10489491        2       0.00289835      -0.00503473       0.00225490
In       1.41489346       5.64594841       7.33895510        3      -0.00289835      -0.00503473      -0.00225490
In       4.30946778       2.74571679       7.33895510        4       0.00289835      -0.00503473      -0.00225490
In       4.27707408       5.64594841       5.10489491        5      -0.00289835      -0.00503473       0.00225490
In       4.27707408       3.05474645       3.19100510        6      -0.00289835       0.00503473      -0.00225490
In       4.30946778       0.15451483       0.95694490        7       0.00289835       0.00503473       0.00225490
O        2.23721674       3.49663457       7.04603802        8       0.00048338      -0.00223000       0.00277160
O        0.62496388       0.59640295       5.39781198        9      -0.00048338      -0.00223000      -0.00277160
O        0.62496388       2.30382867       2.89808802       10      -0.00048338       0.00223000       0.00277160
O        2.23721674       5.20406029       1.24986198       11       0.00048338       0.00223000      -0.00277160
O        3.48714450       2.30382867       1.24986198       12      -0.00048338       0.00223000      -0.00277160
O        5.09939736       5.20406029       2.89808802       13       0.00048338       0.00223000       0.00277160
O        5.09939736       3.49663457       5.39781198       14       0.00048338      -0.00223000      -0.00277160
O        3.48714450       0.59640295       7.04603802       15      -0.00048338      -0.00223000       0.00277160
O        5.48126894       4.35034743      -0.00000000       16       0.00288540      -0.00000000       0.00000000
O        3.10527292       1.45011581       4.14795000       17      -0.00288540      -0.00000000      -0.00000000
O        0.24309230       1.45011581      -0.00000000       18      -0.00288540      -0.00000000       0.00000000
O        2.61908832       4.35034743       4.14795000       19       0.00288540      -0.00000000       0.00000000
