20
Lattice="5.714114221803455 1.0654444352089688e-59 -5.725565397563619e-43 -6.911489619330898e-61 5.96058137869252 2.916343634476513e-17 1.3787966367130841e-42 -3.4353008708723464e-17 9.216017806675358" Properties=species:S:1:pos:R:3:spacegroup_kinds:I:1:forces:R:3 spacegroup="P 1" unit_cell=conventional occupancy="_JSON {\"0\": {\"In\": 1}, \"1\": {\"In\": 1}, \"2\": {\"In\": 1}, \"3\": {\"In\": 1}, \"4\": {\"In\": 1}, \"5\": {\"In\": 1}, \"6\": {\"In\": 1}, \"7\": {\"In\": 1}, \"8\": {\"O\": 1}, \"9\": {\"O\": 1}, \"10\": {\"O\": 1}, \"11\": {\"O\": 1}, \"12\": {\"O\": 1}, \"13\": {\"O\": 1}, \"14\": {\"O\": 1}, \"15\": {\"O\": 1}, \"16\": {\"O\": 1}, \"17\": {\"O\": 1}, \"18\": {\"O\": 1}, \"19\": {\"O\": 1}}" n_minim_iter=7 energy=-22572.367528102586 stress="0.0807368525544222 -2.709666934597187e-13 -2.1341335212054835e-13 -2.709666934597187e-13 0.080688229097938 6.6782403440965186e-15 -2.1341335212054835e-13 6.6782403440965186e-15 0.08071360519028627" free_energy=-22572.367528102586 pbc="T T T"
In       1.34740745       3.23082497       1.15031976        0       0.00225258      -0.00226964      -0.00102011
In       1.50964966       0.25053428       3.45768915        1      -0.00225258      -0.00226964       0.00102011
In       1.50964966       2.72975641       5.75832866        2      -0.00225258       0.00226964      -0.00102011
In       1.34740745       5.71004709       8.06569805        3       0.00225258       0.00226964       0.00102011
In       4.36670677       2.72975641       8.06569805        4      -0.00225258       0.00226964       0.00102011
In       4.20446457       5.71004709       5.75832866        5       0.00225258       0.00226964      -0.00102011
In       4.20446457       3.23082497       3.45768915        6       0.00225258      -0.00226964       0.00102011
In       4.36670677       0.25053428       1.15031976        7      -0.00225258      -0.00226964      -0.00102011
O        2.24266860       3.52084650       7.76586967        8       0.00494092      -0.00477596       0.00595478
O        0.61438852       0.54055581       6.05815704        9      -0.00494092      -0.00477596      -0.00595478
O        0.61438852       2.43973488       3.15786077       10      -0.00494092       0.00477596       0.00595478
O        2.24266860       5.42002556       1.45014814       11       0.00494092       0.00477596      -0.00595478
O        3.47144563       2.43973488       1.45014814       12      -0.00494092       0.00477596      -0.00595478
O        5.09972571       5.42002556       3.15786077       13       0.00494092       0.00477596       0.00595478
O        5.09972571       3.52084650       6.05815704       14       0.00494092      -0.00477596      -0.00595478
O        3.47144563       0.54055581       7.76586967       15      -0.00494092      -0.00477596       0.00595478
O        5.44488336       4.47043603       0.00000000       16       0.00113649       0.00000000       0.00000000
O        3.12628798       1.49014534       4.60800890       17      -0.00113649       0.00000000      -0.00000000
O        0.26923086       1.49014534       0.00000000       18      -0.00113649       0.00000000       0.00000000
O        2.58782625       4.47043603       4.60800890       19       0.00113649       0.00000000       0.00000000
