20
Lattice="5.757321254031608 1.184757992515665e-59 -9.097230986303568e-43 -8.549739018595068e-60 5.992697693415421 2.2099689847203403e-17 1.5677700258051025e-42 -3.497508218612582e-17 9.283504137319252" Properties=species:S:1:pos:R:3:spacegroup_kinds:I:1:forces:R:3 spacegroup="P 1" unit_cell=conventional occupancy="_JSON {\"0\": {\"In\": 1}, \"1\": {\"In\": 1}, \"2\": {\"In\": 1}, \"3\": {\"In\": 1}, \"4\": {\"In\": 1}, \"5\": {\"In\": 1}, \"6\": {\"In\": 1}, \"7\": {\"In\": 1}, \"8\": {\"O\": 1}, \"9\": {\"O\": 1}, \"10\": {\"O\": 1}, \"11\": {\"O\": 1}, \"12\": {\"O\": 1}, \"13\": {\"O\": 1}, \"14\": {\"O\": 1}, \"15\": {\"O\": 1}, \"16\": {\"O\": 1}, \"17\": {\"O\": 1}, \"18\": {\"O\": 1}, \"19\": {\"O\": 1}}" n_minim_iter=8 energy=-22571.798355948595 stress="0.09723026238001373 -4.301960579522404e-13 -2.910448564004788e-13 -4.301960579522404e-13 0.09712141810581139 -6.000286474040254e-13 -2.910448564004788e-13 -6.000286474040254e-13 0.09725996730239894" free_energy=-22571.798355948595 pbc="T T T"
In       1.34950030       3.25873885       1.16761913        0      -0.00209871       0.00095572      -0.00357734
In       1.52916033       0.26239000       3.47413294        1       0.00209871       0.00095572       0.00357734
In       1.52916033       2.73395884       5.80937120        2       0.00209871      -0.00095572      -0.00357734
In       1.34950030       5.73030769       8.11588501        3      -0.00209871      -0.00095572       0.00357734
In       4.40782096       2.73395884       8.11588501        4       0.00209871      -0.00095572       0.00357734
In       4.22816092       5.73030769       5.80937120        5      -0.00209871      -0.00095572      -0.00357734
In       4.22816092       3.25873885       3.47413294        6      -0.00209871       0.00095572       0.00357734
In       4.40782096       0.26239000       1.16761913        7       0.00209871       0.00095572      -0.00357734
O        2.26725838       3.53774365       7.82256002        8      -0.00207448      -0.00263678       0.00071413
O        0.61140225       0.54139481       6.10269618        9       0.00207448      -0.00263678      -0.00071413
O        0.61140225       2.45495404       3.18080796       10       0.00207448       0.00263678       0.00071413
O        2.26725838       5.45130289       1.46094411       11      -0.00207448       0.00263678      -0.00071413
O        3.49006288       2.45495404       1.46094411       12       0.00207448       0.00263678      -0.00071413
O        5.14591900       5.45130289       3.18080796       13      -0.00207448       0.00263678       0.00071413
O        5.14591900       3.53774365       6.10269618       14      -0.00207448      -0.00263678      -0.00071413
O        3.49006288       0.54139481       7.82256002       15       0.00207448      -0.00263678       0.00071413
O        5.49051292       4.49452327       0.00000000       16       0.00230116      -0.00000000       0.00000000
O        3.14546896       1.49817442       4.64175207       17      -0.00230116      -0.00000000      -0.00000000
O        0.26680833       1.49817442       0.00000000       18      -0.00230116       0.00000000       0.00000000
O        2.61185230       4.49452327       4.64175207       19       0.00230116       0.00000000      -0.00000000
