80
Lattice="11.764506402117998 0.01526581519990899 0.0105466801006875 6.468203969902034 9.826808643969605 0.010547149196541481 6.46820852014741 3.4915597599805444 9.185611645176913" Properties=species:S:1:pos:R:3:spacegroup_kinds:I:1:forces:R:3 spacegroup="P 1" unit_cell=conventional occupancy="_JSON {\"0\": {\"In\": 1}, \"1\": {\"In\": 1}, \"2\": {\"In\": 1}, \"3\": {\"In\": 1}, \"4\": {\"O\": 1}, \"5\": {\"O\": 1}, \"6\": {\"O\": 1}, \"7\": {\"O\": 1}, \"8\": {\"O\": 1}, \"9\": {\"O\": 1}}" n_minim_iter=4 energy=-90314.915567553 stress="-0.0016985645037143043 0.0009691265230248995 0.0006939307354178455 0.0009691265230248995 -0.003057310228129408 0.000388005214279178 0.0006939307354178455 0.000388005214279178 -0.003283259387256882" pbc="T T T"
In      10.58603397       5.71437697       3.94568595        0       0.00964522       0.00517354       0.00388841
In      16.46828717       5.72200988       3.95095929        0       0.00965462       0.00518534       0.00390680
In      13.82013595      10.62778129       3.95095952        0       0.01007526       0.00535108       0.00437937
In      19.70238916      10.63541420       3.95623286        0       0.00965192       0.00517136       0.00390457
In      13.82013823       7.46015685       8.53849177        0       0.02522058       0.02599213      -0.00288081
In      19.70239143       7.46778976       8.54376511        0       0.00940078       0.00528982       0.00385970
In      17.05424022      12.37356117       8.54376535        0       0.00727185       0.00102354       0.00263392
In      22.93649342      12.38119408       8.54903869        0       0.00966031       0.00518617       0.00390709
In       7.93967373       4.28583926       2.95931508        1      -0.01161010      -0.00649843      -0.00632915
In      13.82192693       4.29347217       2.96458842        1      -0.00995057      -0.00498949      -0.00340429
In      11.17377571       9.19924358       2.96458865        1      -0.01069639      -0.00687255      -0.00130645
In      17.05602892       9.20687649       2.96986199        1      -0.00995997      -0.00500478      -0.00340438
In      11.17377799       6.03161914       7.55212090        1      -0.00217853       0.00245923       0.00017370
In      17.05603119       6.03925205       7.55739424        1      -0.01050280      -0.00498487      -0.00318424
In      14.40787998      10.94502346       7.55739448        1      -0.00999223      -0.00509084      -0.00337277
In      20.29013318      10.95265637       7.56266782        1      -0.00995444      -0.00499448      -0.00340639
In       4.41078572       2.38097786       1.64403766        2       0.02462510       0.01127372      -0.00556446
In      10.29303892       2.38861077       1.64931100        2       0.00797836       0.00507257       0.00271461
In       7.64488770       7.29438218       1.64931123        2       0.00991211       0.00490198       0.00335022
In      13.52714091       7.30201509       1.65458457        2       0.00996308       0.00504220       0.00339714
In       7.64488998       4.12675774       6.23684348        2       0.00995974       0.00500297       0.00340443
In      13.52714318       4.13439065       6.24211682        2       0.01108428       0.00488156       0.00159818
In      10.87899197       9.04016206       6.24211706        2       0.00994796       0.00513571       0.00331102
In      16.76124517       9.04779497       6.24739040        2       0.00995956       0.00500091       0.00340330
In       1.76442549       0.95244015       0.65766679        3      -0.01240643      -0.00595141      -0.00363178
In       7.64667869       0.96007306       0.66294013        3      -0.00827558       0.00394787      -0.00475363
In       4.99852747       5.86584447       0.66294036        3      -0.00741516      -0.01016046      -0.00462174
In      10.88078068       5.87347738       0.66821370        3      -0.00964939      -0.00517284      -0.00390808
In       4.99852975       2.69822003       5.25047261        3      -0.00964277      -0.00516352      -0.00390662
In      10.88078295       2.70585294       5.25574595        3      -0.00968064      -0.00521246      -0.00397471
In       8.23263174       7.61162435       5.25574619        3      -0.00965122      -0.00517299      -0.00390710
In      14.11488494       7.61925726       5.26101953        3      -0.00956085      -0.00507574      -0.00407924
O        6.03455807       2.32399025       0.21989923        4      -0.06021407      -0.05646216       0.01810123
O       11.91099237       2.32278281       0.22516308        4       0.00007418       0.00321105      -0.00471041
O        9.26284115       7.22855422       0.22516331        4       0.00015453       0.00346542      -0.00469451
O       15.14509436       7.23618713       0.23043665        4      -0.00003406       0.00331596      -0.00469827
O        9.26284343       4.06092978       4.81269556        4       0.00008031       0.00329547      -0.00457683
O       15.14509663       4.06856269       4.81796890        4       0.00001267       0.00323127      -0.00469880
O       12.49694542       8.97433410       4.81796914        4       0.00000121       0.00328308      -0.00474420
O       18.37919862       8.98196701       4.82324248        4       0.00001331       0.00323978      -0.00469610
O        7.10688217       5.12556915       1.15611094        5       0.00153484       0.01764126       0.00498731
O       12.98913537       5.13320206       1.16138428        5      -0.00271694       0.00504180      -0.00000920
O       10.34098415      10.03897347       1.16138451        5       0.00726621       0.01384063      -0.00487728
O       16.22323736      10.04660638       1.16665785        5      -0.00249628       0.00516216       0.00002006
O       10.34098643       6.87134903       5.74891676        5      -0.00255786       0.00520425       0.00011257
O       16.22323963       6.87898194       5.75419010        5      -0.00269999       0.00505878      -0.00002356
O       13.57508842      11.78475335       5.75419034        5      -0.00273208       0.00505192       0.00003152
O       19.45734162      11.79238626       5.75946368        5      -0.00270852       0.00506578       0.00002245
O        8.18470379       2.18968875       2.51629286        6       0.00554387      -0.00416919      -0.00039746
O       14.06695699       2.19732166       2.52156620        6       0.00376511      -0.00161499      -0.00534989
O       11.41880577       7.10309307       2.52156643        6       0.00273902      -0.00166699      -0.00481196
O       17.30105898       7.11072598       2.52683977        6       0.00273999      -0.00178675      -0.00474389
O       11.41880805       3.93546863       7.10909868        6       0.00557112       0.00337935       0.00409479
O       17.30106125       3.94310154       7.11437202        6       0.00273930      -0.00183124      -0.00476790
O       14.65291004       8.84887295       7.11437226        6       0.00378992      -0.00025001      -0.00580298
O       20.53516324       8.85650586       7.11964560        6       0.00274091      -0.00181417      -0.00474466
O        4.16575567       4.47712837       2.08705988        7      -0.00497399       0.00280194       0.00646474
O       10.04800887       4.48476128       2.09233322        7      -0.00368439       0.00127969       0.00429282
O        7.39985765       9.39053269       2.09233345        7      -0.00271513       0.00184224       0.00473740
O       13.28211086       9.39816560       2.09760679        7      -0.00495799       0.00669775       0.00087481
O        7.39985993       6.22290825       6.67986570        7      -0.00269914       0.00179151       0.00476761
O       13.28211313       6.23054116       6.68513904        7      -0.00353731      -0.00092882      -0.00018481
O       10.63396192      11.13631257       6.68513928        7      -0.00275887       0.00181117       0.00476144
O       16.51621512      11.14394548       6.69041262        7      -0.00270012       0.00186846       0.00480273
O        6.32172028       4.35166723       4.38346300        8       0.00004275      -0.00350359       0.00378146
O       12.20397348       4.35930014       4.38873634        8      -0.00001512      -0.00325738       0.00464697
O        9.55582226       9.26507155       4.38873657        8       0.00003617      -0.00319617       0.00460498
O       15.43807547       9.27270446       4.39400991        8      -0.00003394      -0.00326085       0.00467975
O        9.55582454       6.09744711       8.97626882        8       0.00789402      -0.00673492       0.00609590
O       15.43807774       6.10508002       8.98154216        8       0.01122590      -0.00478249       0.00292929
O       12.78992653      11.01085143       8.98154240        8      -0.00003492      -0.00330411       0.00467689
O       18.67217973      11.01848434       8.98681574        8      -0.00004894      -0.00535303       0.00448895
O        5.24357729       1.54124797       3.44724180        9       0.00313713      -0.00496045      -0.00407404
O       11.12583049       1.54888088       3.45251514        9       0.00272431      -0.00506808       0.00001513
O        8.47767927       6.45465229       3.45251537        9       0.00274151      -0.00496783       0.00003131
O       14.35993248       6.46228520       3.45778871        9       0.00271006      -0.00509244       0.00000152
O        8.47768155       3.28702785       8.04004762        9       0.00188679      -0.00562007      -0.00024225
O       14.35993475       3.29466076       8.04532096        9      -0.00010448      -0.00283163       0.00162185
O       11.71178354       8.20043217       8.04532120        9      -0.00241653       0.00013144      -0.00495543
O       17.59403674       8.20806508       8.05059454        9       0.00279190      -0.00500161      -0.00003765
