10
Lattice="6.284539877240239 0.03509054290168664 0.024229526782290605 3.477800190413834 5.234651721975531 0.02422952678229044 3.4778001904138303 1.8773276207561838 4.886492272038852" Properties=species:S:1:pos:R:3:spacegroup_kinds:I:1:forces:R:3 spacegroup="P 1" unit_cell=conventional occupancy="_JSON {\"0\": {\"In\": 1}, \"1\": {\"In\": 1}, \"2\": {\"In\": 1}, \"3\": {\"In\": 1}, \"4\": {\"O\": 1}, \"5\": {\"O\": 1}, \"6\": {\"O\": 1}, \"7\": {\"O\": 1}, \"8\": {\"O\": 1}, \"9\": {\"O\": 1}}" n_minim_iter=1 energy=-11287.281938538556 stress="0.023791488753365963 -0.004046621198006812 -0.0027941350814124385 -0.004046621198006812 0.02910358495121013 -0.0015082830092786475 -0.0027941350814124385 -0.0015082830092786475 0.03024651574190426" free_energy=-11287.281938538556 pbc="T T T"
In      11.27607903       6.08686338       4.20289363        0      -0.09865165      -0.05325247      -0.03677008
In       8.58413136       4.63374146       3.19953336        1       0.09865165       0.05325247       0.03677008
In       4.65600890       2.51332844       1.73541797        2      -0.09865165      -0.05325247      -0.03677008
In       1.96406124       1.06020651       0.73205770        3       0.09865165       0.05325247       0.03677008
O        6.45230501       2.48815469       0.25547481        4      -0.00000000       0.03664068      -0.05306506
O        7.61950983       5.48071957       1.25796736        5      -0.03063179       0.05674622       0.00000000
O        8.76290038       2.36773755       2.69872095        6       0.03063179      -0.02010554      -0.05306506
O        4.47723989       4.77933235       2.23623038        7      -0.03063179       0.02010554       0.05306506
O        6.78783526       4.65891521       4.67947652        8      -0.00000000      -0.03664068       0.05306506
O        5.62063044       1.66635033       3.67698397        9       0.03063179      -0.05674622       0.00000000
10
Lattice="6.304826815301622 0.05577960563864831 0.038515033880030816 3.5062282361080874 5.2402591626435715 0.038515033880030684 3.5062282361080843 1.892673170374889 4.886674510303275" Properties=species:S:1:pos:R:3:spacegroup_kinds:I:1:forces:R:3 spacegroup="P 1" unit_cell=conventional occupancy="_JSON {\"0\": {\"In\": 1}, \"1\": {\"In\": 1}, \"2\": {\"In\": 1}, \"3\": {\"In\": 1}, \"4\": {\"O\": 1}, \"5\": {\"O\": 1}, \"6\": {\"O\": 1}, \"7\": {\"O\": 1}, \"8\": {\"O\": 1}, \"9\": {\"O\": 1}}" n_minim_iter=2 energy=-11287.28724371059 stress="0.024816933236137352 7.354568566895272e-05 5.0782264852145e-05 7.354568566895272e-05 0.024720388065386914 2.7412428183414944e-05 5.0782264852145e-05 2.7412428183414944e-05 0.024699615763304664" free_energy=-11287.28724371059 pbc="T T T"
In      11.34127324       6.12205542       4.22719324        0      -0.08240330      -0.04448156      -0.03071390
In       8.63465170       4.66101250       3.21836363        1       0.08240330       0.04448156       0.03071390
In       4.68263159       2.52769945       1.74534095        2      -0.08240330      -0.04448156      -0.03071390
In       1.97601006       1.06665653       0.73651134        3       0.08240330       0.04448156       0.03071390
O        6.48173423       2.50711227       0.27240907        4      -0.00000000       0.02539208      -0.03677421
O        7.66465577       5.50149455       1.27944118        5      -0.02122790       0.03932527      -0.00000000
O        8.80504093       2.39715168       2.71574633        6       0.02122790      -0.01393319      -0.03677421
O        4.51224236       4.79156028       2.24795826        7      -0.02122790       0.01393319       0.03677421
O        6.83554906       4.68159968       4.69129551        8      -0.00000000      -0.02539208       0.03677421
O        5.65262753       1.68721740       3.68426340        9       0.02122790      -0.03932527       0.00000000
10
Lattice="6.3043823115796025 0.05532743967695449 0.03820281963730469 3.5056063142069798 5.240135668656973 0.03820281963730454 3.505606314206976 1.8923374549516385 4.886669646901297" Properties=species:S:1:pos:R:3:spacegroup_kinds:I:1:forces:R:3 spacegroup="P 1" unit_cell=conventional occupancy="_JSON {\"0\": {\"In\": 1}, \"1\": {\"In\": 1}, \"2\": {\"In\": 1}, \"3\": {\"In\": 1}, \"4\": {\"O\": 1}, \"5\": {\"O\": 1}, \"6\": {\"O\": 1}, \"7\": {\"O\": 1}, \"8\": {\"O\": 1}, \"9\": {\"O\": 1}}" n_minim_iter=3 energy=-11287.289323514893 stress="0.023853187870203435 0.00031443446929650334 0.00021711257907198366 0.00031443446929650334 0.02344042224600558 0.00011719806000093274 0.00021711257907198366 0.00011719806000093274 0.023351613130920736" free_energy=-11287.289323514893 pbc="T T T"
In      11.33367702       6.11795496       4.22436193        0      -0.00664004      -0.00358432      -0.00247492
In       8.63971540       4.66374590       3.22025100        1       0.00664004       0.00358432       0.00247492
In       4.67587955       2.52405468       1.74282429        2      -0.00664004      -0.00358432      -0.00247492
In       1.98191793       1.06984561       0.73871336        3       0.00664004       0.00358432       0.00247492
O        6.48108990       2.50857464       0.26932036        4       0.00000000       0.00328936      -0.00476383
O        7.66209844       5.50394669       1.27897164        5      -0.00274992       0.00509430      -0.00000000
O        8.80568767       2.39547838       2.71265518        6       0.00274992      -0.00180494      -0.00476383
O        4.50990728       4.79232220       2.25042011        7      -0.00274992       0.00180494       0.00476383
O        6.83450505       4.67922594       4.69375493        8      -0.00000000      -0.00328936       0.00476383
O        5.65349651       1.68385389       3.68410365        9       0.00274992      -0.00509430      -0.00000000
