10
Lattice="6.038985260446019 0.014048931611291296 0.009700589862405209 3.3254681158922237 5.040912829889832 0.00970058986240592 3.32546811589222 1.7950982817001921 4.710469023253257" Properties=species:S:1:pos:R:3:spacegroup_kinds:I:1:forces:R:3 spacegroup="P 1" unit_cell=conventional occupancy="_JSON {\"0\": {\"In\": 1}, \"1\": {\"In\": 1}, \"2\": {\"In\": 1}, \"3\": {\"In\": 1}, \"4\": {\"O\": 1}, \"5\": {\"O\": 1}, \"6\": {\"O\": 1}, \"7\": {\"O\": 1}, \"8\": {\"O\": 1}, \"9\": {\"O\": 1}}" n_minim_iter=5 energy=-11287.615069054016 stress="0.018470028405503363 -4.768323421900103e-05 -3.2924602027547326e-05 -4.768323421900103e-05 0.01853262332334704 -1.7772803198949576e-05 -3.2924602027547326e-05 -1.7772803198949576e-05 0.018546091013731628" free_energy=-11287.615069054016 pbc="T T T"
In      10.85064844       5.85721460       4.04432437        0       0.00720614       0.00388990       0.00268592
In       8.18423380       4.41787548       3.05048094        1      -0.00720614      -0.00388990      -0.00268592
In       4.50568770       2.43218458       1.67938927        2       0.00720614       0.00388990       0.00268592
In       1.83927306       0.99284546       0.68554584        3      -0.00720614      -0.00388990      -0.00268592
O        6.19197301       2.37554954       0.23724774        4      -0.00000000      -0.00558482       0.00808824
O        7.30627939       5.25597300       1.19216814        5       0.00466893      -0.00864933      -0.00000000
O        8.40313474       2.25712157       2.59248226        6      -0.00466893       0.00306451       0.00808824
O        4.28678676       4.59293848       2.13738795        7       0.00466893      -0.00306451      -0.00808824
O        6.49794849       4.47451052       4.49262246        8       0.00000000       0.00558482      -0.00808824
O        5.38364211       1.59408705       3.53770206        9      -0.00466893       0.00864933      -0.00000000
