10
Lattice="5.5208703157822 -0.05281151525019666 -0.036465609174323614 2.98527146019239 4.64445394086203 -0.03646560917432644 2.985271460192388 1.6114590433119251 4.356085616831874" Properties=species:S:1:pos:R:3:spacegroup_kinds:I:1:forces:R:3 spacegroup="P 1" unit_cell=conventional occupancy="_JSON {\"0\": {\"In\": 1}, \"1\": {\"In\": 1}, \"2\": {\"In\": 1}, \"3\": {\"In\": 1}, \"4\": {\"O\": 1}, \"5\": {\"O\": 1}, \"6\": {\"O\": 1}, \"7\": {\"O\": 1}, \"8\": {\"O\": 1}, \"9\": {\"O\": 1}}" n_minim_iter=3 energy=-11287.543882875076 stress="-0.0069654414673462305 -1.4151051987198828e-05 -9.771105294984773e-06 -1.4151051987198828e-05 -0.006946865034994235 -5.274467075789108e-06 -9.771105294984773e-06 -5.274467075789108e-06 -0.006942868205575149" free_energy=-11287.543882875076 pbc="T T T"
In       9.86087591       5.32293223       3.67540991        0       0.00206960       0.00111718       0.00077139
In       7.37624395       3.98171998       2.74932170        1      -0.00206960      -0.00111718      -0.00077139
In       4.11516929       2.22138150       1.53383271        2       0.00206960       0.00111718       0.00077139
In       1.63053733       0.88016925       0.60774450        3      -0.00206960      -0.00111718      -0.00077139
O        5.63328847       2.15342394       0.14152448        4      -0.00000000      -0.00033927       0.00049135
O        6.60003165       4.82082675       1.03432299        5       0.00028363      -0.00052543       0.00000000
O        7.65181675       1.98492329       2.31956729        6      -0.00028363       0.00018616       0.00049135
O        3.83959650       4.21817819       1.96358711        7       0.00028363      -0.00018616      -0.00049135
O        5.85812477       4.04967754       4.14162992        8      -0.00000000       0.00033927      -0.00049135
O        4.89138159       1.38227473       3.24883141        9      -0.00028363       0.00052543       0.00000000
