10
Lattice="5.374248717373686 -0.029507550603479957 -0.020374549052416476 2.9242992167042736 4.509090159102842 -0.02037454905242388 2.9242992167042696 1.5785460320597975 4.223801795756458" Properties=species:S:1:pos:R:3:spacegroup_kinds:I:1:forces:R:3 spacegroup="P 1" unit_cell=conventional occupancy="_JSON {\"0\": {\"In\": 1}, \"1\": {\"In\": 1}, \"2\": {\"In\": 1}, \"3\": {\"In\": 1}, \"4\": {\"O\": 1}, \"5\": {\"O\": 1}, \"6\": {\"O\": 1}, \"7\": {\"O\": 1}, \"8\": {\"O\": 1}, \"9\": {\"O\": 1}}" n_minim_iter=4 energy=-11287.579054333799 stress="-0.024635754260807722 3.461888013929155e-05 2.390385051798451e-05 3.461888013929155e-05 -0.024681199280804558 1.2903371019768815e-05 2.390385051798451e-05 1.2903371019768815e-05 -0.024690977074273944" free_energy=-11287.579054333799 pbc="T T T"
In       9.62247723       5.19424386       3.58655239        0      -0.00144233      -0.00077857      -0.00053759
In       7.21179351       3.89294911       2.68802666        1       0.00144233       0.00077857       0.00053759
In       4.01105365       2.16517954       1.49502605        2      -0.00144233      -0.00077857      -0.00053759
In       1.60036993       0.86388479       0.59650031        3       0.00144233       0.00077857       0.00053759
O        5.49283615       2.11470331       0.14500757        4      -0.00000000      -0.00139883       0.00202586
O        6.44090546       4.70667113       1.02538863        5       0.00116942      -0.00216639      -0.00000000
O        7.46906606       1.95162867       2.25690847        6      -0.00116942       0.00076757       0.00202586
O        3.75378110       4.10649998       1.92614423        7       0.00116942      -0.00076757      -0.00202586
O        5.73001101       3.94342534       4.03804513        8       0.00000000       0.00139883      -0.00202586
O        4.78194170       1.35145752       3.15766407        9      -0.00116942       0.00216639       0.00000000
