10
Lattice="5.767566074677444 -0.015041826035673125 -0.010386169510314142 3.152214460857775 4.829967771637797 -0.010386169510313086 3.152214460857775 1.7015754068410598 4.520324953187608" Properties=species:S:1:pos:R:3:spacegroup_kinds:I:1:forces:R:3 spacegroup="P 1" unit_cell=conventional occupancy="_JSON {\"0\": {\"In\": 1}, \"1\": {\"In\": 1}, \"2\": {\"In\": 1}, \"3\": {\"In\": 1}, \"4\": {\"O\": 1}, \"5\": {\"O\": 1}, \"6\": {\"O\": 1}, \"7\": {\"O\": 1}, \"8\": {\"O\": 1}, \"9\": {\"O\": 1}}" n_minim_iter=1 energy=-11287.64484117523 stress="-0.007324320889571154 0.004535737065533632 0.003131862707849822 0.004535737065533632 -0.01327849116062888 0.001690589464367702 0.003131862707849822 0.001690589464367702 -0.014559568202089396" free_energy=-11287.64484117523 pbc="T T T"
In      10.34980994       5.58686038       3.85764858        0      -0.05896020      -0.03182690      -0.02197603
In       7.75818256       4.18789166       2.89168034        1       0.05896020       0.03182690       0.02197603
In       4.31381244       2.32860970       1.60787228        2      -0.05896020      -0.03182690      -0.02197603
In       1.72218506       0.92964099       0.64190404        3       0.05896020       0.03182690       0.02197603
O        5.90178179       2.26060793       0.19425481        4      -0.00000000       0.02785974      -0.04034802
O        6.94367891       5.02622699       1.11450199        5      -0.02329089       0.04314699       0.00000000
O        8.01209913       2.12175696       2.45441729        6       0.02329089      -0.01528725      -0.04034802
O        4.05989588       4.39474441       2.04513533        7      -0.02329089       0.01528725       0.04034802
O        6.17021321       4.25589344       4.30529781        8       0.00000000      -0.02785974       0.04034802
O        5.12831609       1.49027437       3.38505063        9       0.02329088      -0.04314699      -0.00000000
10
Lattice="5.7512627725932965 -0.03197276821241503 -0.022076747170227715 3.1291141307747985 4.825628507656819 -0.02207674717022671 3.1291141307747967 1.6891057750798972 4.52040922453571" Properties=species:S:1:pos:R:3:spacegroup_kinds:I:1:forces:R:3 spacegroup="P 1" unit_cell=conventional occupancy="_JSON {\"0\": {\"In\": 1}, \"1\": {\"In\": 1}, \"2\": {\"In\": 1}, \"3\": {\"In\": 1}, \"4\": {\"O\": 1}, \"5\": {\"O\": 1}, \"6\": {\"O\": 1}, \"7\": {\"O\": 1}, \"8\": {\"O\": 1}, \"9\": {\"O\": 1}}" n_minim_iter=2 energy=-11287.648996350747 stress="-0.009605050458560324 4.161030856811124e-05 2.8731335475674055e-05 4.161030856811124e-05 -0.00965967330835819 1.5509266368519086e-05 2.8731335475674055e-05 1.5509266368519086e-05 -0.00967142574961092" free_energy=-11287.648996350747 pbc="T T T"
In      10.29592198       5.55777148       3.83756311        0      -0.00187581      -0.00101257      -0.00069916
In       7.71831458       4.16637080       2.87682049        1       0.00187581       0.00101257       0.00069916
In       4.29117646       2.31639073       1.59943525        2      -0.00187581      -0.00101257      -0.00069916
In       1.71356906       0.92499004       0.63869262        3       0.00187581       0.00101257       0.00069916
O        5.87800415       2.24551144       0.17997273        4       0.00000000       0.02366898      -0.03427873
O        6.90684300       5.00995073       1.09698719        5      -0.01978739       0.03665667       0.00000000
O        7.97827943       2.09763185       2.44017734        6       0.01978739      -0.01298769      -0.03427873
O        4.03121162       4.38512968       2.03607839        7      -0.01978739       0.01298769       0.03427873
O        6.13148689       4.23725009       4.29628300        8       0.00000000      -0.02366898       0.03427873
O        5.10264804       1.47281079       3.37926855        9       0.01978739      -0.03665667      -0.00000000
10
Lattice="5.750237272194203 -0.033040462484202074 -0.02281397506168656 3.127658818568624 4.825357051382054 -0.022813975061685567 3.1276588185686225 1.688320192915342 4.520416582238294" Properties=species:S:1:pos:R:3:spacegroup_kinds:I:1:forces:R:3 spacegroup="P 1" unit_cell=conventional occupancy="_JSON {\"0\": {\"In\": 1}, \"1\": {\"In\": 1}, \"2\": {\"In\": 1}, \"3\": {\"In\": 1}, \"4\": {\"O\": 1}, \"5\": {\"O\": 1}, \"6\": {\"O\": 1}, \"7\": {\"O\": 1}, \"8\": {\"O\": 1}, \"9\": {\"O\": 1}}" n_minim_iter=3 energy=-11287.649353902576 stress="-0.009683868759832714 -0.0003145299093805124 -0.0002171784803281632 -0.0003145299093805124 -0.009270977848507896 -0.00011723363947126891 -0.0002171784803281632 -0.00011723363947126891 -0.009182141778422142" free_energy=-11287.649353902576 pbc="T T T"
In      10.29243817       5.55589091       3.83626460        0       0.01242730       0.00670830       0.00463199
In       7.71589421       4.16506427       2.87591835        1      -0.01242730      -0.00670830      -0.00463199
In       4.28966071       2.31557252       1.59887029        2       0.01242730       0.00670830       0.00463199
In       1.71311675       0.92474588       0.63852404        3      -0.01242730      -0.00670830      -0.00463199
O        5.87650737       2.24617380       0.17673564        4      -0.00000000       0.00116261      -0.00168375
O        6.90317446       5.01142522       1.09588319        5      -0.00097195       0.00180056       0.00000000
O        7.97749910       2.09522617       2.43694393        6       0.00097195      -0.00063795      -0.00168375
O        4.02805582       4.38541062       2.03784470        7      -0.00097195       0.00063795       0.00168375
O        6.12904755       4.23446300       4.29805299        8      -0.00000000      -0.00116261       0.00168375
O        5.10238046       1.46921157       3.37890545        9       0.00097195      -0.00180056      -0.00000000
10
Lattice="5.751251035780531 -0.03198498610312843 -0.02208518345207984 3.129097476311684 4.825625399846377 -0.022085183452078837 3.129097476311681 1.689096784947658 4.52040930735814" Properties=species:S:1:pos:R:3:spacegroup_kinds:I:1:forces:R:3 spacegroup="P 1" unit_cell=conventional occupancy="_JSON {\"0\": {\"In\": 1}, \"1\": {\"In\": 1}, \"2\": {\"In\": 1}, \"3\": {\"In\": 1}, \"4\": {\"O\": 1}, \"5\": {\"O\": 1}, \"6\": {\"O\": 1}, \"7\": {\"O\": 1}, \"8\": {\"O\": 1}, \"9\": {\"O\": 1}}" n_minim_iter=4 energy=-11287.64937979098 stress="-0.009491739311653319 -2.06303630040016e-06 -1.4244929725716085e-06 -2.06303630040016e-06 -0.009489031121643617 -7.689431332905952e-07 -1.4244929725716085e-06 -7.689431332905952e-07 -0.00948844843148135" free_energy=-11287.64937979098 pbc="T T T"
In      10.29590547       5.55776257       3.83755696        0       0.00754246       0.00407144       0.00281127
In       7.71826352       4.16634324       2.87680146        1      -0.00754246      -0.00407144      -0.00281127
In       4.29118248       2.31639397       1.59943749        2       0.00754246       0.00407144       0.00281127
In       1.71354053       0.92497464       0.63868199        3      -0.00754246      -0.00407144      -0.00281127
O        5.87798702       2.24722332       0.17746742        4      -0.00000000       0.00013773      -0.00019947
O        6.90537621       5.01260710       1.09697455        5      -0.00011514       0.00021331      -0.00000000
O        7.97969530       2.09666913       2.43767207        6       0.00011514      -0.00007558      -0.00019947
O        4.02975069       4.38606808       2.03856687        7      -0.00011514       0.00007558       0.00019947
O        6.13145898       4.23551389       4.29877153        8      -0.00000000      -0.00013773       0.00019947
O        5.10406979       1.47013011       3.37926439        9       0.00011514      -0.00021331       0.00000000
