10
Lattice="5.817721340623712 -0.015172631088512946 -0.010476488561226849 3.179626397289356 4.8719695996119885 -0.010476488561226002 3.179626397289355 1.7163724574431194 4.559634099759177" Properties=species:S:1:pos:R:3:spacegroup_kinds:I:1:forces:R:3 spacegroup="P 1" unit_cell=conventional occupancy="_JSON {\"0\": {\"In\": 1}, \"1\": {\"In\": 1}, \"2\": {\"In\": 1}, \"3\": {\"In\": 1}, \"4\": {\"O\": 1}, \"5\": {\"O\": 1}, \"6\": {\"O\": 1}, \"7\": {\"O\": 1}, \"8\": {\"O\": 1}, \"9\": {\"O\": 1}}" n_minim_iter=6 energy=-11287.674149648936 stress="-0.004991622980875753 0.00011766698536854462 8.124739373994851e-05 0.00011766698536854462 -0.005146087232955959 4.385760608303869e-05 8.124739373994851e-05 4.385760608303869e-05 -0.005179321187909802" free_energy=-11287.674149648936 pbc="T T T"
In      10.43981281       5.63544421       3.89119504        0       0.00088544       0.00047796       0.00033003
In       7.82564840       4.22430994       2.91682665        1      -0.00088544      -0.00047796      -0.00033003
In       4.35132574       2.34885950       1.62185448        2       0.00088544       0.00047796       0.00033003
In       1.73716134       0.93772523       0.64748609        3      -0.00088544      -0.00047796      -0.00033003
O        5.95310421       2.28026637       0.19594407        4      -0.00000000      -0.00201546       0.00291891
O        7.00406176       5.06993551       1.12419379        5       0.00168494      -0.00312139      -0.00000000
O        8.08177305       2.14020794       2.47576112        6      -0.00168494       0.00110593       0.00291891
O        4.09520109       4.43296149       2.06292001        7       0.00168494      -0.00110593      -0.00291891
O        6.22386994       4.29290306       4.34273706        8       0.00000000       0.00201546      -0.00291891
O        5.17291238       1.50323393       3.41448733        9      -0.00168494       0.00312139       0.00000000
