10
Lattice="6.347862184252453 0.05570902028447099 0.038466295684834825 3.5297836734865555 5.276275677368561 0.03846629568483468 3.529783673486552 1.9053884705038266 4.9203718818770055" Properties=species:S:1:pos:R:3:spacegroup_kinds:I:1:forces:R:3 spacegroup="P 1" unit_cell=conventional occupancy="_JSON {\"0\": {\"In\": 1}, \"1\": {\"In\": 1}, \"2\": {\"In\": 1}, \"3\": {\"In\": 1}, \"4\": {\"O\": 1}, \"5\": {\"O\": 1}, \"6\": {\"O\": 1}, \"7\": {\"O\": 1}, \"8\": {\"O\": 1}, \"9\": {\"O\": 1}}" n_minim_iter=3 energy=-11287.289323514893 stress="0.023853187870203435 0.00031443446929650334 0.00021711257907198366 0.00031443446929650334 0.02344042224600558 0.00011719806000093274 0.00021711257907198366 0.00011719806000093274 0.023351613130920736" free_energy=-11287.289323514893 pbc="T T T"
In      11.41184278       6.16014909       4.25349638        0      -0.00664004      -0.00358432      -0.00247492
In       8.69930152       4.69591068       3.24246033        1       0.00664004       0.00358432       0.00247492
In       4.70812802       2.54146250       1.75484414        2      -0.00664004      -0.00358432      -0.00247492
In       1.99558676       1.07722409       0.74380810        3       0.00664004       0.00358432       0.00247492
O        6.52578848       2.52587570       0.27117780        4       0.00000000       0.00328936      -0.00476383
O        7.71494217       5.54190614       1.28779242        5      -0.00274992       0.00509430      -0.00000000
O        8.86641847       2.41199944       2.73136374        6       0.00274992      -0.00180494      -0.00476383
O        4.54101108       4.82537374       2.26594074        7      -0.00274992       0.00180494       0.00476383
O        6.88164106       4.71149748       4.72612668        8      -0.00000000      -0.00328936       0.00476383
O        5.69248737       1.69546704       3.70951206        9       0.00274992      -0.00509430      -0.00000000
