10
Lattice="5.700352339571799 -0.03170191828348932 -0.021889729100276003 3.101404895886409 4.782918510559881 -0.02188972910027445 3.101404895886406 1.6741482418238507 4.480403587099555" Properties=species:S:1:pos:R:3:spacegroup_kinds:I:1:forces:R:3 spacegroup="P 1" unit_cell=conventional occupancy="_JSON {\"0\": {\"In\": 1}, \"1\": {\"In\": 1}, \"2\": {\"In\": 1}, \"3\": {\"In\": 1}, \"4\": {\"O\": 1}, \"5\": {\"O\": 1}, \"6\": {\"O\": 1}, \"7\": {\"O\": 1}, \"8\": {\"O\": 1}, \"9\": {\"O\": 1}}" n_minim_iter=1 energy=-11287.611929792913 stress="-0.009259759987996656 0.0036994568623966687 0.0025544229699938892 0.0036994568623966687 -0.01411612527261432 0.001378885658271452 0.0025544229699938892 0.001378885658271452 -0.015161002695805215" free_energy=-11287.611929792913 pbc="T T T"
In      10.20478648       5.50857625       3.80359449        0      -0.02523908      -0.01362414      -0.00940728
In       7.64995672       4.12947101       2.85134170        1       0.02523908       0.01362414       0.00940728
In       4.25320542       2.29589384       1.58528243        2      -0.02523908      -0.01362414      -0.00940728
In       1.69837566       0.91678859       0.63302964        3       0.02523908       0.01362414       0.00940728
O        5.82596671       2.22733535       0.17589683        4      -0.00000000       0.02358992      -0.03416424
O        6.84426348       4.96824542       1.08726631        5      -0.01972129       0.03653423      -0.00000000
O        7.90907483       2.07811356       2.41609862        6       0.01972129      -0.01294431      -0.03416424
O        3.99408731       4.34725128       2.02052551        7      -0.01972129       0.01294431       0.03416424
O        6.07719543       4.19802950       4.26072731        8       0.00000000      -0.02358992       0.03416424
O        5.05889866       1.45711943       3.34935783        9       0.01972129      -0.03653423       0.00000000
10
Lattice="5.690193173623484 -0.042293583619765936 -0.029203125181189577 3.086975654568485 4.780237275331441 -0.02920312518118797 3.0869756545684823 1.6663592913984178 4.480487467113226" Properties=species:S:1:pos:R:3:spacegroup_kinds:I:1:forces:R:3 spacegroup="P 1" unit_cell=conventional occupancy="_JSON {\"0\": {\"In\": 1}, \"1\": {\"In\": 1}, \"2\": {\"In\": 1}, \"3\": {\"In\": 1}, \"4\": {\"O\": 1}, \"5\": {\"O\": 1}, \"6\": {\"O\": 1}, \"7\": {\"O\": 1}, \"8\": {\"O\": 1}, \"9\": {\"O\": 1}}" n_minim_iter=2 energy=-11287.61400046562 stress="-0.01171329169647988 5.6766190601358445e-05 3.919625444138866e-05 5.6766190601358445e-05 -0.011787810030726261 2.1158264402068626e-05 3.919625444138866e-05 2.1158264402068626e-05 -0.01180384311273904" free_energy=-11287.61400046562 pbc="T T T"
In      10.17123324       5.49046410       3.79108831        0       0.01931569       0.01042667       0.00719947
In       7.62498350       4.11599038       2.84203352        1      -0.01931569      -0.01042667      -0.00719947
In       4.23916100       2.28831261       1.58004770        2       0.01931569       0.01042667       0.00719947
In       1.69291125       0.91383889       0.63099291        3      -0.01931569      -0.01042667      -0.00719947
O        5.81113271       2.21791689       0.16694928        4       0.00000000       0.01362703      -0.01973542
O        6.82125945       4.95811345       1.07631718        5      -0.01139226       0.02110448       0.00000000
O        7.88798163       2.06303069       2.40719301        6       0.01139226      -0.00747745      -0.01973542
O        3.97616286       4.34127231       2.01488821        7      -0.01139226       0.00747745       0.01973542
O        6.05301178       4.18638610       4.25513195        8       0.00000000      -0.01362703       0.01973542
O        5.04288505       1.44618955       3.34576404        9       0.01139226      -0.02110447      -0.00000000
10
Lattice="5.6887685317288375 -0.043781457318722496 -0.03023048106275942 3.084950052608175 4.7798626964072986 -0.030230481062757796 3.0849500526081726 1.6652658650080152 4.4805011859534725" Properties=species:S:1:pos:R:3:spacegroup_kinds:I:1:forces:R:3 spacegroup="P 1" unit_cell=conventional occupancy="_JSON {\"0\": {\"In\": 1}, \"1\": {\"In\": 1}, \"2\": {\"In\": 1}, \"3\": {\"In\": 1}, \"4\": {\"O\": 1}, \"5\": {\"O\": 1}, \"6\": {\"O\": 1}, \"7\": {\"O\": 1}, \"8\": {\"O\": 1}, \"9\": {\"O\": 1}}" n_minim_iter=3 energy=-11287.614224444227 stress="-0.011707114194707088 -0.0002550914826368187 -0.0001761370812057455 -0.0002550914826368187 -0.011372249508795767 -9.507936184584397e-05 -0.0001761370812057455 -9.507936184584397e-05 -0.011300201291122507" free_energy=-11287.614224444227 pbc="T T T"
In      10.16794807       5.48869076       3.78986384        0       0.00733229       0.00395799       0.00273294
In       7.62005489       4.11332991       2.84019650        1      -0.00733229      -0.00395799      -0.00273294
In       4.23861375       2.28801721       1.57984373        2       0.00733229       0.00395799       0.00273294
In       1.69072057       0.91265635       0.63017639        3      -0.00733229      -0.00395799      -0.00273294
O        5.80905143       2.21756353       0.16428948        4       0.00000000       0.00140832      -0.00203961
O        6.81722106       4.95819260       1.07477958        5      -0.00117736       0.00218110       0.00000000
O        7.88583185       2.06038126       2.40454007        6       0.00117736      -0.00077278      -0.00203961
O        3.97283679       4.34096585       2.01550015        7      -0.00117736       0.00077278       0.00203961
O        6.04961722       4.18378358       4.25575075        8      -0.00000000      -0.00140832       0.00203961
O        5.04144759       1.44315451       3.34526065        9       0.00117736      -0.00218110       0.00000000
