10
Lattice="5.751251035780531 -0.03198498610312843 -0.02208518345207984 3.129097476311684 4.825625399846377 -0.022085183452078837 3.129097476311681 1.689096784947658 4.52040930735814" Properties=species:S:1:pos:R:3:spacegroup_kinds:I:1:forces:R:3 spacegroup="P 1" unit_cell=conventional occupancy="_JSON {\"0\": {\"In\": 1}, \"1\": {\"In\": 1}, \"2\": {\"In\": 1}, \"3\": {\"In\": 1}, \"4\": {\"O\": 1}, \"5\": {\"O\": 1}, \"6\": {\"O\": 1}, \"7\": {\"O\": 1}, \"8\": {\"O\": 1}, \"9\": {\"O\": 1}}" n_minim_iter=4 energy=-11287.64937979098 stress="-0.009491739311653319 -2.06303630040016e-06 -1.4244929725716085e-06 -2.06303630040016e-06 -0.009489031121643617 -7.689431332905952e-07 -1.4244929725716085e-06 -7.689431332905952e-07 -0.00948844843148135" free_energy=-11287.64937979098 pbc="T T T"
In      10.29590547       5.55776257       3.83755696        0       0.00754246       0.00407144       0.00281127
In       7.71826352       4.16634324       2.87680146        1      -0.00754246      -0.00407144      -0.00281127
In       4.29118248       2.31639397       1.59943749        2       0.00754246       0.00407144       0.00281127
In       1.71354053       0.92497464       0.63868199        3      -0.00754246      -0.00407144      -0.00281127
O        5.87798702       2.24722332       0.17746742        4      -0.00000000       0.00013773      -0.00019947
O        6.90537621       5.01260710       1.09697455        5      -0.00011514       0.00021331      -0.00000000
O        7.97969530       2.09666913       2.43767207        6       0.00011514      -0.00007558      -0.00019947
O        4.02975069       4.38606808       2.03856687        7      -0.00011514       0.00007558       0.00019947
O        6.13145898       4.23551389       4.29877153        8      -0.00000000      -0.00013773       0.00019947
O        5.10406979       1.47013011       3.37926439        9       0.00011514      -0.00021331       0.00000000
