10
Lattice="5.767566074677443 -0.015041826035676331 -0.010386169510312142 3.152214460857776 4.8299677716377944 -0.010386169510311303 3.152214460857775 1.7015754068410565 4.520324953187612" Properties=species:S:1:pos:R:3:spacegroup_kinds:I:1:forces:R:3 spacegroup="P 1" unit_cell=conventional occupancy="_JSON {\"0\": {\"In\": 1}, \"1\": {\"In\": 1}, \"2\": {\"In\": 1}, \"3\": {\"In\": 1}, \"4\": {\"O\": 1}, \"5\": {\"O\": 1}, \"6\": {\"O\": 1}, \"7\": {\"O\": 1}, \"8\": {\"O\": 1}, \"9\": {\"O\": 1}}" n_minim_iter=6 energy=-11287.674149648936 stress="-0.004991622980875753 0.00011766698536854462 8.124739373994851e-05 0.00011766698536854462 -0.005146087232955959 4.385760608303869e-05 8.124739373994851e-05 4.385760608303869e-05 -0.005179321187909802" free_energy=-11287.674149648936 pbc="T T T"
In      10.34980994       5.58686038       3.85764858        0       0.00088544       0.00047796       0.00033003
In       7.75818256       4.18789166       2.89168034        1      -0.00088544      -0.00047796      -0.00033003
In       4.31381244       2.32860970       1.60787228        2       0.00088544       0.00047796       0.00033003
In       1.72218506       0.92964099       0.64190404        3      -0.00088544      -0.00047796      -0.00033003
O        5.90178179       2.26060793       0.19425481        4      -0.00000000      -0.00201546       0.00291891
O        6.94367891       5.02622699       1.11450199        5       0.00168494      -0.00312139      -0.00000000
O        8.01209913       2.12175696       2.45441729        6      -0.00168494       0.00110593       0.00291891
O        4.05989588       4.39474441       2.04513533        7       0.00168494      -0.00110593      -0.00291891
O        6.17021321       4.25589344       4.30529781        8       0.00000000       0.00201546      -0.00291891
O        5.12831609       1.49027437       3.38505063        9      -0.00168494       0.00312139       0.00000000
