10
Lattice="5.520870315782197 -0.052811515250193064 -0.03646560917431884 2.985271460192389 4.6444539408620304 -0.036465609174326 2.9852714601923873 1.6114590433119256 4.356085616831874" Properties=species:S:1:pos:R:3:spacegroup_kinds:I:1:forces:R:3 spacegroup="P 1" unit_cell=conventional occupancy="_JSON {\"0\": {\"In\": 1}, \"1\": {\"In\": 1}, \"2\": {\"In\": 1}, \"3\": {\"In\": 1}, \"4\": {\"O\": 1}, \"5\": {\"O\": 1}, \"6\": {\"O\": 1}, \"7\": {\"O\": 1}, \"8\": {\"O\": 1}, \"9\": {\"O\": 1}}" n_minim_iter=1 energy=-11287.540170734841 stress="0.0014091794509016149 -0.009412820702410708 -0.0064994204279242756 -0.009412820702410708 0.013765613773130693 -0.003508407849064903 -0.0064994204279242756 -0.003508407849064903 0.016424178049035464" free_energy=-11287.540170734841 pbc="T T T"
In       9.86087591       5.32293223       3.67540991        0       0.04576383       0.02470346       0.01705739
In       7.37624395       3.98171998       2.74932170        1      -0.04576383      -0.02470346      -0.01705739
In       4.11516929       2.22138150       1.53383271        2       0.04576383       0.02470346       0.01705739
In       1.63053733       0.88016925       0.60774450        3      -0.04576383      -0.02470346      -0.01705739
O        5.63328847       2.15342394       0.14152448        4      -0.00000000       0.00824857      -0.01194603
O        6.60003165       4.82082675       1.03432299        5      -0.00689584       0.01277474      -0.00000000
O        7.65181675       1.98492329       2.31956729        6       0.00689584      -0.00452617      -0.01194603
O        3.83959650       4.21817819       1.96358711        7      -0.00689584       0.00452617       0.01194603
O        5.85812477       4.04967754       4.14162992        8      -0.00000000      -0.00824857       0.01194603
O        4.89138159       1.38227473       3.24883141        9       0.00689584      -0.01277474       0.00000000
10
Lattice="5.537749506976017 -0.03517188738630982 -0.024285694005865742 3.0092802579782774 4.648885779691479 -0.024285694005872844 3.0092802579782743 1.6244190688328954 4.355914539607394" Properties=species:S:1:pos:R:3:spacegroup_kinds:I:1:forces:R:3 spacegroup="P 1" unit_cell=conventional occupancy="_JSON {\"0\": {\"In\": 1}, \"1\": {\"In\": 1}, \"2\": {\"In\": 1}, \"3\": {\"In\": 1}, \"4\": {\"O\": 1}, \"5\": {\"O\": 1}, \"6\": {\"O\": 1}, \"7\": {\"O\": 1}, \"8\": {\"O\": 1}, \"9\": {\"O\": 1}}" n_minim_iter=2 energy=-11287.548730414996 stress="0.015820035291048053 -0.0005241154336490929 -0.0003618943340947649 -0.0005241154336490929 0.016508054097764038 -0.00019535171218489677 -0.0003618943340947649 -0.00019535171218489677 0.01665608566113977" free_energy=-11287.548730414996 pbc="T T T"
In       9.91670226       5.35306747       3.69621787        0      -0.08385363      -0.04526446      -0.03125447
In       7.41776278       4.00413198       2.76479686        1       0.08385363       0.04526446       0.03125447
In       4.13854725       2.23400099       1.54254629        2      -0.08385363      -0.04526446      -0.03125447
In       1.63960777       0.88506550       0.61112529        3       0.08385363       0.04526446       0.03125447
O        5.65795226       2.16925749       0.15618758        4       0.00000000       0.02370411      -0.03432960
O        6.63815795       4.83791918       1.05255010        5      -0.01981675       0.03671107      -0.00000000
O        7.68702684       2.00993803       2.33414485        6       0.01981675      -0.01300696      -0.03432960
O        3.86928320       4.22819494       1.97319831        7      -0.01981675       0.01300696       0.03432960
O        5.89835777       4.06887548       4.15115558        8      -0.00000000      -0.02370411       0.03432960
O        4.91815208       1.40021379       3.25479306        9       0.01981675      -0.03671107      -0.00000000
10
Lattice="5.543584380179836 -0.029095489698429473 -0.020090026787754955 3.0175618791342678 4.650429510624835 -0.020090026787762057 3.0175618791342638 1.6288895143126654 4.355871576691508" Properties=species:S:1:pos:R:3:spacegroup_kinds:I:1:forces:R:3 spacegroup="P 1" unit_cell=conventional occupancy="_JSON {\"0\": {\"In\": 1}, \"1\": {\"In\": 1}, \"2\": {\"In\": 1}, \"3\": {\"In\": 1}, \"4\": {\"O\": 1}, \"5\": {\"O\": 1}, \"6\": {\"O\": 1}, \"7\": {\"O\": 1}, \"8\": {\"O\": 1}, \"9\": {\"O\": 1}}" n_minim_iter=3 energy=-11287.549929643103 stress="0.01931023256064583 0.00119875989734887 0.000827726871064944 0.00119875989734887 0.017736591840681378 0.0004468095961550683 0.000827726871064944 0.0004468095961550683 0.01739801317970853" free_energy=-11287.549929643103 pbc="T T T"
In       9.93237395       5.36152710       3.70205912        0      -0.03602819      -0.01944813      -0.01342866
In       7.43568827       4.01380822       2.77147817        1       0.03602819       0.01944813       0.01342866
In       4.14301988       2.23641533       1.54421336        2      -0.03602819      -0.01944813      -0.01342866
In       1.64633420       0.88869645       0.61363241        3       0.03602819       0.01944813       0.01342866
O        5.66646923       2.17566836       0.15986557        4       0.00000000      -0.00518343       0.00750694
O        6.65052310       4.84529399       1.05883286        5       0.00433338      -0.00802770      -0.00000000
O        7.69997724       2.01804203       2.33780136        6      -0.00433338       0.00284426       0.00750694
O        3.87873091       4.23218152       1.97789017        7       0.00433338      -0.00284426      -0.00750694
O        5.91223892       4.07455518       4.15582595        8       0.00000000       0.00518343      -0.00750694
O        4.92818505       1.40492956       3.25685867        9      -0.00433338       0.00802770       0.00000000
10
Lattice="5.542166430448589 -0.030571133192105887 -0.02110893788443733 3.0155501738228 4.650053815401839 -0.021108937884444443 3.015550173822795 1.6278035893775717 4.355881259607679" Properties=species:S:1:pos:R:3:spacegroup_kinds:I:1:forces:R:3 spacegroup="P 1" unit_cell=conventional occupancy="_JSON {\"0\": {\"In\": 1}, \"1\": {\"In\": 1}, \"2\": {\"In\": 1}, \"3\": {\"In\": 1}, \"4\": {\"O\": 1}, \"5\": {\"O\": 1}, \"6\": {\"O\": 1}, \"7\": {\"O\": 1}, \"8\": {\"O\": 1}, \"9\": {\"O\": 1}}" n_minim_iter=4 energy=-11287.550113170753 stress="0.017982053938538172 0.00011268238970213793 7.78056010831734e-05 0.00011268238970213793 0.017834133078535354 4.199971188671313e-05 7.78056010831734e-05 4.199971188671313e-05 0.01780230698613055" free_energy=-11287.550113170753 pbc="T T T"
In       9.92702896       5.35864186       3.70006690        0      -0.01116875      -0.00602893      -0.00416289
In       7.43287122       4.01228756       2.77042818        1       0.01116875       0.00602893       0.00416289
In       4.14039557       2.23499872       1.54323521        2      -0.01116875      -0.00602893      -0.00416289
In       1.64623783       0.88864443       0.61359649        3       0.01116875       0.00602893       0.00416289
O        5.66439991       2.17434710       0.15863058        4      -0.00000000      -0.00884985       0.01281684
O        6.64732180       4.84386766       1.05730691        5       0.00739852      -0.01370596       0.00000000
O        7.69702820       2.01594414       2.33657121        6      -0.00739852       0.00485611       0.01281684
O        3.87623858       4.23134214       1.97709218        7       0.00739852      -0.00485611      -0.01281684
O        5.90886687       4.07293919       4.15503281        8      -0.00000000       0.00884985      -0.01281684
O        4.92594499       1.40341862       3.25635648        9      -0.00739852       0.01370596       0.00000000
10
Lattice="5.541849102993371 -0.03090145987250195 -0.021337023815509497 3.0150998945641603 4.649969785533007 -0.02133702381551664 3.015099894564156 1.6275605271994662 4.35588349307663" Properties=species:S:1:pos:R:3:spacegroup_kinds:I:1:forces:R:3 spacegroup="P 1" unit_cell=conventional occupancy="_JSON {\"0\": {\"In\": 1}, \"1\": {\"In\": 1}, \"2\": {\"In\": 1}, \"3\": {\"In\": 1}, \"4\": {\"O\": 1}, \"5\": {\"O\": 1}, \"6\": {\"O\": 1}, \"7\": {\"O\": 1}, \"8\": {\"O\": 1}, \"9\": {\"O\": 1}}" n_minim_iter=5 energy=-11287.550157997615 stress="0.017464769142869156 -0.00030201018098032395 -0.00020853379053083562 -0.00030201018098032395 0.017861225118525444 -0.00011256720353879577 -0.00020853379053083562 -0.00011256720353879577 0.017946525118630957" free_energy=-11287.550157997615 pbc="T T T"
In       9.92529159       5.35770402       3.69941934        0       0.00390902       0.00211010       0.00145699
In       7.43278176       4.01223927       2.77039484        1      -0.00390902      -0.00211010      -0.00145699
In       4.13926714       2.23438959       1.54281461        2       0.00390902       0.00211010       0.00145699
In       1.64675731       0.88892485       0.61379011        3      -0.00390901      -0.00211010      -0.00145699
O        5.66393678       2.17379610       0.15872382        4      -0.00000000      -0.00527061       0.00763319
O        6.64681869       4.84315312       1.05696534        5       0.00440626      -0.00816271       0.00000000
O        7.69615477       2.01561462       2.33666556        6      -0.00440626       0.00289210       0.00763319
O        3.87589413       4.23101424       1.97654389        7       0.00440626      -0.00289210      -0.00763319
O        5.90811212       4.07283277       4.15448563        8      -0.00000000       0.00527061      -0.00763319
O        4.92523022       1.40347575       3.25624411        9      -0.00440626       0.00816271      -0.00000000
