10
Lattice="5.100656296898567 -0.3243793530051892 -0.22397938508047244 2.52765878182265 4.442168131264496 -0.22397938508047022 2.52765878182265 1.3644382618766575 4.233359505273552" Properties=species:S:1:pos:R:3:spacegroup_kinds:I:1:forces:R:3 spacegroup="P 1" unit_cell=conventional occupancy="_JSON {\"0\": {\"In\": 1}, \"1\": {\"In\": 1}, \"2\": {\"In\": 1}, \"3\": {\"In\": 1}, \"4\": {\"O\": 1}, \"5\": {\"O\": 1}, \"6\": {\"O\": 1}, \"7\": {\"O\": 1}, \"8\": {\"O\": 1}, \"9\": {\"O\": 1}}" n_minim_iter=1 energy=-11285.086247473973 stress="-0.3489668670841545 -0.007412211605538697 -0.005118027957534688 -0.007412211605538697 -0.33923668005169716 -0.002762727795133082 -0.005118027957534688 -0.002762727795133082 -0.337143169337837" free_energy=-11285.086247473973 pbc="T T T"
In       8.86072812       4.78304927       3.30262831        0       0.06221401       0.03358332       0.02318881
In       6.37323266       3.44029129       2.37547279        1      -0.06221401      -0.03358332      -0.02318881
In       3.78274119       2.04193575       1.40992794        2       0.06221401       0.03358332       0.02318881
In       1.29524572       0.69917777       0.48277242        3      -0.06221401      -0.03358332      -0.02318881
O        5.08932161       1.86489927      -0.11646580        4      -0.00000000      -0.13402014       0.19409539
O        5.80428681       4.44623689       0.72237080        5       0.11204150      -0.20755991       0.00000000
O        6.90201518       1.53033266       2.00021395        6      -0.11204150       0.07353978       0.19409539
O        3.25395867       3.95189438       1.78518678        7       0.11204150      -0.07353978      -0.19409539
O        5.06665224       3.61732777       3.90186653        8       0.00000000       0.13402014      -0.19409539
O        4.35168703       1.03599014       3.06302993        9      -0.11204150       0.20755991       0.00000000
10
Lattice="5.112276372485149 -0.311064844430319 -0.2147859040046273 2.545165966696282 4.44457661066623 -0.21478590400462502 2.545165966696282 1.3738886960377539 4.2323544373717175" Properties=species:S:1:pos:R:3:spacegroup_kinds:I:1:forces:R:3 spacegroup="P 1" unit_cell=conventional occupancy="_JSON {\"0\": {\"In\": 1}, \"1\": {\"In\": 1}, \"2\": {\"In\": 1}, \"3\": {\"In\": 1}, \"4\": {\"O\": 1}, \"5\": {\"O\": 1}, \"6\": {\"O\": 1}, \"7\": {\"O\": 1}, \"8\": {\"O\": 1}, \"9\": {\"O\": 1}}" n_minim_iter=2 energy=-11285.091480114133 stress="-0.3376378703984462 0.0003301437528007128 0.0002279596220616573 0.0003301437528007128 -0.33807125798123344 0.00012305333045330047 0.0002279596220616573 0.00012305333045330047 -0.3381645040373363" free_energy=-11285.091480114133 pbc="T T T"
In       8.90162760       4.80512694       3.31787263        0      -0.08726370      -0.04710522      -0.03252550
In       6.40228485       3.45597376       2.38630131        1       0.08726370       0.04710522       0.03252550
In       3.80032345       2.05142670       1.41648131        2      -0.08726370      -0.04710522      -0.03252550
In       1.30098069       0.70227353       0.48491000        3       0.08726370       0.04710522       0.03252550
O        5.10679026       1.87589293      -0.10468942        4      -0.00000000      -0.06288035       0.09106681
O        5.83214508       4.45736097       0.73590975        5       0.05256829      -0.09738417       0.00000000
O        6.92660140       1.54908231       2.01148780        6      -0.05256829       0.03450382       0.09106681
O        3.27600689       3.95831815       1.79129483        7       0.05256829      -0.03450382      -0.09106681
O        5.09581804       3.63150753       3.90747205        8       0.00000000       0.06288035      -0.09106681
O        4.37046322       1.05003949       3.06687287        9      -0.05256829       0.09738417      -0.00000000
10
Lattice="5.111471349822934 -0.31198517347403676 -0.2154213782768764 2.5439548335062176 4.44440861235875 -0.2154213782768742 2.543954833506218 1.3732349224838882 4.232422489721223" Properties=species:S:1:pos:R:3:spacegroup_kinds:I:1:forces:R:3 spacegroup="P 1" unit_cell=conventional occupancy="_JSON {\"0\": {\"In\": 1}, \"1\": {\"In\": 1}, \"2\": {\"In\": 1}, \"3\": {\"In\": 1}, \"4\": {\"O\": 1}, \"5\": {\"O\": 1}, \"6\": {\"O\": 1}, \"7\": {\"O\": 1}, \"8\": {\"O\": 1}, \"9\": {\"O\": 1}}" n_minim_iter=3 energy=-11285.094035107088 stress="-0.33580971535216303 -8.89310775654796e-05 -6.140566130370865e-05 -8.89310775654796e-05 -0.33569297340418364 -3.314697063849258e-05 -6.140566130370865e-05 -3.314697063849258e-05 -0.33566785564155655" free_energy=-11285.094035107088 pbc="T T T"
In       8.89524208       4.80168001       3.31549257        0      -0.03475900      -0.01876302      -0.01295560
In       6.40382943       3.45680753       2.38687702        1       0.03475900       0.01876302       0.01295560
In       3.79555157       2.04885083       1.41470271        2      -0.03475900      -0.01876302      -0.01295560
In       1.30413892       0.70397835       0.48608716        3       0.03475900       0.01876302       0.01295560
O        5.10558092       1.87227336      -0.10136300        4       0.00000000       0.01334526      -0.01932734
O        5.83260736       4.45216274       0.73497355        5      -0.01115670       0.02066809       0.00000000
O        6.92250932       1.54935439       2.01484824        6       0.01115670      -0.00732283      -0.01932734
O        3.27687168       3.95630398       1.78673149        7      -0.01115670       0.00732283       0.01932734
O        5.09380008       3.63338500       3.90294273        8       0.00000000      -0.01334526       0.01932734
O        4.36677365       1.05349562       3.06660618        9       0.01115670      -0.02066809       0.00000000
10
Lattice="5.112201649791692 -0.3111502569645824 -0.21484488015932152 2.545053559417527 4.44456100984542 -0.2148448801593193 2.5450535594175276 1.3738280182306266 4.232360744205686" Properties=species:S:1:pos:R:3:spacegroup_kinds:I:1:forces:R:3 spacegroup="P 1" unit_cell=conventional occupancy="_JSON {\"0\": {\"In\": 1}, \"1\": {\"In\": 1}, \"2\": {\"In\": 1}, \"3\": {\"In\": 1}, \"4\": {\"O\": 1}, \"5\": {\"O\": 1}, \"6\": {\"O\": 1}, \"7\": {\"O\": 1}, \"8\": {\"O\": 1}, \"9\": {\"O\": 1}}" n_minim_iter=4 energy=-11285.094145199515 stress="-0.33574993943205117 -7.84154708408685e-05 -5.4144781763309275e-05 -7.84154708408685e-05 -0.33564700157387073 -2.9227525691699572e-05 -5.4144781763309275e-05 -2.9227525691699572e-05 -0.33562485384797397" free_energy=-11285.094145199515 pbc="T T T"
In       8.89719624       4.80273487       3.31622094        0      -0.01501688      -0.00810616      -0.00559719
In       6.40626690       3.45812328       2.38778553        1       0.01501688       0.00810616       0.00559719
In       3.79604186       2.04911549       1.41488545        2      -0.01501688      -0.00810616      -0.00559719
In       1.30511252       0.70450390       0.48645004        3       0.01501688       0.00810616       0.00559719
O        5.10667801       1.87309564      -0.10081602        4       0.00000000       0.00568997      -0.00824053
O        5.83424568       4.45306656       0.73582286        5      -0.00475685       0.00881218       0.00000000
O        6.92416390       1.55045816       2.01536435        6       0.00475685      -0.00312221      -0.00824053
O        3.27814485       3.95678061       1.78730663        7      -0.00475685       0.00312221       0.00824053
O        5.09563075       3.63414313       3.90348700        8      -0.00000000      -0.00568997       0.00824053
O        4.36806308       1.05417221       3.06684812        9       0.00475685      -0.00881218      -0.00000000
10
Lattice="5.112914438461474 -0.3103356046263107 -0.2142823741672169 2.5461257355484026 4.44470988719226 -0.21428237416721468 2.546125735548403 1.374406782321317 4.232300664401401" Properties=species:S:1:pos:R:3:spacegroup_kinds:I:1:forces:R:3 spacegroup="P 1" unit_cell=conventional occupancy="_JSON {\"0\": {\"In\": 1}, \"1\": {\"In\": 1}, \"2\": {\"In\": 1}, \"3\": {\"In\": 1}, \"4\": {\"O\": 1}, \"5\": {\"O\": 1}, \"6\": {\"O\": 1}, \"7\": {\"O\": 1}, \"8\": {\"O\": 1}, \"9\": {\"O\": 1}}" n_minim_iter=5 energy=-11285.094173995962 stress="-0.33561048167386176 -3.7836594310480392e-06 -2.612563554608426e-06 -3.7836594310480392e-06 -0.3356055147758 -1.410270599659059e-06 -2.612563554608426e-06 -1.410270599659059e-06 -0.3356044461156159" free_energy=-11285.094173995962 pbc="T T T"
In       8.89919049       4.80381137       3.31696425        0      -0.00002334      -0.00001260      -0.00000870
In       6.40855837       3.45936022       2.38863962        1       0.00002334       0.00001260       0.00000870
In       3.79660753       2.04942084       1.41509629        2      -0.00002334      -0.00001260      -0.00000870
In       1.30597541       0.70496969       0.48677166        3       0.00002334       0.00001260       0.00000870
O        5.10774869       1.87387878      -0.10025439        4       0.00000000      -0.00002427       0.00003515
O        5.83586061       4.45391877       0.73665160        5       0.00002029      -0.00003759       0.00000000
O        6.92576250       1.55154580       2.01589594        6      -0.00002029       0.00001332       0.00003515
O        3.27940339       3.95723526       1.78783997        7       0.00002029      -0.00001332      -0.00003515
O        5.09741721       3.63490229       3.90399030        8      -0.00000000       0.00002427      -0.00003515
O        4.36930529       1.05486229       3.06708431        9      -0.00002029       0.00003759      -0.00000000
