10
Lattice="6.269820808226178 0.06856621947934602 0.04734401105989315 3.4977093482102077 5.203977671854735 0.04734401105988528 3.497709348210201 1.8880746475520727 4.849618458169366" Properties=species:S:1:pos:R:3:spacegroup_kinds:I:1:forces:R:3 spacegroup="P 1" unit_cell=conventional occupancy="_JSON {\"0\": {\"In\": 1}, \"1\": {\"In\": 1}, \"2\": {\"In\": 1}, \"3\": {\"In\": 1}, \"4\": {\"O\": 1}, \"5\": {\"O\": 1}, \"6\": {\"O\": 1}, \"7\": {\"O\": 1}, \"8\": {\"O\": 1}, \"9\": {\"O\": 1}}" n_minim_iter=4 energy=-11286.914120942238 stress="0.05849399068956247 -1.0345210095452229e-05 -7.143222024360162e-06 -1.0345210095452229e-05 0.058507571093783496 -3.855933782086529e-06 -7.143222024360162e-06 -3.855933782086529e-06 0.058510493004003135" free_energy=-11286.914120942238 pbc="T T T"
In      11.28270696       6.09044116       4.20536403        0      -0.00587869      -0.00317334      -0.00219114
In       8.61515231       4.65048666       3.21109569        1       0.00587869       0.00317334       0.00219114
In       4.65008720       2.51013189       1.73321079        2      -0.00587869      -0.00317334      -0.00219114
In       1.98253256       1.07017739       0.73894245        3       0.00587869       0.00317333       0.00219114
O        6.45122029       2.49805579       0.28417767        4      -0.00000000      -0.00539561       0.00781421
O        7.63692692       5.46967356       1.28342063        5       0.00451075      -0.00835629       0.00000000
O        8.76322300       2.39884614       2.70898690        6      -0.00451075       0.00296069       0.00781421
O        4.50201652       4.76177241       2.23531959        7       0.00451075      -0.00296069      -0.00781421
O        6.81401923       4.66256276       4.66012882        8      -0.00000000       0.00539561      -0.00781421
O        5.62831260       1.69094499       3.66088585        9      -0.00451075       0.00835629      -0.00000000
