10
Lattice="5.527863744265537 -0.04184221832100893 -0.0288914637849679 2.998279294099532 4.644281389081994 -0.02889146378495606 2.9982792940995293 1.6184807134893333 4.353240691452307" Properties=species:S:1:pos:R:3:spacegroup_kinds:I:1:forces:R:3 spacegroup="P 1" unit_cell=conventional occupancy="_JSON {\"0\": {\"In\": 1}, \"1\": {\"In\": 1}, \"2\": {\"In\": 1}, \"3\": {\"In\": 1}, \"4\": {\"O\": 1}, \"5\": {\"O\": 1}, \"6\": {\"O\": 1}, \"7\": {\"O\": 1}, \"8\": {\"O\": 1}, \"9\": {\"O\": 1}}" n_minim_iter=6 energy=-11286.711218885239 stress="-0.1191326592130532 -4.3720743578883425e-05 -3.0188558860424073e-05 -4.3720743578883425e-05 -0.11907526595154952 -1.6295880725549093e-05 -3.0188558860424073e-05 -1.6295880725549093e-05 -0.11906291743267365" free_energy=-11286.711218885239 pbc="T T T"
In       9.92216927       5.35601858       3.69825557        0      -0.00329348      -0.00177783      -0.00122757
In       7.36446424       3.97536126       2.74493108        1       0.00329348       0.00177783       0.00122757
In       4.15995810       2.24555864       1.55052668        2      -0.00329348      -0.00177783      -0.00122757
In       1.60225307       0.86490132       0.59720220        3       0.00329348       0.00177783       0.00122757
O        5.64503746       2.17382107       0.13324171        4       0.00000000       0.00313574      -0.00454136
O        6.60954171       4.84687609       1.04497298        5      -0.00262150       0.00485640      -0.00000000
O        7.67881250       1.99263491       2.30986205        6       0.00262150      -0.00172065      -0.00454136
O        3.84560984       4.22828499       1.98559571        7      -0.00262150       0.00172065       0.00454136
O        5.87938488       4.04709882       4.16221606        8       0.00000000      -0.00313574       0.00454136
O        4.91488063       1.37404381       3.25048479        9       0.00262150      -0.00485640       0.00000000
