10
Lattice="5.809900316084587 0.03225998322190849 0.022275065098347903 3.214988732310596 4.839403872428214 0.022275065098345433 3.2149887323105935 1.7354611585285973 4.5175768489575105" Properties=species:S:1:pos:R:3:spacegroup_kinds:I:1:forces:R:3 spacegroup="P 1" unit_cell=conventional occupancy="_JSON {\"0\": {\"In\": 1}, \"1\": {\"In\": 1}, \"2\": {\"In\": 1}, \"3\": {\"In\": 1}, \"4\": {\"O\": 1}, \"5\": {\"O\": 1}, \"6\": {\"O\": 1}, \"7\": {\"O\": 1}, \"8\": {\"O\": 1}, \"9\": {\"O\": 1}}" n_minim_iter=6 energy=-11287.666776699138 stress="-0.009560917127325257 3.443639692157103e-05 2.377784901110493e-05 3.443639692157103e-05 -0.009606122607727698 1.2835359105509931e-05 2.377784901110493e-05 1.2835359105509931e-05 -0.009615848850484594" free_energy=-11287.666776699138 pbc="T T T"
In      10.48321302       5.65887179       3.90737145        0      -0.00371223      -0.00200388      -0.00138365
In       7.87660366       4.25181575       2.93581902        1       0.00371223       0.00200388       0.00138365
In       4.36327413       2.35530928       1.62630796        2      -0.00371223      -0.00200388      -0.00138365
In       1.75666477       0.94825324       0.65475554        3       0.00371223       0.00200388       0.00138365
O        5.96491961       2.30179038       0.23365041        4       0.00000000      -0.00297363       0.00430658
O        7.04248786       5.06931565       1.16280681        5       0.00248597      -0.00460533       0.00000000
O        8.10234009       2.18781850       2.49243883        6      -0.00248597       0.00163170       0.00430658
O        4.13753770       4.41930652       2.06968815        7       0.00248597      -0.00163170      -0.00430658
O        6.27495818       4.30533464       4.32847658        8       0.00000000       0.00297363      -0.00430658
O        5.19738993       1.53780938       3.39932017        9      -0.00248597       0.00460533      -0.00000000
