10
Lattice="5.781366562592993 0.05529927687919492 0.038183373621194006 3.2185926027880973 4.802907348509796 0.038183373621195324 3.2185926027880942 1.7374065392918923 4.477811461597762" Properties=species:S:1:pos:R:3:spacegroup_kinds:I:1:forces:R:3 spacegroup="P 1" unit_cell=conventional occupancy="_JSON {\"0\": {\"In\": 1}, \"1\": {\"In\": 1}, \"2\": {\"In\": 1}, \"3\": {\"In\": 1}, \"4\": {\"O\": 1}, \"5\": {\"O\": 1}, \"6\": {\"O\": 1}, \"7\": {\"O\": 1}, \"8\": {\"O\": 1}, \"9\": {\"O\": 1}}" n_minim_iter=4 energy=-11287.615633653684 stress="-0.022306438338912337 -0.00023095699216675028 -0.00015947255729641927 -0.00023095699216675028 -0.022003255583493826 -8.608379436560347e-05 -0.00015947255729641927 -8.608379436560347e-05 -0.02193802391434181" free_energy=-11287.615633653684 pbc="T T T"
In      10.45956332       5.64610560       3.89855658        0      -0.00654263      -0.00353173      -0.00243861
In       7.86826434       4.24731416       2.93271074        1       0.00654263       0.00353173       0.00243861
In       4.35028743       2.34829902       1.62146747        2      -0.00654263      -0.00353173      -0.00243861
In       1.75898846       0.94950758       0.65562164        3       0.00654263       0.00353173       0.00243861
O        5.94532123       2.30525958       0.24710845        4      -0.00000000      -0.00343793       0.00497900
O        7.02901564       5.05169832       1.17672793        5       0.00287413      -0.00532439       0.00000000
O        8.08021942       2.20027113       2.48601418        6      -0.00287413       0.00188647       0.00497900
O        4.13833236       4.39534204       2.06816403        7       0.00287413      -0.00188647      -0.00497900
O        6.27323055       4.29035360       4.30706976        8      -0.00000000       0.00343793      -0.00497900
O        5.18953614       1.54391485       3.37745029        9      -0.00287413       0.00532439       0.00000000
