10
Lattice="6.025439731985121 -0.04404985535120844 -0.030415806132665847 3.269464512955712 5.061468774186458 -0.0304158061326716 3.2694645129557056 1.764867358444628 4.74390498222973" Properties=species:S:1:pos:R:3:spacegroup_kinds:I:1:forces:R:3 spacegroup="P 1" unit_cell=conventional occupancy="_JSON {\"0\": {\"In\": 1}, \"1\": {\"In\": 1}, \"2\": {\"In\": 1}, \"3\": {\"In\": 1}, \"4\": {\"O\": 1}, \"5\": {\"O\": 1}, \"6\": {\"O\": 1}, \"7\": {\"O\": 1}, \"8\": {\"O\": 1}, \"9\": {\"O\": 1}}" n_minim_iter=4 energy=-11287.525047191693 stress="0.032523598458697824 -0.00028177132304064284 -0.00019455913860457133 -0.00028177132304064284 0.03289348639740487 -0.00010502364201865649 -0.00019455913860457133 -0.00010502364201865649 0.032973070106414634" free_energy=-11287.525047191693 pbc="T T T"
In      10.75781138       5.80710085       4.00972153        0      -0.00270122      -0.00145813      -0.00100682
In       8.08874177       4.36632858       3.01488852        1       0.00270122       0.00145813       0.00100682
In       4.47562700       2.41595771       1.66818485        2      -0.00270122      -0.00145813      -0.00100682
In       1.80655739       0.97518544       0.67335184        3       0.00270122       0.00145813       0.00100682
O        6.15381206       2.33579474       0.19645608        4       0.00000000       0.00321935      -0.00466244
O        7.23490161       5.22991912       1.14035254        5      -0.00269139       0.00498588      -0.00000000
O        8.34218702       2.19259033       2.56840857        6       0.00269139      -0.00176653      -0.00466244
O        4.22218175       4.58969596       2.11466481        7      -0.00269139       0.00176653       0.00466244
O        6.41055671       4.44649155       4.48661730        8      -0.00000000      -0.00321935       0.00466244
O        5.32946715       1.55236717       3.54272084        9       0.00269139      -0.00498588      -0.00000000
