10
Lattice="5.6032858091610995 0.03603613793747372 0.024882446867028254 3.104771722865818 4.664601055961433 0.024882446867034003 3.1047717228658125 1.6759656657518098 4.353189777009463" Properties=species:S:1:pos:R:3:spacegroup_kinds:I:1:forces:R:3 spacegroup="P 1" unit_cell=conventional occupancy="_JSON {\"0\": {\"In\": 1}, \"1\": {\"In\": 1}, \"2\": {\"In\": 1}, \"3\": {\"In\": 1}, \"4\": {\"O\": 1}, \"5\": {\"O\": 1}, \"6\": {\"O\": 1}, \"7\": {\"O\": 1}, \"8\": {\"O\": 1}, \"9\": {\"O\": 1}}" n_minim_iter=5 energy=-11287.0735368712 stress="-0.09467030455551859 2.851622590677753e-05 1.969005151436159e-05 2.851622590677753e-05 -0.09470773848600923 1.062875262269388e-05 1.969005151436159e-05 1.062875262269388e-05 -0.09471579262953864" free_energy=-11287.0735368712 pbc="T T T"
In      10.13481427       5.47080503       3.77751399        0      -0.00291229      -0.00157206      -0.00108549
In       7.58442962       4.09409927       2.82691802        1       0.00291229       0.00157206       0.00108549
In       4.22839964       2.28250360       1.57603666        2      -0.00291229      -0.00157206      -0.00108549
In       1.67801500       0.90579784       0.62544068        3       0.00291229       0.00157206       0.00108549
O        5.75485022       2.23730189       0.20782751        4       0.00000000       0.00054688      -0.00079203
O        6.78462170       4.91262661       1.12562112        5      -0.00045720       0.00084697      -0.00000000
O        7.82985047       2.10712743       2.38442240        6       0.00045720      -0.00030009      -0.00079203
O        3.98297879       4.26947544       2.01853228        7      -0.00045720       0.00030009       0.00079203
O        6.05797904       4.13930098       4.19512717        8       0.00000000      -0.00054688       0.00079203
O        5.02820757       1.46397626       3.27733356        9       0.00045720      -0.00084697       0.00000000
