10
Lattice="6.440541315720915 0.11041104421134405 0.07623727453502803 3.6263699022995826 5.323739697795875 0.07623727453502283 3.626369902299577 1.9575260244769364 4.951374390551757" Properties=species:S:1:pos:R:3:spacegroup_kinds:I:1:forces:R:3 spacegroup="P 1" unit_cell=conventional occupancy="_JSON {\"0\": {\"In\": 1}, \"1\": {\"In\": 1}, \"2\": {\"In\": 1}, \"3\": {\"In\": 1}, \"4\": {\"O\": 1}, \"5\": {\"O\": 1}, \"6\": {\"O\": 1}, \"7\": {\"O\": 1}, \"8\": {\"O\": 1}, \"9\": {\"O\": 1}}" n_minim_iter=4 energy=-11286.455198491474 stress="0.08142009732909336 -6.802529488634903e-06 -4.697051659636117e-06 -6.802529488634903e-06 0.08142902717178505 -2.5354826185818697e-06 -4.697051659636117e-06 -2.5354826185818697e-06 0.0814309484838924" free_energy=-11286.455198491474 pbc="T T T"
In      11.62998122       6.27790091       4.33480236        0      -0.00468256      -0.00252766      -0.00174531
In       8.90994047       4.80961425       3.32097105        1       0.00468256       0.00252766       0.00174531
In       4.78334066       2.58206253       1.78287789        2      -0.00468256      -0.00252766      -0.00174531
In       2.06329991       1.11377587       0.76904658        3       0.00468256       0.00252766       0.00174531
O        6.64359094       2.59542563       0.31145235        4       0.00000000      -0.00316424       0.00458262
O        7.87800888       5.63717611       1.35219951        5       0.00264532      -0.00490052       0.00000000
O        9.03554290       2.50200710       2.78713955        6      -0.00264532       0.00173628       0.00458262
O        4.65773823       4.88966968       2.31670940        7       0.00264532      -0.00173628      -0.00458262
O        7.04969019       4.79625115       4.79239659        8       0.00000000       0.00316424      -0.00458262
O        5.81527225       1.75450067       3.75164943        9      -0.00264532       0.00490052      -0.00000000
