
     Program PWSCF v.6.5 starts on  7Jul2021 at 16: 2: 7 

     This program is part of the open-source Quantum ESPRESSO suite
     for quantum simulation of materials; please cite
         "P. Giannozzi et al., J. Phys.:Condens. Matter 21 395502 (2009);
         "P. Giannozzi et al., J. Phys.:Condens. Matter 29 465901 (2017);
          URL http://www.quantum-espresso.org", 
     in publications or presentations arising from this work. More details at
     http://www.quantum-espresso.org/quote

     Parallel version (MPI), running on    40 processors

     MPI processes distributed on     1 nodes
     R & G space division:  proc/nbgrp/npool/nimage =      40
     Reading input from pw.inp

     Current dimensions of program PWSCF are:
     Max number of different atomic species (ntypx) = 10
     Max number of k-points (npk) =  40000
     Max angular momentum in pseudopotentials (lmaxx) =  3
     Message from routine cell_base_init:
     DEPRECATED: use true lattice parameter, not A to a.u. conversion factor
     Message from routine read_upf::
     Pseudo file In.UPF has been fixed on the fly.
To avoid this message in the future, permanently fix 
 your pseudo files following these instructions: 
https://gitlab.com/QEF/q-e/blob/master/upftools/how_to_fix_upf.md
     Message from routine read_upf::
     Pseudo file O.UPF has been fixed on the fly.
To avoid this message in the future, permanently fix 
 your pseudo files following these instructions: 
https://gitlab.com/QEF/q-e/blob/master/upftools/how_to_fix_upf.md

     IMPORTANT: XC functional enforced from input :
     Exchange-correlation= PBE
                           (   1   4   3   4   0   0   0)
     Any further DFT definition will be discarded
     Please, verify this is what you really want

               file In.UPF: wavefunction(s)  5S renormalized
               file O.UPF: wavefunction(s)  2P renormalized

     Subspace diagonalization in iterative solution of the eigenvalue problem:
     a serial algorithm will be used

 
     Parallelization info
     --------------------
     sticks:   dense  smooth     PW     G-vecs:    dense   smooth      PW
     Min         426     213     56                35896    12693    1724
     Max         427     214     57                35900    12695    1728
     Sum       17077    8543   2257              1435947   507749   69037
 


     bravais-lattice index     =            0
     lattice parameter (alat)  =       1.8897  a.u.
     unit-cell volume          =    7170.9467 (a.u.)^3
     number of atoms/cell      =           80
     number of atomic types    =            2
     number of electrons       =       704.00
     number of Kohn-Sham states=          372
     kinetic-energy cutoff     =      65.0000  Ry
     charge density cutoff     =     520.0000  Ry
     convergence threshold     =      7.3E-09
     mixing beta               =       0.5000
     number of iterations used =           10  plain     mixing
     Exchange-correlation= PBE
                           (   1   4   3   4   0   0   0)

     celldm(1)=   1.889726  celldm(2)=   0.000000  celldm(3)=   0.000000
     celldm(4)=   0.000000  celldm(5)=   0.000000  celldm(6)=   0.000000

     crystal axes: (cart. coord. in units of alat)
               a(1) = (  11.758813   0.000000   0.000000 )  
               a(2) = (   6.452317   9.830426   0.000000 )  
               a(3) = (   6.452317   3.482982   9.192721 )  

     reciprocal axes: (cart. coord. in units 2 pi/alat)
               b(1) = (  0.085043 -0.055819 -0.038542 )  
               b(2) = (  0.000000  0.101725 -0.038542 )  
               b(3) = (  0.000000  0.000000  0.108782 )  


     PseudoPot. # 1 for In read from file:
     /gpfs/nobackup/projects/quantumchemistry/rom_cq/SOAPML/data/In2O3/espresso_calculations/psp_copy/In.UPF
     MD5 check sum: b236236d7d320b3bac520569a9051741
     Pseudo is Ultrasoft + core correction, Zval = 13.0
     Generated using "atomic" code by A. Dal Corso v.5.0.99 svn rev. 10869
     Using radial grid of 1241 points,  6 beta functions with: 
                l(1) =   0
                l(2) =   0
                l(3) =   1
                l(4) =   1
                l(5) =   2
                l(6) =   2
     Q(r) pseudized with 0 coefficients 


     PseudoPot. # 2 for O  read from file:
     /gpfs/nobackup/projects/quantumchemistry/rom_cq/SOAPML/data/In2O3/espresso_calculations/psp_copy/O.UPF
     MD5 check sum: 3f94a2996a3169367d6eb21d9b593f20
     Pseudo is Projector augmented-wave + core cor, Zval =  6.0
     Generated using "atomic" code by A. Dal Corso v.5.0.99 svn rev. 10869
     Shape of augmentation charge: BESSEL
     Using radial grid of 1095 points,  4 beta functions with: 
                l(1) =   0
                l(2) =   0
                l(3) =   1
                l(4) =   1
     Q(r) pseudized with 0 coefficients 


     atomic species   valence    mass     pseudopotential
        In1           13.00   114.81800     In( 1.00)
        O1             6.00    15.99900     O ( 1.00)

     Starting magnetic structure 
     atomic species   magnetization
        In1          0.769
        O1           0.667

     No symmetry found



   Cartesian axes

     site n.     atom                  positions (alat units)
         1           In1 tau(   1) = (  10.5815222   5.7062263   3.9400691  )
         2           In1 tau(   2) = (  16.4503450   5.7062263   3.9400691  )
         3           In1 tau(   3) = (  13.7970974  10.6214394   3.9400691  )
         4           In1 tau(   4) = (  19.6765037  10.6214394   3.9400691  )
         5           In1 tau(   5) = (  13.7970974   7.4477171   8.5364296  )
         6           In1 tau(   6) = (  19.6765037   7.4477171   8.5364296  )
         7           In1 tau(   7) = (  17.0232561  12.3629302   8.5364296  )
         8           In1 tau(   8) = (  22.9026625  12.3629302   8.5364296  )
         9           In1 tau(   9) = (   7.9266471   4.2788294   2.9544716  )
        10           In1 tau(  10) = (  13.8060535   4.2788294   2.9544716  )
        11           In1 tau(  11) = (  11.1528058   9.1940424   2.9544716  )
        12           In1 tau(  12) = (  17.0322122   9.1940424   2.9544716  )
        13           In1 tau(  13) = (  11.1528058   6.0203201   7.5508320  )
        14           In1 tau(  14) = (  17.0322122   6.0203201   7.5508320  )
        15           In1 tau(  15) = (  14.3789645  10.9355332   7.5508320  )
        16           In1 tau(  16) = (  20.2583709  10.9355332   7.5508320  )
        17           In1 tau(  17) = (   4.4050767   2.3778745   1.6418889  )
        18           In1 tau(  18) = (  10.2844831   2.3778745   1.6418889  )
        19           In1 tau(  19) = (   7.6312354   7.2930875   1.6418889  )
        20           In1 tau(  20) = (  13.5106418   7.2930875   1.6418889  )
        21           In1 tau(  21) = (   7.6312354   4.1193652   6.2382493  )
        22           In1 tau(  22) = (  13.5106418   4.1193652   6.2382493  )
        23           In1 tau(  23) = (  10.8573942   9.0345782   6.2382493  )
        24           In1 tau(  24) = (  16.7368005   9.0345782   6.2382493  )
        25           In1 tau(  25) = (   1.7607852   0.9504775   0.6562913  )
        26           In1 tau(  26) = (   7.6401916   0.9504775   0.6562913  )
        27           In1 tau(  27) = (   4.9869439   5.8656905   0.6562913  )
        28           In1 tau(  28) = (  10.8663503   5.8656905   0.6562913  )
        29           In1 tau(  29) = (   4.9869439   2.6919682   5.2526518  )
        30           In1 tau(  30) = (  10.8663503   2.6919682   5.2526518  )
        31           In1 tau(  31) = (   8.2131026   7.6071813   5.2526518  )
        32           In1 tau(  32) = (  14.0925090   7.6071813   5.2526518  )
        33           O1  tau(  33) = (   6.0226341   2.3093270   0.2147466  )
        34           O1  tau(  34) = (  11.9020405   2.3093270   0.2147466  )
        35           O1  tau(  35) = (   9.2487929   7.2245401   0.2147466  )
        36           O1  tau(  36) = (  15.1281992   7.2245401   0.2147466  )
        37           O1  tau(  37) = (   9.2487929   4.0508178   4.8111070  )
        38           O1  tau(  38) = (  15.1281992   4.0508178   4.8111070  )
        39           O1  tau(  39) = (  12.4749516   8.9660308   4.8111070  )
        40           O1  tau(  40) = (  18.3543580   8.9660308   4.8111070  )
        41           O1  tau(  41) = (   7.0963640   5.1209421   1.1490901  )
        42           O1  tau(  42) = (  12.9757704   5.1209421   1.1490901  )
        43           O1  tau(  43) = (  10.3225227  10.0361551   1.1490901  )
        44           O1  tau(  44) = (  16.2019291  10.0361551   1.1490901  )
        45           O1  tau(  45) = (  10.3225227   6.8624328   5.7454505  )
        46           O1  tau(  46) = (  16.2019291   6.8624328   5.7454505  )
        47           O1  tau(  47) = (  13.5486814  11.7776459   5.7454505  )
        48           O1  tau(  48) = (  19.4280878  11.7776459   5.7454505  )
        49           O1  tau(  49) = (   8.1750630   2.1809128   2.5129268  )
        50           O1  tau(  50) = (  14.0544694   2.1809128   2.5129268  )
        51           O1  tau(  51) = (  11.4012218   7.0961259   2.5129268  )
        52           O1  tau(  52) = (  17.2806281   7.0961259   2.5129268  )
        53           O1  tau(  53) = (  11.4012218   3.9224036   7.1092872  )
        54           O1  tau(  54) = (  17.2806281   3.9224036   7.1092872  )
        55           O1  tau(  55) = (  14.6273805   8.8376166   7.1092872  )
        56           O1  tau(  56) = (  20.5067869   8.8376166   7.1092872  )
        57           O1  tau(  57) = (   4.1566608   4.4757910   2.0834337  )
        58           O1  tau(  58) = (  10.0360672   4.4757910   2.0834337  )
        59           O1  tau(  59) = (   7.3828195   9.3910040   2.0834337  )
        60           O1  tau(  60) = (  13.2622259   9.3910040   2.0834337  )
        61           O1  tau(  61) = (   7.3828195   6.2172817   6.6797941  )
        62           O1  tau(  62) = (  13.2622259   6.2172817   6.6797941  )
        63           O1  tau(  63) = (  10.6089782  11.1324948   6.6797941  )
        64           O1  tau(  64) = (  16.4883846  11.1324948   6.6797941  )
        65           O1  tau(  65) = (   6.3090897   4.3473768   4.3816139  )
        66           O1  tau(  66) = (  12.1884961   4.3473768   4.3816139  )
        67           O1  tau(  67) = (   9.5352484   9.2625898   4.3816139  )
        68           O1  tau(  68) = (  15.4146548   9.2625898   4.3816139  )
        69           O1  tau(  69) = (   9.5352484   6.0888675   8.9779743  )
        70           O1  tau(  70) = (  15.4146548   6.0888675   8.9779743  )
        71           O1  tau(  71) = (  12.7614071  11.0040806   8.9779743  )
        72           O1  tau(  72) = (  18.6408135  11.0040806   8.9779743  )
        73           O1  tau(  73) = (   5.2353598   1.5357617   3.4472703  )
        74           O1  tau(  74) = (  11.1147662   1.5357617   3.4472703  )
        75           O1  tau(  75) = (   8.4615186   6.4509748   3.4472703  )
        76           O1  tau(  76) = (  14.3409250   6.4509748   3.4472703  )
        77           O1  tau(  77) = (   8.4615186   3.2772525   8.0436308  )
        78           O1  tau(  78) = (  14.3409249   3.2772525   8.0436308  )
        79           O1  tau(  79) = (  11.6876773   8.1924655   8.0436308  )
        80           O1  tau(  80) = (  17.5670837   8.1924655   8.0436308  )

     number of k points=    14  Gaussian smearing, width (Ry)=  0.0073
                       cart. coord. in units 2pi/alat
        k(    1) = (   0.0000000   0.0000000   0.0000000), wk =   0.0370370
        k(    2) = (   0.0000000   0.0000000   0.0362606), wk =   0.0740741
        k(    3) = (   0.0000000   0.0339083  -0.0128473), wk =   0.0740741
        k(    4) = (   0.0000000   0.0339083   0.0234132), wk =   0.0740741
        k(    5) = (   0.0000000   0.0339083  -0.0491079), wk =   0.0740741
        k(    6) = (   0.0283475  -0.0186062  -0.0128473), wk =   0.0740741
        k(    7) = (   0.0283475  -0.0186062   0.0234132), wk =   0.0740741
        k(    8) = (   0.0283475  -0.0186062  -0.0491079), wk =   0.0740741
        k(    9) = (   0.0283475   0.0153021  -0.0256947), wk =   0.0740741
        k(   10) = (   0.0283475   0.0153021   0.0105659), wk =   0.0740741
        k(   11) = (   0.0283475   0.0153021  -0.0619553), wk =   0.0740741
        k(   12) = (   0.0283475  -0.0525146   0.0000000), wk =   0.0740741
        k(   13) = (   0.0283475  -0.0525146   0.0362606), wk =   0.0740741
        k(   14) = (   0.0283475  -0.0525146  -0.0362606), wk =   0.0740741

     Dense  grid:  1435947 G-vectors     FFT dimensions: ( 162, 162, 162)

     Smooth grid:   507749 G-vectors     FFT dimensions: ( 120, 120, 120)

     Estimated max dynamical RAM per process >     564.05 MB

     Estimated total dynamical RAM >      22.03 GB
     Generating pointlists ...
     new r_m :   0.8870 (alat units)  1.6762 (a.u.) for type    1
     new r_m :   0.8870 (alat units)  1.6762 (a.u.) for type    2

     Initial potential from superposition of free atoms

     starting charge  703.88090, renormalised to  704.00000
     Starting wfcs are  480 randomized atomic wfcs
     Checking if some PAW data can be deallocated... 

     total cpu time spent up to now is       42.9 secs

     Self-consistent Calculation

     iteration #  1     ecut=    65.00 Ry     beta= 0.50
     Davidson diagonalization with overlap
     ethr =  1.00E-02,  avg # of iterations =  2.0

     total cpu time spent up to now is      145.2 secs

     total energy              =   -6615.14907280 Ry
     Harris-Foulkes estimate   =   -6585.53700079 Ry
     estimated scf accuracy    <      75.38091036 Ry

     total magnetization       =    11.95 Bohr mag/cell
     absolute magnetization    =    29.06 Bohr mag/cell

     iteration #  2     ecut=    65.00 Ry     beta= 0.50
     Davidson diagonalization with overlap
     ethr =  1.00E-02,  avg # of iterations =  2.1

     total cpu time spent up to now is      259.8 secs

     total energy              =   -6630.79013499 Ry
     Harris-Foulkes estimate   =   -6623.52778414 Ry
     estimated scf accuracy    <      20.67129899 Ry

     total magnetization       =     4.40 Bohr mag/cell
     absolute magnetization    =    16.99 Bohr mag/cell

     iteration #  3     ecut=    65.00 Ry     beta= 0.50
     Davidson diagonalization with overlap
     ethr =  2.94E-03,  avg # of iterations =  2.0

     total cpu time spent up to now is      377.1 secs

     total energy              =   -6636.30790465 Ry
     Harris-Foulkes estimate   =   -6633.86501396 Ry
     estimated scf accuracy    <       6.32365724 Ry

     total magnetization       =     0.07 Bohr mag/cell
     absolute magnetization    =    11.26 Bohr mag/cell

     iteration #  4     ecut=    65.00 Ry     beta= 0.50
     Davidson diagonalization with overlap
     ethr =  8.98E-04,  avg # of iterations =  2.0

     total cpu time spent up to now is      487.1 secs

     total energy              =   -6636.90466545 Ry
     Harris-Foulkes estimate   =   -6636.98489086 Ry
     estimated scf accuracy    <       0.24554669 Ry

     total magnetization       =     0.00 Bohr mag/cell
     absolute magnetization    =     3.73 Bohr mag/cell

     iteration #  5     ecut=    65.00 Ry     beta= 0.50
     Davidson diagonalization with overlap
     ethr =  3.49E-05,  avg # of iterations =  8.5

     total cpu time spent up to now is      843.2 secs

     total energy              =   -6637.01948160 Ry
     Harris-Foulkes estimate   =   -6637.01052439 Ry
     estimated scf accuracy    <       0.03490463 Ry

     total magnetization       =     0.00 Bohr mag/cell
     absolute magnetization    =     3.15 Bohr mag/cell

     iteration #  6     ecut=    65.00 Ry     beta= 0.50
     Davidson diagonalization with overlap
     ethr =  4.96E-06,  avg # of iterations = 10.4

     total cpu time spent up to now is     1163.3 secs

     total energy              =   -6637.03419363 Ry
     Harris-Foulkes estimate   =   -6637.03056103 Ry
     estimated scf accuracy    <       0.00752258 Ry

     total magnetization       =    -0.00 Bohr mag/cell
     absolute magnetization    =     1.63 Bohr mag/cell

     iteration #  7     ecut=    65.00 Ry     beta= 0.50
     Davidson diagonalization with overlap
     ethr =  1.07E-06,  avg # of iterations =  5.4

     total cpu time spent up to now is     1365.9 secs

     total energy              =   -6637.03661890 Ry
     Harris-Foulkes estimate   =   -6637.03652022 Ry
     estimated scf accuracy    <       0.00249343 Ry

     total magnetization       =     0.00 Bohr mag/cell
     absolute magnetization    =     0.70 Bohr mag/cell

     iteration #  8     ecut=    65.00 Ry     beta= 0.50
     Davidson diagonalization with overlap
     ethr =  3.54E-07,  avg # of iterations =  2.5

     total cpu time spent up to now is     1497.0 secs

     total energy              =   -6637.03730860 Ry
     Harris-Foulkes estimate   =   -6637.03728228 Ry
     estimated scf accuracy    <       0.00018131 Ry

     total magnetization       =     0.00 Bohr mag/cell
     absolute magnetization    =     0.27 Bohr mag/cell

     iteration #  9     ecut=    65.00 Ry     beta= 0.50
     Davidson diagonalization with overlap
     ethr =  2.58E-08,  avg # of iterations =  3.5

     total cpu time spent up to now is     1717.8 secs

     total energy              =   -6637.03742365 Ry
     Harris-Foulkes estimate   =   -6637.03741982 Ry
     estimated scf accuracy    <       0.00002671 Ry

     total magnetization       =     0.00 Bohr mag/cell
     absolute magnetization    =     0.08 Bohr mag/cell

     iteration # 10     ecut=    65.00 Ry     beta= 0.50
     Davidson diagonalization with overlap
     ethr =  3.79E-09,  avg # of iterations =  3.0

     total cpu time spent up to now is     1867.0 secs

     total energy              =   -6637.03743310 Ry
     Harris-Foulkes estimate   =   -6637.03743307 Ry
     estimated scf accuracy    <       0.00001031 Ry

     total magnetization       =     0.00 Bohr mag/cell
     absolute magnetization    =     0.04 Bohr mag/cell

     iteration # 11     ecut=    65.00 Ry     beta= 0.50
     Davidson diagonalization with overlap
     ethr =  1.46E-09,  avg # of iterations =  2.9

     total cpu time spent up to now is     1999.8 secs

     total energy              =   -6637.03743652 Ry
     Harris-Foulkes estimate   =   -6637.03743556 Ry
     estimated scf accuracy    <       0.00000139 Ry

     total magnetization       =     0.00 Bohr mag/cell
     absolute magnetization    =     0.02 Bohr mag/cell

     iteration # 12     ecut=    65.00 Ry     beta= 0.50
     Davidson diagonalization with overlap
     ethr =  1.98E-10,  avg # of iterations =  3.0

     total cpu time spent up to now is     2187.8 secs

     total energy              =   -6637.03743730 Ry
     Harris-Foulkes estimate   =   -6637.03743722 Ry
     estimated scf accuracy    <       0.00000010 Ry

     total magnetization       =     0.00 Bohr mag/cell
     absolute magnetization    =     0.01 Bohr mag/cell

     iteration # 13     ecut=    65.00 Ry     beta= 0.50
     Davidson diagonalization with overlap
     ethr =  1.45E-11,  avg # of iterations =  3.0

     total cpu time spent up to now is     2359.3 secs

     total energy              =   -6637.03743738 Ry
     Harris-Foulkes estimate   =   -6637.03743734 Ry
     estimated scf accuracy    <       0.00000003 Ry

     total magnetization       =     0.00 Bohr mag/cell
     absolute magnetization    =     0.00 Bohr mag/cell

     iteration # 14     ecut=    65.00 Ry     beta= 0.50
     Davidson diagonalization with overlap
     ethr =  3.66E-12,  avg # of iterations =  3.0
 
     Magnetic moment per site:
     atom:    1    charge:    9.3755    magn:    0.0000    constr:    0.0000
     atom:    2    charge:    9.3755    magn:    0.0000    constr:    0.0000
     atom:    3    charge:    9.3755    magn:    0.0000    constr:    0.0000
     atom:    4    charge:    9.3755    magn:    0.0000    constr:    0.0000
     atom:    5    charge:    9.3755    magn:    0.0000    constr:    0.0000
     atom:    6    charge:    9.3755    magn:    0.0000    constr:    0.0000
     atom:    7    charge:    9.3755    magn:    0.0000    constr:    0.0000
     atom:    8    charge:    9.3755    magn:    0.0000    constr:    0.0000
     atom:    9    charge:    9.3753    magn:    0.0000    constr:    0.0000
     atom:   10    charge:    9.3754    magn:    0.0000    constr:    0.0000
     atom:   11    charge:    9.3754    magn:    0.0000    constr:    0.0000
     atom:   12    charge:    9.3754    magn:    0.0000    constr:    0.0000
     atom:   13    charge:    9.3754    magn:    0.0000    constr:    0.0000
     atom:   14    charge:    9.3754    magn:    0.0000    constr:    0.0000
     atom:   15    charge:    9.3754    magn:    0.0000    constr:    0.0000
     atom:   16    charge:    9.3754    magn:    0.0000    constr:    0.0000
     atom:   17    charge:    9.3754    magn:    0.0000    constr:    0.0000
     atom:   18    charge:    9.3754    magn:    0.0000    constr:    0.0000
     atom:   19    charge:    9.3754    magn:    0.0000    constr:    0.0000
     atom:   20    charge:    9.3754    magn:    0.0000    constr:    0.0000
     atom:   21    charge:    9.3754    magn:    0.0000    constr:    0.0000
     atom:   22    charge:    9.3754    magn:    0.0000    constr:    0.0000
     atom:   23    charge:    9.3754    magn:    0.0000    constr:    0.0000
     atom:   24    charge:    9.3754    magn:    0.0000    constr:    0.0000
     atom:   25    charge:    9.3755    magn:    0.0000    constr:    0.0000
     atom:   26    charge:    9.3755    magn:    0.0000    constr:    0.0000
     atom:   27    charge:    9.3755    magn:    0.0000    constr:    0.0000
     atom:   28    charge:    9.3755    magn:    0.0000    constr:    0.0000
     atom:   29    charge:    9.3755    magn:    0.0000    constr:    0.0000
     atom:   30    charge:    9.3756    magn:    0.0000    constr:    0.0000
     atom:   31    charge:    9.3755    magn:    0.0000    constr:    0.0000
     atom:   32    charge:    9.3756    magn:    0.0000    constr:    0.0000
     atom:   33    charge:    5.7865    magn:    0.0000    constr:    0.0000
     atom:   34    charge:    5.7865    magn:    0.0000    constr:    0.0000
     atom:   35    charge:    5.7865    magn:    0.0000    constr:    0.0000
     atom:   36    charge:    5.7865    magn:    0.0000    constr:    0.0000
     atom:   37    charge:    5.7854    magn:    0.0000    constr:    0.0000
     atom:   38    charge:    5.7865    magn:    0.0000    constr:    0.0000
     atom:   39    charge:    5.7865    magn:    0.0000    constr:    0.0000
     atom:   40    charge:    5.7865    magn:    0.0000    constr:    0.0000
     atom:   41    charge:    5.7865    magn:    0.0000    constr:    0.0000
     atom:   42    charge:    5.7865    magn:    0.0000    constr:    0.0000
     atom:   43    charge:    5.7865    magn:    0.0000    constr:    0.0000
     atom:   44    charge:    5.7865    magn:    0.0000    constr:    0.0000
     atom:   45    charge:    5.7861    magn:    0.0000    constr:    0.0000
     atom:   46    charge:    5.7865    magn:    0.0000    constr:    0.0000
     atom:   47    charge:    5.7865    magn:    0.0000    constr:    0.0000
     atom:   48    charge:    5.7865    magn:    0.0000    constr:    0.0000
     atom:   49    charge:    5.7865    magn:    0.0000    constr:    0.0000
     atom:   50    charge:    5.7865    magn:    0.0000    constr:    0.0000
     atom:   51    charge:    5.7876    magn:    0.0000    constr:    0.0000
     atom:   52    charge:    5.7865    magn:    0.0000    constr:    0.0000
     atom:   53    charge:    5.7865    magn:    0.0000    constr:    0.0000
     atom:   54    charge:    5.7865    magn:    0.0000    constr:    0.0000
     atom:   55    charge:    5.7865    magn:    0.0000    constr:    0.0000
     atom:   56    charge:    5.7865    magn:    0.0000    constr:    0.0000
     atom:   57    charge:    5.7865    magn:    0.0000    constr:    0.0000
     atom:   58    charge:    5.7860    magn:    0.0000    constr:    0.0000
     atom:   59    charge:    5.7865    magn:    0.0000    constr:    0.0000
     atom:   60    charge:    5.7865    magn:    0.0000    constr:    0.0000
     atom:   61    charge:    5.7865    magn:    0.0000    constr:    0.0000
     atom:   62    charge:    5.7865    magn:    0.0000    constr:    0.0000
     atom:   63    charge:    5.7865    magn:    0.0000    constr:    0.0000
     atom:   64    charge:    5.7865    magn:    0.0000    constr:    0.0000
     atom:   65    charge:    5.7865    magn:    0.0000    constr:    0.0000
     atom:   66    charge:    5.7887    magn:    0.0000    constr:    0.0000
     atom:   67    charge:    5.7865    magn:    0.0000    constr:    0.0000
     atom:   68    charge:    5.7865    magn:    0.0000    constr:    0.0000
     atom:   69    charge:    5.7865    magn:    0.0000    constr:    0.0000
     atom:   70    charge:    5.7865    magn:    0.0000    constr:    0.0000
     atom:   71    charge:    5.7865    magn:    0.0000    constr:    0.0000
     atom:   72    charge:    5.7865    magn:    0.0000    constr:    0.0000
     atom:   73    charge:    5.7865    magn:    0.0000    constr:    0.0000
     atom:   74    charge:    5.7865    magn:    0.0000    constr:    0.0000
     atom:   75    charge:    5.7847    magn:    0.0000    constr:    0.0000
     atom:   76    charge:    5.7866    magn:    0.0000    constr:    0.0000
     atom:   77    charge:    5.7865    magn:    0.0000    constr:    0.0000
     atom:   78    charge:    5.7865    magn:    0.0000    constr:    0.0000
     atom:   79    charge:    5.7865    magn:    0.0000    constr:    0.0000
     atom:   80    charge:    5.7865    magn:    0.0000    constr:    0.0000

     total cpu time spent up to now is     2498.9 secs

     End of self-consistent calculation

 ------ SPIN UP ------------


          k = 0.0000 0.0000 0.0000 ( 63431 PWs)   bands (ev):

    -9.2348  -8.8517  -8.8504  -8.8477  -8.7337  -8.7311  -8.7296  -8.7293
    -8.7290  -8.7287  -8.7278  -8.7217  -8.6142  -8.6129  -8.6117  -8.4680
    -8.4652  -8.4646  -8.4475  -8.4461  -8.3674  -8.3643  -8.3621  -8.3620
    -8.3610  -8.3599  -8.3536  -8.3522  -8.3502  -8.3489  -8.3353  -8.3345
    -8.3325  -8.3303  -8.3284  -8.3280  -8.3239  -8.3226  -8.3219  -8.3215
    -8.3190  -8.3155  -8.2517  -8.2502  -8.1622  -8.1615  -8.1611  -8.1607
    -4.3190  -4.3189  -4.2874  -4.2871  -4.2869  -4.2704  -4.2702  -4.2699
    -4.2696  -4.2690  -4.2688  -4.2476  -4.2475  -4.2471  -4.2328  -4.2326
    -4.2204  -4.2203  -4.2201  -4.2185  -4.2183  -4.2179  -4.2178  -4.1956
    -4.1896  -4.1894  -4.1893  -4.1850  -4.1848  -4.1805  -4.1803  -4.1803
    -4.1604  -4.1603  -4.1599  -4.1597  -4.1592  -4.1587  -4.1423  -4.1422
    -4.1421  -4.1291  -4.1290  -4.1288  -4.1263  -4.1262  -4.1259  -4.1188
    -4.1186  -4.1182  -4.1179  -4.1176  -4.1174  -4.0986  -4.0984  -4.0980
    -4.0976  -4.0975  -4.0973  -4.0796  -4.0795  -4.0794  -4.0736  -4.0735
    -4.0731  -4.0731  -4.0674  -4.0542  -4.0541  -4.0197  -4.0191  -4.0186
    -4.0182  -4.0180  -4.0178  -4.0172  -4.0170  -3.9789  -3.9788  -3.9693
    -3.9692  -3.9692  -3.9681  -3.9680  -3.9680  -3.9674  -3.9674  -3.9672
    -3.9534  -3.9533  -3.9532  -3.9364  -3.9363  -3.9362  -3.9319  -3.9317
    -3.9316  -3.8919  -3.8919  -3.8914  -3.8913  -3.8790  -3.8790  -3.8771
    -3.8694  -3.8694  -3.8692  -3.8688  -3.8687  -3.8686  -3.8644  -3.8629
    -3.8627  -3.8623  -3.8623  -3.8619  -3.8617  -3.8502  -3.8501  -3.8501
    -3.8350  -3.8348  -3.8347  -3.7967  -3.7965  -3.7964  -3.7871  -3.7862
    -3.7350  -3.7349  -3.7348  -3.6924  -3.6921  -3.6919  -3.6035  -3.6031
    -3.4802  -3.4800  -3.4799  -3.4794  -3.4792  -3.4788  -3.3559  -3.3558
    -3.3550  -3.3549  -3.3212  -3.3210  -3.3207  -3.3084  -3.3082  -3.3077
    -3.3075  -3.3073  -3.3066  -2.9667  -2.9666  -2.8516  -2.8515  -2.8514
     2.6323   3.0022   3.1868   3.1879   3.1890   3.1892   3.1903   3.1912
     3.2078   3.2081   3.2094   3.2849   3.2868   3.7035   3.7039   3.7053
     3.9302   3.9306   3.9312   3.9316   3.9325   3.9342   4.2659   4.2669
     4.4405   4.4418   4.4422   4.4486   4.4493   4.4495   4.5727   4.5735
     4.8944   4.8953   4.8983   4.9676   5.2023   5.3137   5.3139   5.3157
     5.3163   5.3609   5.3616   5.3619   5.3794   5.3809   5.3818   5.4410
     5.4434   5.4447   5.4452   5.4458   5.4468   5.5919   5.5925   5.7999
     5.9224   5.9226   5.9228   5.9232   5.9242   5.9246   5.9319   5.9324
     5.9330   6.0336   6.0353   6.0355   6.2283   6.2289   6.2294   6.2297
     6.2314   6.6517   6.6522   6.6534   6.6537   6.6538   6.6549   7.0613
     7.0619   7.0627   7.0628   7.0650   7.0656   7.0664   7.1489   7.1497
     7.1505   7.1684   7.1694   7.1700   7.1708   7.1714   7.1720   7.1722
     7.1731   7.1740   7.2584   7.2598   7.2606   7.2612   7.2613   7.2652
     7.3033   7.3046   7.3051   7.3664   7.3668   7.3710   7.3715   7.3718
     7.3721   7.3724   7.3752   7.5616   7.5623   7.5638   7.6614   7.7384
     7.7389   7.7398   7.7467   7.7476   7.8525   7.8528   7.8955   7.8955
     7.8977   7.8979   7.9870   7.9879   7.9883   7.9965   7.9970   8.0249
     8.0255   8.0262   8.0266   8.0277   8.0283   8.0396   8.0399   8.0410
     9.0251  12.1626  12.1639  12.6861  12.6871  12.6878  12.6881  12.6886
    12.6893  12.8674  12.8676  12.8681  13.2427  13.2439  13.2440  13.4054
    13.6052  13.6057  13.6062  13.6074

          k = 0.0000 0.0000 0.0363 ( 63479 PWs)   bands (ev):

    -9.1659  -8.9792  -8.8444  -8.8431  -8.8406  -8.8082  -8.8064  -8.8038
    -8.6455  -8.6435  -8.6411  -8.6142  -8.6113  -8.6099  -8.4864  -8.4525
    -8.4513  -8.4473  -8.4372  -8.4334  -8.4137  -8.4120  -8.4069  -8.4026
    -8.3916  -8.3866  -8.3695  -8.3685  -8.3589  -8.3536  -8.3531  -8.3284
    -8.3266  -8.3251  -8.3239  -8.3232  -8.3202  -8.3111  -8.3043  -8.2691
    -8.2639  -8.2542  -8.2527  -8.2494  -8.1919  -8.1889  -8.1875  -8.1866
    -4.3026  -4.2929  -4.2883  -4.2839  -4.2837  -4.2820  -4.2813  -4.2807
    -4.2670  -4.2579  -4.2576  -4.2524  -4.2515  -4.2505  -4.2297  -4.2270
    -4.2260  -4.2254  -4.2184  -4.2182  -4.2131  -4.2098  -4.2036  -4.2012
    -4.2006  -4.1972  -4.1971  -4.1895  -4.1833  -4.1810  -4.1688  -4.1644
    -4.1643  -4.1641  -4.1637  -4.1574  -4.1569  -4.1566  -4.1530  -4.1522
    -4.1494  -4.1467  -4.1463  -4.1444  -4.1399  -4.1249  -4.1246  -4.1212
    -4.1201  -4.1198  -4.1068  -4.1043  -4.1041  -4.1016  -4.0956  -4.0953
    -4.0887  -4.0863  -4.0861  -4.0761  -4.0718  -4.0692  -4.0598  -4.0591
    -4.0497  -4.0460  -4.0400  -4.0344  -4.0305  -4.0301  -4.0296  -4.0254
    -4.0245  -4.0221  -4.0203  -4.0089  -4.0083  -3.9914  -3.9912  -3.9905
    -3.9901  -3.9855  -3.9746  -3.9739  -3.9721  -3.9715  -3.9629  -3.9626
    -3.9570  -3.9562  -3.9472  -3.9469  -3.9406  -3.9345  -3.9299  -3.9273
    -3.9130  -3.9058  -3.9045  -3.9038  -3.9035  -3.8982  -3.8976  -3.8970
    -3.8922  -3.8853  -3.8767  -3.8739  -3.8720  -3.8703  -3.8632  -3.8623
    -3.8620  -3.8610  -3.8480  -3.8476  -3.8432  -3.8431  -3.8341  -3.8259
    -3.8248  -3.8096  -3.8091  -3.7995  -3.7956  -3.7953  -3.7754  -3.7536
    -3.7309  -3.6985  -3.6929  -3.6921  -3.6676  -3.6287  -3.6274  -3.6268
    -3.5990  -3.5889  -3.5725  -3.5722  -3.5630  -3.5455  -3.5105  -3.5101
    -3.3688  -3.3681  -3.3305  -3.3300  -3.2681  -3.2225  -3.2029  -3.1248
    -3.1244  -3.1182  -3.0788  -3.0665  -2.9995  -2.9349  -2.9346  -2.9086
     2.7457   2.9943   3.0005   3.2036   3.2095   3.2146   3.3028   3.3045
     3.3085   3.3095   3.3838   3.3868   3.4941   3.5239   3.5744   3.5749
     3.6330   3.6341   3.8001   3.9330   3.9578   3.9593   3.9619   4.1335
     4.2489   4.2507   4.5228   4.5238   4.6131   4.6219   4.6317   4.6905
     4.7752   4.9827   4.9837   5.0966   5.1080   5.1254   5.1816   5.2822
     5.3090   5.3098   5.3204   5.3212   5.3636   5.3645   5.3925   5.4327
     5.5084   5.6184   5.6191   5.6540   5.6798   5.6882   5.8110   5.8120
     5.8417   5.8447   5.9701   5.9707   5.9721   6.0243   6.0248   6.1282
     6.1304   6.1610   6.1710   6.2009   6.2232   6.2502   6.2506   6.2632
     6.4137   6.4148   6.4815   6.5291   6.5379   6.5848   6.6404   6.6863
     6.6874   6.7787   6.7799   6.9000   6.9263   6.9349   6.9620   6.9624
     7.0074   7.0480   7.0492   7.1171   7.1176   7.1789   7.2045   7.2049
     7.2270   7.2282   7.2539   7.2561   7.2656   7.3012   7.3039   7.4329
     7.4362   7.4376   7.4705   7.4930   7.5334   7.5567   7.5579   7.5794
     7.5806   7.5815   7.6155   7.6255   7.6280   7.6546   7.6605   7.6615
     7.6717   7.7188   7.7200   7.7205   7.7852   7.7857   7.7996   7.8007
     7.8579   7.8827   7.9092   7.9096   7.9131   7.9154   7.9168   7.9184
     7.9300   7.9592   7.9602   7.9647   8.0095   8.0103   8.0382   8.0872
     9.9452  11.3430  12.1316  12.3744  12.3749  12.4896  12.5325  12.5329
    12.7593  13.2091  13.2095  13.4290  13.4295  13.5745  13.5960  13.6647
    13.6654  13.6694  13.7227  13.7378

          k = 0.0000 0.0339-0.0128 ( 63479 PWs)   bands (ev):

    -9.1659  -8.9792  -8.8447  -8.8428  -8.8405  -8.8086  -8.8062  -8.8038
    -8.6456  -8.6435  -8.6408  -8.6135  -8.6119  -8.6097  -8.4864  -8.4535
    -8.4513  -8.4466  -8.4382  -8.4327  -8.4145  -8.4123  -8.4068  -8.4031
    -8.3907  -8.3874  -8.3700  -8.3662  -8.3608  -8.3542  -8.3511  -8.3277
    -8.3264  -8.3248  -8.3242  -8.3224  -8.3203  -8.3102  -8.3056  -8.2697
    -8.2650  -8.2537  -8.2534  -8.2488  -8.1924  -8.1885  -8.1874  -8.1864
    -4.3026  -4.2929  -4.2885  -4.2838  -4.2834  -4.2823  -4.2811  -4.2807
    -4.2670  -4.2579  -4.2575  -4.2522  -4.2514  -4.2511  -4.2297  -4.2268
    -4.2259  -4.2252  -4.2185  -4.2182  -4.2131  -4.2099  -4.2035  -4.2012
    -4.2007  -4.1973  -4.1972  -4.1894  -4.1834  -4.1811  -4.1688  -4.1646
    -4.1643  -4.1641  -4.1636  -4.1577  -4.1569  -4.1566  -4.1528  -4.1522
    -4.1495  -4.1469  -4.1463  -4.1442  -4.1397  -4.1248  -4.1246  -4.1213
    -4.1200  -4.1198  -4.1066  -4.1043  -4.1041  -4.1017  -4.0956  -4.0953
    -4.0886  -4.0863  -4.0862  -4.0761  -4.0718  -4.0692  -4.0599  -4.0591
    -4.0498  -4.0460  -4.0400  -4.0345  -4.0304  -4.0301  -4.0298  -4.0252
    -4.0247  -4.0220  -4.0204  -4.0088  -4.0083  -3.9914  -3.9912  -3.9904
    -3.9901  -3.9856  -3.9746  -3.9740  -3.9720  -3.9716  -3.9628  -3.9625
    -3.9570  -3.9562  -3.9471  -3.9470  -3.9407  -3.9345  -3.9299  -3.9273
    -3.9130  -3.9058  -3.9045  -3.9039  -3.9033  -3.8981  -3.8975  -3.8971
    -3.8922  -3.8853  -3.8768  -3.8738  -3.8720  -3.8704  -3.8632  -3.8624
    -3.8620  -3.8610  -3.8479  -3.8476  -3.8432  -3.8431  -3.8341  -3.8257
    -3.8250  -3.8095  -3.8091  -3.7995  -3.7957  -3.7954  -3.7754  -3.7536
    -3.7309  -3.6984  -3.6927  -3.6922  -3.6676  -3.6290  -3.6275  -3.6270
    -3.5990  -3.5887  -3.5724  -3.5724  -3.5630  -3.5453  -3.5105  -3.5101
    -3.3686  -3.3683  -3.3304  -3.3300  -3.2681  -3.2226  -3.2030  -3.1249
    -3.1243  -3.1182  -3.0787  -3.0665  -2.9996  -2.9350  -2.9346  -2.9085
     2.7457   2.9943   3.0011   3.2039   3.2096   3.2140   3.3027   3.3041
     3.3088   3.3101   3.3839   3.3846   3.4946   3.5237   3.5745   3.5761
     3.6330   3.6350   3.7988   3.9335   3.9577   3.9585   3.9619   4.1326
     4.2495   4.2506   4.5231   4.5239   4.6124   4.6224   4.6315   4.6911
     4.7753   4.9831   4.9836   5.0972   5.1090   5.1250   5.1815   5.2819
     5.3090   5.3101   5.3201   5.3209   5.3633   5.3649   5.3930   5.4329
     5.5077   5.6186   5.6190   5.6545   5.6795   5.6876   5.8111   5.8120
     5.8418   5.8452   5.9704   5.9710   5.9725   6.0242   6.0250   6.1283
     6.1293   6.1612   6.1717   6.2011   6.2229   6.2496   6.2511   6.2632
     6.4134   6.4145   6.4812   6.5288   6.5383   6.5843   6.6401   6.6864
     6.6870   6.7784   6.7803   6.8992   6.9269   6.9349   6.9615   6.9635
     7.0075   7.0476   7.0492   7.1165   7.1173   7.1790   7.2042   7.2055
     7.2267   7.2284   7.2540   7.2565   7.2654   7.3002   7.3037   7.4325
     7.4360   7.4381   7.4711   7.4932   7.5341   7.5563   7.5579   7.5789
     7.5803   7.5821   7.6155   7.6258   7.6288   7.6549   7.6600   7.6627
     7.6712   7.7188   7.7197   7.7208   7.7852   7.7859   7.7994   7.8010
     7.8575   7.8826   7.9087   7.9104   7.9133   7.9154   7.9166   7.9183
     7.9296   7.9590   7.9605   7.9645   8.0091   8.0106   8.0381   8.0871
     9.9452  11.3430  12.1316  12.3743  12.3750  12.4895  12.5323  12.5330
    12.7593  13.2092  13.2094  13.4290  13.4297  13.5743  13.5960  13.6648
    13.6657  13.6692  13.7227  13.7380

          k = 0.0000 0.0339 0.0234 ( 63480 PWs)   bands (ev):

    -9.1481  -8.9572  -8.8770  -8.8739  -8.8653  -8.8619  -8.7819  -8.7785
    -8.6545  -8.6516  -8.5932  -8.5908  -8.5753  -8.5706  -8.5516  -8.4644
    -8.4587  -8.4561  -8.4404  -8.4381  -8.4276  -8.4253  -8.4222  -8.4074
    -8.3935  -8.3910  -8.3623  -8.3552  -8.3468  -8.3399  -8.3382  -8.3283
    -8.3243  -8.3155  -8.3072  -8.3020  -8.2997  -8.2868  -8.2861  -8.2840
    -8.2739  -8.2719  -8.2630  -8.2378  -8.2153  -8.2009  -8.2001  -8.1941
    -4.3120  -4.2962  -4.2861  -4.2814  -4.2779  -4.2773  -4.2763  -4.2761
    -4.2738  -4.2542  -4.2538  -4.2513  -4.2509  -4.2406  -4.2377  -4.2334
    -4.2283  -4.2190  -4.2155  -4.2140  -4.2136  -4.2091  -4.2048  -4.2044
    -4.2021  -4.1893  -4.1851  -4.1847  -4.1845  -4.1807  -4.1786  -4.1738
    -4.1719  -4.1717  -4.1690  -4.1608  -4.1605  -4.1510  -4.1508  -4.1503
    -4.1492  -4.1489  -4.1461  -4.1456  -4.1344  -4.1303  -4.1219  -4.1217
    -4.1176  -4.1087  -4.1086  -4.1039  -4.1022  -4.1019  -4.1001  -4.0995
    -4.0848  -4.0842  -4.0839  -4.0835  -4.0830  -4.0794  -4.0653  -4.0544
    -4.0511  -4.0379  -4.0372  -4.0358  -4.0355  -4.0331  -4.0220  -4.0173
    -4.0081  -4.0079  -4.0074  -4.0042  -4.0038  -3.9949  -3.9946  -3.9827
    -3.9820  -3.9813  -3.9804  -3.9772  -3.9770  -3.9749  -3.9632  -3.9628
    -3.9624  -3.9612  -3.9609  -3.9447  -3.9444  -3.9394  -3.9336  -3.9309
    -3.9225  -3.9112  -3.9063  -3.9057  -3.9055  -3.9038  -3.9036  -3.8934
    -3.8906  -3.8800  -3.8723  -3.8711  -3.8630  -3.8622  -3.8591  -3.8585
    -3.8556  -3.8553  -3.8518  -3.8508  -3.8499  -3.8488  -3.8482  -3.8162
    -3.8080  -3.8079  -3.7917  -3.7888  -3.7880  -3.7689  -3.7687  -3.7587
    -3.7490  -3.7488  -3.7206  -3.7204  -3.6935  -3.6769  -3.6736  -3.6542
    -3.6431  -3.6429  -3.5568  -3.5236  -3.5230  -3.5082  -3.4090  -3.4089
    -3.3844  -3.3129  -3.3101  -3.3097  -3.2602  -3.2299  -3.2295  -3.2043
    -3.2041  -3.1478  -3.0471  -3.0278  -2.9700  -2.9699  -2.9493  -2.8915
     2.7518   3.0185   3.0718   3.1339   3.1350   3.1613   3.3351   3.3776
     3.3783   3.3792   3.3941   3.3950   3.4031   3.4198   3.5300   3.6162
     3.6179   3.7404   3.7415   3.8931   4.0152   4.0428   4.0568   4.0574
     4.2109   4.2118   4.3964   4.3986   4.5584   4.6197   4.7925   4.8348
     4.9072   4.9375   5.0437   5.0717   5.0729   5.1760   5.1767   5.2202
     5.2221   5.2231   5.2777   5.2784   5.2896   5.3779   5.3802   5.3968
     5.4601   5.5368   5.6513   5.6518   5.7239   5.7386   5.7394   5.7833
     5.7902   5.7905   5.8796   5.9617   6.0579   6.0937   6.0941   6.1490
     6.1626   6.1774   6.2459   6.2499   6.2513   6.4252   6.4261   6.4313
     6.4511   6.4909   6.4917   6.4942   6.5134   6.7011   6.7173   6.7386
     6.7398   6.7895   6.7899   6.8507   6.9521   6.9525   6.9702   6.9750
     6.9784   7.0171   7.0176   7.0455   7.0463   7.0524   7.0780   7.0875
     7.1074   7.2339   7.2344   7.2359   7.2363   7.3023   7.3028   7.3044
     7.3856   7.4000   7.4325   7.4549   7.4569   7.4942   7.5178   7.5186
     7.5541   7.5959   7.6007   7.6236   7.6612   7.6627   7.6793   7.7071
     7.7095   7.7609   7.7627   7.7645   7.8013   7.8036   7.8074   7.8250
     7.8264   7.8962   7.8966   7.9043   7.9108   7.9314   7.9586   7.9591
     7.9715   7.9753   7.9764   7.9940   8.0060   8.0120   8.0546   8.0549
    10.1423  11.7301  11.7868  11.9633  12.0617  12.0622  13.0099  13.0553
    13.0558  13.3122  13.3126  13.3554  13.3562  13.5119  13.5126  13.5786
    13.6375  13.6530  13.6792  13.6797

          k = 0.0000 0.0339-0.0491 ( 63475 PWs)   bands (ev):

    -9.0599  -9.0134  -9.0129  -8.8870  -8.8837  -8.7281  -8.7202  -8.7169
    -8.7165  -8.7137  -8.7027  -8.5750  -8.5717  -8.4953  -8.4950  -8.4586
    -8.4494  -8.4305  -8.4241  -8.4214  -8.4211  -8.4190  -8.4154  -8.4138
    -8.3983  -8.3973  -8.3881  -8.3872  -8.3766  -8.3707  -8.3695  -8.3643
    -8.3144  -8.3110  -8.3066  -8.3053  -8.3006  -8.2639  -8.2618  -8.2595
    -8.2550  -8.2543  -8.2305  -8.2298  -8.2290  -8.2283  -8.2217  -8.2207
    -4.2945  -4.2943  -4.2847  -4.2844  -4.2796  -4.2775  -4.2721  -4.2715
    -4.2700  -4.2587  -4.2557  -4.2554  -4.2443  -4.2441  -4.2340  -4.2336
    -4.2282  -4.2278  -4.2240  -4.2232  -4.2225  -4.2163  -4.2094  -4.2091
    -4.1950  -4.1948  -4.1945  -4.1856  -4.1853  -4.1765  -4.1756  -4.1753
    -4.1659  -4.1656  -4.1636  -4.1602  -4.1598  -4.1592  -4.1562  -4.1560
    -4.1542  -4.1540  -4.1354  -4.1352  -4.1335  -4.1328  -4.1194  -4.1189
    -4.1145  -4.1139  -4.0989  -4.0987  -4.0972  -4.0961  -4.0959  -4.0941
    -4.0938  -4.0867  -4.0699  -4.0695  -4.0638  -4.0636  -4.0616  -4.0545
    -4.0473  -4.0314  -4.0310  -4.0301  -4.0294  -4.0228  -4.0224  -4.0147
    -4.0123  -4.0087  -4.0084  -4.0067  -4.0066  -4.0054  -4.0027  -4.0026
    -3.9883  -3.9875  -3.9873  -3.9843  -3.9775  -3.9773  -3.9677  -3.9676
    -3.9661  -3.9567  -3.9564  -3.9551  -3.9431  -3.9430  -3.9420  -3.9417
    -3.9286  -3.9283  -3.9242  -3.9239  -3.9219  -3.8909  -3.8907  -3.8860
    -3.8844  -3.8842  -3.8741  -3.8737  -3.8596  -3.8592  -3.8559  -3.8556
    -3.8506  -3.8502  -3.8418  -3.8386  -3.8372  -3.8368  -3.8337  -3.8336
    -3.7886  -3.7849  -3.7846  -3.7808  -3.7801  -3.7787  -3.7616  -3.7614
    -3.7456  -3.7454  -3.7196  -3.7194  -3.6912  -3.6829  -3.6824  -3.6632
    -3.6257  -3.6252  -3.6075  -3.6068  -3.5836  -3.4925  -3.4558  -3.4552
    -3.3640  -3.3636  -3.2804  -3.2540  -3.2533  -3.1853  -3.1850  -3.1516
    -3.1257  -3.1035  -3.0690  -3.0687  -2.9772  -2.9769  -2.9613  -2.9609
     2.9159   3.0053   3.0058   3.0314   3.1856   3.1865   3.2264   3.2276
     3.4622   3.4633   3.4947   3.5490   3.5509   3.5533   3.5551   3.6132
     3.7049   3.7065   3.7283   3.7291   3.7701   3.8882   3.9011   3.9017
     3.9296   4.2381   4.2393   4.6825   4.7775   4.7780   4.8895   4.8917
     4.9935   4.9954   5.0377   5.0491   5.0495   5.1473   5.1487   5.1749
     5.1762   5.1904   5.2675   5.3489   5.3494   5.3633   5.3641   5.3897
     5.5068   5.6318   5.6323   5.6791   5.6793   5.7564   5.7570   5.7672
     5.7677   5.8074   5.9015   5.9036   5.9448   5.9452   6.1448   6.1618
     6.1763   6.1769   6.2335   6.3349   6.3364   6.4192   6.4197   6.4778
     6.5135   6.5148   6.5157   6.5180   6.5184   6.5513   6.7053   6.7057
     6.7114   6.8659   6.8665   6.8804   6.8816   6.8851   6.8868   6.9154
     6.9167   7.0381   7.0416   7.0484   7.0492   7.1023   7.1033   7.1480
     7.1889   7.2023   7.2038   7.2142   7.2147   7.3470   7.3493   7.3527
     7.3537   7.3587   7.3593   7.3706   7.4094   7.4589   7.4595   7.5675
     7.5751   7.5761   7.6013   7.6020   7.6099   7.6517   7.7008   7.7024
     7.7148   7.7154   7.8184   7.8190   7.8240   7.8252   7.8272   7.8682
     7.8698   7.8787   7.8789   7.8960   7.8965   7.9203   7.9400   7.9419
     7.9426   7.9534   7.9554   7.9564   7.9994   8.0338   8.0339   8.0897
    10.8383  11.1920  11.1925  11.9930  11.9939  12.8852  12.8865  12.9121
    13.0031  13.0036  13.2680  13.2711  13.5431  13.5595  13.5600  13.6367
    13.6377  13.6725  13.6730  13.8476

          k = 0.0283-0.0186-0.0128 ( 63479 PWs)   bands (ev):

    -9.1659  -8.9792  -8.8443  -8.8433  -8.8404  -8.8080  -8.8068  -8.8038
    -8.6449  -8.6438  -8.6412  -8.6130  -8.6121  -8.6098  -8.4864  -8.4540
    -8.4509  -8.4466  -8.4385  -8.4322  -8.4146  -8.4124  -8.4067  -8.4034
    -8.3906  -8.3873  -8.3688  -8.3671  -8.3610  -8.3532  -8.3514  -8.3289
    -8.3261  -8.3249  -8.3236  -8.3231  -8.3199  -8.3104  -8.3056  -8.2701
    -8.2648  -8.2539  -8.2534  -8.2483  -8.1924  -8.1888  -8.1876  -8.1859
    -4.3027  -4.2928  -4.2884  -4.2839  -4.2836  -4.2824  -4.2811  -4.2807
    -4.2670  -4.2578  -4.2577  -4.2519  -4.2513  -4.2511  -4.2299  -4.2271
    -4.2259  -4.2247  -4.2185  -4.2183  -4.2132  -4.2100  -4.2035  -4.2011
    -4.2009  -4.1972  -4.1971  -4.1894  -4.1835  -4.1811  -4.1689  -4.1647
    -4.1643  -4.1639  -4.1638  -4.1574  -4.1570  -4.1567  -4.1526  -4.1525
    -4.1495  -4.1466  -4.1462  -4.1444  -4.1398  -4.1248  -4.1247  -4.1213
    -4.1200  -4.1198  -4.1067  -4.1042  -4.1041  -4.1017  -4.0955  -4.0954
    -4.0887  -4.0864  -4.0861  -4.0761  -4.0719  -4.0691  -4.0597  -4.0590
    -4.0497  -4.0460  -4.0401  -4.0345  -4.0304  -4.0301  -4.0299  -4.0252
    -4.0249  -4.0220  -4.0203  -4.0087  -4.0085  -3.9915  -3.9911  -3.9903
    -3.9901  -3.9856  -3.9746  -3.9739  -3.9719  -3.9718  -3.9629  -3.9626
    -3.9571  -3.9562  -3.9471  -3.9469  -3.9407  -3.9345  -3.9299  -3.9274
    -3.9131  -3.9058  -3.9042  -3.9039  -3.9036  -3.8979  -3.8976  -3.8973
    -3.8921  -3.8853  -3.8769  -3.8740  -3.8718  -3.8702  -3.8634  -3.8623
    -3.8619  -3.8610  -3.8479  -3.8476  -3.8433  -3.8431  -3.8341  -3.8254
    -3.8252  -3.8093  -3.8093  -3.7994  -3.7963  -3.7947  -3.7754  -3.7536
    -3.7309  -3.6985  -3.6926  -3.6923  -3.6675  -3.6289  -3.6274  -3.6273
    -3.5990  -3.5887  -3.5727  -3.5723  -3.5630  -3.5453  -3.5105  -3.5101
    -3.3687  -3.3681  -3.3303  -3.3299  -3.2681  -3.2227  -3.2031  -3.1246
    -3.1245  -3.1182  -3.0787  -3.0664  -2.9996  -2.9348  -2.9347  -2.9085
     2.7457   2.9943   3.0011   3.2035   3.2102   3.2138   3.3031   3.3042
     3.3085   3.3100   3.3836   3.3848   3.4945   3.5238   3.5747   3.5760
     3.6330   3.6350   3.7988   3.9334   3.9577   3.9587   3.9619   4.1325
     4.2491   4.2508   4.5230   4.5238   4.6124   4.6222   4.6317   4.6910
     4.7755   4.9829   4.9840   5.0969   5.1086   5.1253   5.1814   5.2821
     5.3091   5.3107   5.3200   5.3214   5.3636   5.3641   5.3933   5.4327
     5.5079   5.6184   5.6192   5.6548   5.6797   5.6874   5.8109   5.8120
     5.8418   5.8451   5.9707   5.9711   5.9718   6.0240   6.0249   6.1284
     6.1291   6.1613   6.1716   6.2009   6.2231   6.2496   6.2506   6.2634
     6.4132   6.4146   6.4809   6.5289   6.5380   6.5845   6.6402   6.6865
     6.6870   6.7791   6.7798   6.8991   6.9271   6.9348   6.9624   6.9629
     7.0076   7.0478   7.0488   7.1168   7.1171   7.1790   7.2044   7.2053
     7.2272   7.2281   7.2538   7.2564   7.2654   7.3002   7.3038   7.4324
     7.4369   7.4372   7.4709   7.4933   7.5341   7.5564   7.5578   7.5791
     7.5802   7.5822   7.6156   7.6260   7.6287   7.6549   7.6610   7.6616
     7.6713   7.7192   7.7197   7.7204   7.7851   7.7860   7.7994   7.8010
     7.8574   7.8825   7.9093   7.9097   7.9133   7.9155   7.9170   7.9177
     7.9297   7.9596   7.9599   7.9644   8.0096   8.0102   8.0380   8.0871
     9.9452  11.3430  12.1315  12.3744  12.3748  12.4894  12.5326  12.5328
    12.7594  13.2090  13.2095  13.4290  13.4295  13.5743  13.5960  13.6650
    13.6655  13.6692  13.7229  13.7380

          k = 0.0283-0.0186 0.0234 ( 63480 PWs)   bands (ev):

    -9.1481  -8.9572  -8.8763  -8.8745  -8.8646  -8.8630  -8.7810  -8.7795
    -8.6539  -8.6520  -8.5928  -8.5906  -8.5741  -8.5719  -8.5517  -8.4644
    -8.4586  -8.4560  -8.4398  -8.4391  -8.4278  -8.4254  -8.4226  -8.4078
    -8.3930  -8.3912  -8.3611  -8.3554  -8.3468  -8.3391  -8.3388  -8.3282
    -8.3244  -8.3155  -8.3071  -8.3021  -8.2997  -8.2877  -8.2862  -8.2831
    -8.2738  -8.2718  -8.2633  -8.2380  -8.2152  -8.2007  -8.2002  -8.1941
    -4.3120  -4.2963  -4.2860  -4.2815  -4.2779  -4.2769  -4.2765  -4.2761
    -4.2737  -4.2540  -4.2539  -4.2516  -4.2512  -4.2406  -4.2376  -4.2333
    -4.2284  -4.2189  -4.2155  -4.2140  -4.2135  -4.2090  -4.2049  -4.2044
    -4.2021  -4.1894  -4.1852  -4.1850  -4.1840  -4.1808  -4.1787  -4.1738
    -4.1718  -4.1716  -4.1691  -4.1609  -4.1603  -4.1511  -4.1507  -4.1505
    -4.1493  -4.1487  -4.1459  -4.1457  -4.1343  -4.1303  -4.1217  -4.1216
    -4.1176  -4.1088  -4.1087  -4.1039  -4.1022  -4.1021  -4.1000  -4.0993
    -4.0848  -4.0840  -4.0839  -4.0836  -4.0831  -4.0794  -4.0653  -4.0544
    -4.0511  -4.0378  -4.0371  -4.0359  -4.0354  -4.0333  -4.0221  -4.0174
    -4.0083  -4.0078  -4.0072  -4.0042  -4.0039  -3.9950  -3.9946  -3.9824
    -3.9822  -3.9814  -3.9803  -3.9773  -3.9769  -3.9749  -3.9632  -3.9630
    -3.9622  -3.9612  -3.9608  -3.9447  -3.9444  -3.9395  -3.9335  -3.9309
    -3.9226  -3.9112  -3.9064  -3.9058  -3.9053  -3.9038  -3.9035  -3.8934
    -3.8905  -3.8799  -3.8722  -3.8711  -3.8629  -3.8624  -3.8589  -3.8585
    -3.8559  -3.8553  -3.8519  -3.8507  -3.8499  -3.8486  -3.8484  -3.8163
    -3.8082  -3.8077  -3.7916  -3.7887  -3.7879  -3.7692  -3.7684  -3.7587
    -3.7490  -3.7488  -3.7206  -3.7203  -3.6935  -3.6768  -3.6735  -3.6543
    -3.6434  -3.6426  -3.5568  -3.5237  -3.5230  -3.5083  -3.4090  -3.4088
    -3.3843  -3.3128  -3.3107  -3.3094  -3.2602  -3.2296  -3.2294  -3.2046
    -3.2039  -3.1478  -3.0470  -3.0277  -2.9703  -2.9697  -2.9493  -2.8916
     2.7518   3.0185   3.0718   3.1341   3.1348   3.1612   3.3353   3.3774
     3.3785   3.3793   3.3940   3.3952   3.4031   3.4198   3.5301   3.6158
     3.6179   3.7401   3.7417   3.8932   4.0151   4.0428   4.0569   4.0572
     4.2110   4.2117   4.3970   4.3982   4.5584   4.6197   4.7925   4.8349
     4.9072   4.9377   5.0440   5.0720   5.0727   5.1754   5.1773   5.2196
     5.2224   5.2231   5.2776   5.2785   5.2894   5.3783   5.3795   5.3972
     5.4603   5.5369   5.6509   5.6522   5.7237   5.7387   5.7392   5.7830
     5.7898   5.7908   5.8793   5.9617   6.0579   6.0936   6.0944   6.1490
     6.1625   6.1775   6.2455   6.2499   6.2516   6.4254   6.4260   6.4311
     6.4514   6.4910   6.4918   6.4940   6.5135   6.7010   6.7174   6.7384
     6.7400   6.7886   6.7905   6.8507   6.9515   6.9530   6.9704   6.9749
     6.9784   7.0168   7.0181   7.0454   7.0466   7.0524   7.0781   7.0876
     7.1076   7.2336   7.2348   7.2355   7.2364   7.3021   7.3031   7.3044
     7.3857   7.3999   7.4324   7.4553   7.4562   7.4941   7.5180   7.5183
     7.5540   7.5960   7.6007   7.6237   7.6611   7.6627   7.6792   7.7071
     7.7095   7.7610   7.7632   7.7639   7.8014   7.8037   7.8074   7.8250
     7.8264   7.8962   7.8965   7.9043   7.9108   7.9314   7.9581   7.9597
     7.9715   7.9755   7.9762   7.9939   8.0060   8.0118   8.0537   8.0559
    10.1423  11.7302  11.7867  11.9633  12.0617  12.0623  13.0099  13.0551
    13.0558  13.3122  13.3126  13.3554  13.3563  13.5123  13.5125  13.5784
    13.6374  13.6530  13.6793  13.6797

          k = 0.0283-0.0186-0.0491 ( 63475 PWs)   bands (ev):

    -9.0600  -9.0144  -9.0118  -8.8860  -8.8849  -8.7280  -8.7191  -8.7174
    -8.7170  -8.7135  -8.7029  -8.5741  -8.5723  -8.4972  -8.4933  -8.4586
    -8.4499  -8.4292  -8.4243  -8.4223  -8.4214  -8.4188  -8.4148  -8.4138
    -8.3991  -8.3967  -8.3880  -8.3872  -8.3765  -8.3723  -8.3677  -8.3645
    -8.3132  -8.3118  -8.3069  -8.3056  -8.3002  -8.2646  -8.2622  -8.2593
    -8.2554  -8.2534  -8.2308  -8.2299  -8.2286  -8.2275  -8.2225  -8.2205
    -4.2950  -4.2940  -4.2846  -4.2844  -4.2797  -4.2773  -4.2716  -4.2716
    -4.2705  -4.2587  -4.2557  -4.2556  -4.2444  -4.2437  -4.2339  -4.2337
    -4.2280  -4.2278  -4.2245  -4.2232  -4.2223  -4.2163  -4.2094  -4.2091
    -4.1955  -4.1947  -4.1939  -4.1855  -4.1852  -4.1763  -4.1757  -4.1754
    -4.1658  -4.1657  -4.1638  -4.1599  -4.1597  -4.1596  -4.1562  -4.1560
    -4.1542  -4.1541  -4.1354  -4.1352  -4.1336  -4.1328  -4.1194  -4.1191
    -4.1144  -4.1138  -4.0989  -4.0988  -4.0971  -4.0961  -4.0958  -4.0941
    -4.0938  -4.0867  -4.0698  -4.0696  -4.0642  -4.0633  -4.0615  -4.0545
    -4.0473  -4.0313  -4.0308  -4.0304  -4.0295  -4.0227  -4.0223  -4.0147
    -4.0123  -4.0087  -4.0085  -4.0067  -4.0065  -4.0056  -4.0028  -4.0025
    -3.9884  -3.9876  -3.9869  -3.9841  -3.9774  -3.9773  -3.9678  -3.9676
    -3.9661  -3.9569  -3.9565  -3.9550  -3.9434  -3.9432  -3.9419  -3.9416
    -3.9285  -3.9282  -3.9244  -3.9238  -3.9219  -3.8909  -3.8907  -3.8860
    -3.8843  -3.8841  -3.8740  -3.8738  -3.8597  -3.8590  -3.8559  -3.8557
    -3.8506  -3.8503  -3.8417  -3.8386  -3.8372  -3.8368  -3.8337  -3.8334
    -3.7886  -3.7849  -3.7847  -3.7806  -3.7801  -3.7787  -3.7617  -3.7614
    -3.7457  -3.7453  -3.7197  -3.7194  -3.6911  -3.6829  -3.6826  -3.6633
    -3.6256  -3.6252  -3.6074  -3.6070  -3.5835  -3.4927  -3.4557  -3.4552
    -3.3643  -3.3633  -3.2802  -3.2538  -3.2534  -3.1854  -3.1849  -3.1517
    -3.1257  -3.1034  -3.0691  -3.0688  -2.9774  -2.9768  -2.9612  -2.9609
     2.9160   3.0053   3.0059   3.0314   3.1852   3.1868   3.2267   3.2273
     3.4619   3.4636   3.4948   3.5495   3.5503   3.5533   3.5554   3.6130
     3.7055   3.7062   3.7274   3.7299   3.7700   3.8881   3.9007   3.9019
     3.9298   4.2381   4.2392   4.6826   4.7766   4.7790   4.8902   4.8913
     4.9940   4.9947   5.0376   5.0490   5.0499   5.1475   5.1482   5.1749
     5.1761   5.1906   5.2673   5.3488   5.3495   5.3630   5.3646   5.3896
     5.5068   5.6315   5.6326   5.6785   5.6796   5.7565   5.7569   5.7672
     5.7680   5.8077   5.9018   5.9028   5.9446   5.9456   6.1447   6.1618
     6.1762   6.1770   6.2334   6.3350   6.3364   6.4192   6.4197   6.4774
     6.5138   6.5149   6.5154   6.5182   6.5187   6.5514   6.7049   6.7059
     6.7117   6.8655   6.8665   6.8803   6.8813   6.8855   6.8864   6.9156
     6.9166   7.0382   7.0417   7.0482   7.0494   7.1026   7.1030   7.1480
     7.1887   7.2027   7.2034   7.2137   7.2156   7.3469   7.3491   7.3528
     7.3537   7.3585   7.3596   7.3706   7.4094   7.4581   7.4600   7.5675
     7.5751   7.5758   7.6011   7.6027   7.6096   7.6516   7.7014   7.7021
     7.7149   7.7154   7.8183   7.8193   7.8242   7.8250   7.8273   7.8684
     7.8695   7.8778   7.8797   7.8962   7.8964   7.9204   7.9404   7.9418
     7.9424   7.9534   7.9558   7.9559   7.9993   8.0333   8.0344   8.0897
    10.8383  11.1918  11.1927  11.9931  11.9936  12.8852  12.8865  12.9120
    13.0029  13.0037  13.2679  13.2713  13.5431  13.5593  13.5600  13.6366
    13.6378  13.6725  13.6730  13.8470

          k = 0.0283 0.0153-0.0257 ( 63480 PWs)   bands (ev):

    -9.1480  -8.9568  -8.8771  -8.8744  -8.8649  -8.8631  -8.7814  -8.7794
    -8.6535  -8.6519  -8.5923  -8.5898  -8.5737  -8.5706  -8.5523  -8.4640
    -8.4581  -8.4564  -8.4414  -8.4392  -8.4285  -8.4263  -8.4231  -8.4086
    -8.3935  -8.3920  -8.3597  -8.3544  -8.3477  -8.3393  -8.3351  -8.3288
    -8.3241  -8.3155  -8.3057  -8.3024  -8.3004  -8.2870  -8.2866  -8.2841
    -8.2742  -8.2729  -8.2646  -8.2369  -8.2150  -8.2009  -8.2003  -8.1935
    -4.3120  -4.2962  -4.2861  -4.2814  -4.2781  -4.2770  -4.2765  -4.2760
    -4.2737  -4.2540  -4.2538  -4.2515  -4.2511  -4.2404  -4.2376  -4.2335
    -4.2284  -4.2191  -4.2154  -4.2140  -4.2136  -4.2092  -4.2050  -4.2043
    -4.2022  -4.1894  -4.1852  -4.1849  -4.1840  -4.1807  -4.1787  -4.1737
    -4.1719  -4.1717  -4.1691  -4.1612  -4.1603  -4.1511  -4.1508  -4.1506
    -4.1492  -4.1487  -4.1459  -4.1455  -4.1344  -4.1304  -4.1218  -4.1215
    -4.1177  -4.1088  -4.1087  -4.1038  -4.1023  -4.1020  -4.1000  -4.0994
    -4.0848  -4.0839  -4.0838  -4.0836  -4.0831  -4.0794  -4.0653  -4.0544
    -4.0512  -4.0378  -4.0371  -4.0360  -4.0351  -4.0332  -4.0221  -4.0174
    -4.0082  -4.0079  -4.0068  -4.0043  -4.0040  -3.9951  -3.9946  -3.9824
    -3.9822  -3.9814  -3.9803  -3.9774  -3.9767  -3.9749  -3.9634  -3.9629
    -3.9623  -3.9612  -3.9607  -3.9448  -3.9443  -3.9394  -3.9336  -3.9309
    -3.9225  -3.9111  -3.9062  -3.9059  -3.9056  -3.9039  -3.9034  -3.8934
    -3.8905  -3.8799  -3.8723  -3.8711  -3.8630  -3.8623  -3.8591  -3.8583
    -3.8560  -3.8552  -3.8520  -3.8507  -3.8499  -3.8488  -3.8482  -3.8163
    -3.8083  -3.8076  -3.7917  -3.7888  -3.7878  -3.7694  -3.7682  -3.7587
    -3.7490  -3.7488  -3.7205  -3.7204  -3.6937  -3.6770  -3.6734  -3.6543
    -3.6435  -3.6424  -3.5567  -3.5235  -3.5230  -3.5083  -3.4092  -3.4085
    -3.3841  -3.3131  -3.3108  -3.3098  -3.2604  -3.2294  -3.2293  -3.2045
    -3.2041  -3.1477  -3.0469  -3.0276  -2.9701  -2.9698  -2.9494  -2.8916
     2.7515   3.0180   3.0723   3.1340   3.1355   3.1614   3.3348   3.3771
     3.3784   3.3794   3.3938   3.3962   3.4036   3.4208   3.5300   3.6162
     3.6167   3.7402   3.7407   3.8927   4.0151   4.0423   4.0566   4.0576
     4.2108   4.2112   4.3963   4.3986   4.5590   4.6201   4.7928   4.8350
     4.9064   4.9385   5.0437   5.0718   5.0733   5.1755   5.1765   5.2198
     5.2231   5.2234   5.2781   5.2788   5.2893   5.3785   5.3801   5.3967
     5.4598   5.5362   5.6509   5.6534   5.7236   5.7379   5.7388   5.7836
     5.7902   5.7915   5.8791   5.9613   6.0589   6.0935   6.0940   6.1482
     6.1627   6.1773   6.2458   6.2504   6.2512   6.4256   6.4264   6.4308
     6.4509   6.4907   6.4916   6.4946   6.5138   6.7007   6.7172   6.7383
     6.7395   6.7891   6.7895   6.8504   6.9517   6.9527   6.9704   6.9754
     6.9782   7.0169   7.0179   7.0452   7.0455   7.0529   7.0780   7.0877
     7.1071   7.2337   7.2345   7.2355   7.2361   7.3024   7.3032   7.3045
     7.3855   7.4001   7.4321   7.4556   7.4569   7.4944   7.5182   7.5200
     7.5542   7.5956   7.6002   7.6235   7.6613   7.6622   7.6798   7.7069
     7.7093   7.7607   7.7629   7.7640   7.8011   7.8035   7.8084   7.8252
     7.8264   7.8961   7.8965   7.9045   7.9109   7.9314   7.9583   7.9587
     7.9720   7.9755   7.9761   7.9941   8.0060   8.0119   8.0540   8.0556
    10.1423  11.7302  11.7867  11.9632  12.0617  12.0624  13.0099  13.0553
    13.0555  13.3120  13.3124  13.3554  13.3562  13.5121  13.5127  13.5784
    13.6376  13.6530  13.6790  13.6800

          k = 0.0283 0.0153 0.0106 ( 63450 PWs)   bands (ev):

    -9.1701  -8.9887  -8.8389  -8.8375  -8.8349  -8.7976  -8.7965  -8.7936
    -8.6567  -8.6556  -8.6530  -8.6173  -8.6162  -8.6142  -8.4706  -8.4688
    -8.4665  -8.4545  -8.4410  -8.4398  -8.4381  -8.4347  -8.4329  -8.4003
    -8.3989  -8.3361  -8.3337  -8.3314  -8.3296  -8.3286  -8.3273  -8.3265
    -8.3254  -8.3242  -8.3226  -8.3206  -8.3183  -8.3024  -8.3007  -8.2688
    -8.2678  -8.2669  -8.2648  -8.2624  -8.2421  -8.1913  -8.1909  -8.1902
    -4.3073  -4.3072  -4.2836  -4.2831  -4.2825  -4.2797  -4.2791  -4.2787
    -4.2720  -4.2719  -4.2529  -4.2525  -4.2522  -4.2351  -4.2349  -4.2348
    -4.2313  -4.2310  -4.2306  -4.2192  -4.2128  -4.2127  -4.2124  -4.2080
    -4.2008  -4.1808  -4.1807  -4.1804  -4.1789  -4.1783  -4.1775  -4.1720
    -4.1716  -4.1689  -4.1684  -4.1548  -4.1544  -4.1537  -4.1334  -4.1332
    -4.1328  -4.1319  -4.1248  -4.1247  -4.1243  -4.1182  -4.1177  -4.1174
    -4.1161  -4.1158  -4.1155  -4.1030  -4.1029  -4.1027  -4.0916  -4.0914
    -4.0911  -4.0909  -4.0908  -4.0905  -4.0902  -4.0899  -4.0729  -4.0725
    -4.0512  -4.0508  -4.0507  -4.0487  -4.0484  -4.0264  -4.0261  -4.0197
    -4.0193  -4.0187  -3.9885  -3.9882  -3.9880  -3.9819  -3.9816  -3.9812
    -3.9747  -3.9743  -3.9740  -3.9707  -3.9704  -3.9704  -3.9652  -3.9648
    -3.9550  -3.9545  -3.9540  -3.9417  -3.9413  -3.9408  -3.9380  -3.9379
    -3.9377  -3.9295  -3.9289  -3.9037  -3.9034  -3.9032  -3.8763  -3.8761
    -3.8739  -3.8735  -3.8676  -3.8675  -3.8673  -3.8640  -3.8636  -3.8633
    -3.8581  -3.8580  -3.8576  -3.8556  -3.8447  -3.8444  -3.8443  -3.8261
    -3.8235  -3.8134  -3.8130  -3.8124  -3.8038  -3.8035  -3.8030  -3.7778
    -3.7389  -3.7387  -3.7381  -3.7054  -3.7051  -3.7046  -3.6414  -3.6411
    -3.6409  -3.5788  -3.5783  -3.4986  -3.4978  -3.4811  -3.4806  -3.4804
    -3.3195  -3.3192  -3.3188  -3.3013  -3.3010  -3.3007  -3.1772  -3.1766
    -3.1090  -3.1088  -3.1087  -3.0262  -3.0259  -2.9231  -2.9230  -2.9229
     2.7057   2.9266   3.0611   3.0617   3.0627   3.1307   3.1311   3.1321
     3.1984   3.5436   3.5443   3.5453   3.7210   3.7214   3.7229   3.7484
     3.7785   3.7822   3.7828   3.7846   4.0280   4.0289   4.0298   4.1848
     4.1854   4.1877   4.3914   4.3922   4.3928   4.4660   4.4664   4.4682
     4.7578   4.7592   4.9902   4.9911   4.9917   5.2030   5.2044   5.2056
     5.3937   5.3941   5.3947   5.4822   5.4829   5.4844   5.5189   5.5510
     5.5521   5.5529   5.6250   5.6251   5.6257   5.6716   5.7277   5.7290
     5.8326   5.8353   5.8699   6.0497   6.1012   6.1020   6.1037   6.1966
     6.1969   6.1982   6.2559   6.2569   6.2584   6.2900   6.3463   6.3468
     6.3473   6.3739   6.3745   6.3756   6.6585   6.6601   6.7657   6.7662
     6.7676   6.8705   6.8709   6.8716   6.8971   6.8974   6.8988   6.9129
     6.9131   6.9135   6.9147   6.9424   6.9432   6.9439   7.0205   7.0212
     7.1742   7.1745   7.1751   7.2124   7.2131   7.2138   7.4006   7.4015
     7.4030   7.4795   7.4806   7.4818   7.5327   7.5333   7.5344   7.5687
     7.5695   7.6949   7.6954   7.6961   7.7060   7.7077   7.7599   7.7603
     7.7611   7.7627   7.7631   7.7640   7.8202   7.8207   7.8570   7.8578
     7.8592   7.9131   7.9136   7.9320   7.9327   7.9340   7.9603   7.9609
     7.9622   7.9769   7.9773   7.9878   7.9885   7.9893   7.9941   7.9949
     9.8394  11.0546  12.5529  12.5536  12.5538  12.6917  12.6922  12.6925
    12.9558  13.1268  13.1275  13.1276  13.3239  13.3394  13.3396  13.3401
    13.3835  13.3837  13.3842  13.7274

          k = 0.0283 0.0153-0.0620 ( 63474 PWs)   bands (ev):

    -9.0680  -9.0183  -9.0083  -8.8770  -8.8750  -8.7314  -8.7266  -8.7245
    -8.7075  -8.7056  -8.7012  -8.5846  -8.5825  -8.4956  -8.4919  -8.4582
    -8.4516  -8.4509  -8.4487  -8.4474  -8.4394  -8.4305  -8.4199  -8.3877
    -8.3867  -8.3716  -8.3709  -8.3680  -8.3636  -8.3595  -8.3570  -8.3370
    -8.3357  -8.3113  -8.3013  -8.2928  -8.2911  -8.2752  -8.2729  -8.2580
    -8.2459  -8.2446  -8.2423  -8.2405  -8.2382  -8.2341  -8.2299  -8.2291
    -4.3030  -4.3015  -4.2818  -4.2810  -4.2810  -4.2803  -4.2776  -4.2755
    -4.2603  -4.2548  -4.2471  -4.2436  -4.2431  -4.2421  -4.2414  -4.2346
    -4.2325  -4.2276  -4.2264  -4.2231  -4.2226  -4.2223  -4.2189  -4.2125
    -4.1937  -4.1935  -4.1924  -4.1790  -4.1788  -4.1774  -4.1676  -4.1657
    -4.1640  -4.1636  -4.1605  -4.1601  -4.1596  -4.1538  -4.1528  -4.1524
    -4.1480  -4.1432  -4.1350  -4.1348  -4.1318  -4.1222  -4.1218  -4.1196
    -4.1191  -4.1103  -4.1097  -4.1080  -4.1073  -4.1000  -4.0955  -4.0946
    -4.0856  -4.0844  -4.0843  -4.0839  -4.0802  -4.0737  -4.0682  -4.0619
    -4.0591  -4.0590  -4.0470  -4.0306  -4.0301  -4.0234  -4.0192  -4.0146
    -4.0083  -4.0008  -4.0003  -3.9982  -3.9977  -3.9920  -3.9913  -3.9862
    -3.9860  -3.9759  -3.9752  -3.9743  -3.9725  -3.9676  -3.9607  -3.9596
    -3.9564  -3.9534  -3.9526  -3.9522  -3.9484  -3.9427  -3.9425  -3.9388
    -3.9332  -3.9223  -3.9106  -3.9103  -3.8984  -3.8861  -3.8857  -3.8838
    -3.8825  -3.8821  -3.8770  -3.8709  -3.8704  -3.8683  -3.8655  -3.8653
    -3.8627  -3.8539  -3.8501  -3.8497  -3.8439  -3.8423  -3.8418  -3.8183
    -3.8180  -3.8150  -3.8106  -3.7803  -3.7793  -3.7770  -3.7746  -3.7744
    -3.7644  -3.7618  -3.7161  -3.7149  -3.7078  -3.6827  -3.6791  -3.6672
    -3.6662  -3.6300  -3.6298  -3.5234  -3.4979  -3.4974  -3.4430  -3.3763
    -3.3760  -3.3740  -3.3617  -3.3044  -3.2773  -3.1757  -3.1750  -3.1358
    -3.0765  -3.0761  -3.0413  -3.0410  -3.0206  -3.0145  -2.9663  -2.9596
     2.8911   2.8954   2.9246   3.1478   3.1494   3.2116   3.2868   3.2898
     3.3218   3.3226   3.4384   3.4395   3.4776   3.6942   3.7581   3.7592
     3.7803   3.7817   3.8031   3.8044   3.8095   3.8109   3.9016   3.9654
     4.1186   4.1192   4.2778   4.5347   4.5370   4.6888   4.7065   4.7521
     4.8362   4.8938   5.0228   5.0239   5.1376   5.1384   5.1549   5.1782
     5.2327   5.3389   5.3538   5.3546   5.3551   5.3567   5.4489   5.5409
     5.5700   5.5940   5.6020   5.6029   5.6403   5.6416   5.6711   5.6873
     5.8734   6.0036   6.1125   6.1153   6.1238   6.1242   6.1367   6.1393
     6.2680   6.3072   6.3080   6.3088   6.3102   6.3317   6.3482   6.3576
     6.3985   6.4864   6.5092   6.5100   6.5397   6.6159   6.6598   6.6623
     6.6638   6.6905   6.7186   6.7197   6.8087   6.8367   6.8854   6.8862
     6.9130   6.9140   6.9165   6.9852   6.9866   7.0067   7.0685   7.1393
     7.1733   7.1738   7.2590   7.2603   7.2634   7.3289   7.3464   7.3536
     7.4104   7.4128   7.4141   7.5392   7.5430   7.5440   7.5759   7.5798
     7.6109   7.6175   7.6688   7.6701   7.6759   7.6966   7.6987   7.7237
     7.7248   7.7879   7.7886   7.7921   7.8173   7.8234   7.8402   7.8467
     7.8477   7.8489   7.8499   7.9129   7.9318   7.9346   7.9357   7.9383
     7.9403   7.9418   7.9465   7.9508   7.9519   7.9530   7.9944   8.0462
    10.7250  11.0774  11.2566  12.1371  12.1378  12.8119  12.9572  12.9574
    13.2297  13.2666  13.2675  13.3645  13.3646  13.4056  13.4431  13.4435
    13.4694  13.5075  13.7177  13.7179

          k = 0.0283-0.0525 0.0000 ( 63475 PWs)   bands (ev):

    -9.0601  -9.0142  -9.0115  -8.8869  -8.8847  -8.7286  -8.7190  -8.7178
    -8.7167  -8.7139  -8.7017  -8.5733  -8.5718  -8.4967  -8.4949  -8.4597
    -8.4506  -8.4278  -8.4236  -8.4229  -8.4212  -8.4191  -8.4153  -8.4143
    -8.3982  -8.3969  -8.3877  -8.3869  -8.3761  -8.3715  -8.3704  -8.3625
    -8.3135  -8.3116  -8.3071  -8.3045  -8.3014  -8.2648  -8.2619  -8.2599
    -8.2552  -8.2539  -8.2307  -8.2301  -8.2294  -8.2279  -8.2226  -8.2186
    -4.2951  -4.2938  -4.2848  -4.2843  -4.2798  -4.2774  -4.2716  -4.2714
    -4.2704  -4.2586  -4.2556  -4.2555  -4.2444  -4.2439  -4.2339  -4.2336
    -4.2280  -4.2276  -4.2242  -4.2232  -4.2227  -4.2162  -4.2094  -4.2092
    -4.1953  -4.1946  -4.1941  -4.1855  -4.1853  -4.1764  -4.1758  -4.1754
    -4.1659  -4.1657  -4.1637  -4.1601  -4.1598  -4.1596  -4.1561  -4.1560
    -4.1541  -4.1540  -4.1353  -4.1353  -4.1335  -4.1328  -4.1194  -4.1190
    -4.1144  -4.1138  -4.0988  -4.0987  -4.0971  -4.0962  -4.0958  -4.0941
    -4.0938  -4.0866  -4.0699  -4.0696  -4.0644  -4.0634  -4.0615  -4.0544
    -4.0473  -4.0314  -4.0305  -4.0302  -4.0295  -4.0228  -4.0225  -4.0146
    -4.0122  -4.0087  -4.0084  -4.0067  -4.0065  -4.0056  -4.0028  -4.0025
    -3.9885  -3.9876  -3.9871  -3.9841  -3.9775  -3.9773  -3.9678  -3.9676
    -3.9662  -3.9569  -3.9564  -3.9549  -3.9435  -3.9432  -3.9419  -3.9414
    -3.9284  -3.9282  -3.9243  -3.9238  -3.9220  -3.8909  -3.8907  -3.8860
    -3.8843  -3.8841  -3.8741  -3.8737  -3.8598  -3.8590  -3.8559  -3.8557
    -3.8506  -3.8502  -3.8417  -3.8386  -3.8372  -3.8369  -3.8337  -3.8335
    -3.7885  -3.7848  -3.7846  -3.7806  -3.7802  -3.7788  -3.7617  -3.7615
    -3.7459  -3.7452  -3.7195  -3.7194  -3.6910  -3.6830  -3.6826  -3.6631
    -3.6256  -3.6253  -3.6075  -3.6068  -3.5837  -3.4927  -3.4557  -3.4548
    -3.3643  -3.3633  -3.2800  -3.2541  -3.2535  -3.1854  -3.1849  -3.1519
    -3.1258  -3.1032  -3.0690  -3.0688  -2.9775  -2.9767  -2.9611  -2.9608
     2.9162   3.0044   3.0058   3.0311   3.1861   3.1874   3.2267   3.2277
     3.4621   3.4634   3.4963   3.5489   3.5502   3.5533   3.5542   3.6122
     3.7047   3.7063   3.7285   3.7290   3.7703   3.8876   3.9008   3.9021
     3.9300   4.2381   4.2385   4.6823   4.7768   4.7790   4.8911   4.8919
     4.9930   4.9947   5.0372   5.0489   5.0497   5.1477   5.1489   5.1755
     5.1766   5.1900   5.2678   5.3492   5.3499   5.3627   5.3642   5.3896
     5.5064   5.6319   5.6330   5.6785   5.6791   5.7571   5.7574   5.7674
     5.7680   5.8074   5.9019   5.9033   5.9445   5.9451   6.1448   6.1617
     6.1763   6.1766   6.2330   6.3350   6.3362   6.4186   6.4196   6.4774
     6.5136   6.5143   6.5155   6.5186   6.5192   6.5513   6.7048   6.7066
     6.7120   6.8653   6.8671   6.8803   6.8811   6.8848   6.8858   6.9152
     6.9160   7.0378   7.0414   7.0481   7.0497   7.1028   7.1035   7.1483
     7.1887   7.2022   7.2031   7.2136   7.2155   7.3469   7.3490   7.3528
     7.3535   7.3589   7.3595   7.3706   7.4108   7.4582   7.4599   7.5675
     7.5752   7.5760   7.6009   7.6022   7.6092   7.6528   7.7011   7.7022
     7.7146   7.7166   7.8180   7.8198   7.8241   7.8247   7.8274   7.8684
     7.8695   7.8775   7.8796   7.8962   7.8964   7.9209   7.9401   7.9419
     7.9424   7.9529   7.9555   7.9560   7.9991   8.0338   8.0344   8.0896
    10.8384  11.1917  11.1928  11.9930  11.9937  12.8852  12.8864  12.9124
    13.0029  13.0036  13.2678  13.2711  13.5429  13.5594  13.5601  13.6369
    13.6379  13.6727  13.6731  13.8469

          k = 0.0283-0.0525 0.0363 ( 63474 PWs)   bands (ev):

    -9.0678  -9.0185  -9.0085  -8.8765  -8.8749  -8.7312  -8.7264  -8.7247
    -8.7080  -8.7055  -8.7012  -8.5851  -8.5833  -8.4957  -8.4905  -8.4574
    -8.4524  -8.4501  -8.4495  -8.4470  -8.4386  -8.4309  -8.4217  -8.3885
    -8.3848  -8.3726  -8.3708  -8.3664  -8.3639  -8.3602  -8.3580  -8.3368
    -8.3353  -8.3125  -8.3003  -8.2925  -8.2898  -8.2756  -8.2725  -8.2584
    -8.2464  -8.2446  -8.2417  -8.2404  -8.2386  -8.2348  -8.2301  -8.2287
    -4.3030  -4.3016  -4.2817  -4.2809  -4.2808  -4.2804  -4.2778  -4.2756
    -4.2603  -4.2549  -4.2471  -4.2437  -4.2431  -4.2420  -4.2416  -4.2346
    -4.2325  -4.2275  -4.2266  -4.2230  -4.2226  -4.2220  -4.2189  -4.2125
    -4.1938  -4.1934  -4.1923  -4.1790  -4.1789  -4.1776  -4.1678  -4.1657
    -4.1640  -4.1635  -4.1604  -4.1600  -4.1598  -4.1537  -4.1528  -4.1525
    -4.1479  -4.1431  -4.1350  -4.1349  -4.1318  -4.1222  -4.1218  -4.1196
    -4.1190  -4.1102  -4.1098  -4.1079  -4.1075  -4.0999  -4.0954  -4.0946
    -4.0857  -4.0844  -4.0843  -4.0839  -4.0802  -4.0738  -4.0682  -4.0619
    -4.0592  -4.0588  -4.0470  -4.0307  -4.0303  -4.0235  -4.0192  -4.0146
    -4.0083  -4.0006  -4.0003  -3.9982  -3.9978  -3.9918  -3.9914  -3.9863
    -3.9860  -3.9756  -3.9751  -3.9746  -3.9725  -3.9675  -3.9607  -3.9596
    -3.9565  -3.9534  -3.9525  -3.9523  -3.9484  -3.9426  -3.9425  -3.9388
    -3.9332  -3.9223  -3.9106  -3.9102  -3.8984  -3.8860  -3.8857  -3.8838
    -3.8824  -3.8822  -3.8769  -3.8707  -3.8705  -3.8683  -3.8656  -3.8653
    -3.8627  -3.8539  -3.8501  -3.8497  -3.8439  -3.8422  -3.8419  -3.8183
    -3.8180  -3.8150  -3.8107  -3.7802  -3.7795  -3.7770  -3.7747  -3.7745
    -3.7643  -3.7618  -3.7160  -3.7149  -3.7077  -3.6828  -3.6791  -3.6671
    -3.6664  -3.6301  -3.6297  -3.5235  -3.4979  -3.4974  -3.4428  -3.3764
    -3.3758  -3.3741  -3.3617  -3.3044  -3.2773  -3.1757  -3.1753  -3.1355
    -3.0764  -3.0761  -3.0414  -3.0410  -3.0206  -3.0146  -2.9664  -2.9595
     2.8908   2.8960   2.9249   3.1480   3.1486   3.2106   3.2871   3.2903
     3.3216   3.3226   3.4387   3.4398   3.4768   3.6939   3.7581   3.7591
     3.7807   3.7822   3.8032   3.8045   3.8095   3.8106   3.9016   3.9659
     4.1188   4.1197   4.2766   4.5354   4.5366   4.6886   4.7064   4.7529
     4.8356   4.8938   5.0228   5.0246   5.1375   5.1384   5.1557   5.1777
     5.2322   5.3393   5.3534   5.3543   5.3551   5.3563   5.4495   5.5406
     5.5690   5.5946   5.6027   5.6032   5.6402   5.6413   5.6715   5.6868
     5.8726   6.0040   6.1127   6.1154   6.1235   6.1248   6.1369   6.1376
     6.2683   6.3072   6.3080   6.3092   6.3095   6.3315   6.3482   6.3580
     6.3988   6.4866   6.5094   6.5099   6.5398   6.6152   6.6601   6.6627
     6.6632   6.6904   6.7192   6.7202   6.8084   6.8373   6.8850   6.8875
     6.9132   6.9137   6.9161   6.9858   6.9866   7.0064   7.0688   7.1387
     7.1731   7.1738   7.2587   7.2602   7.2635   7.3287   7.3462   7.3537
     7.4102   7.4127   7.4140   7.5393   7.5426   7.5434   7.5763   7.5803
     7.6110   7.6175   7.6690   7.6696   7.6763   7.6966   7.6990   7.7234
     7.7259   7.7876   7.7891   7.7917   7.8173   7.8234   7.8401   7.8466
     7.8478   7.8490   7.8505   7.9128   7.9315   7.9344   7.9357   7.9383
     7.9400   7.9421   7.9463   7.9507   7.9519   7.9529   7.9943   8.0463
    10.7250  11.0774  11.2566  12.1371  12.1377  12.8119  12.9568  12.9578
    13.2296  13.2668  13.2671  13.3646  13.3649  13.4056  13.4429  13.4439
    13.4691  13.5075  13.7177  13.7180

          k = 0.0283-0.0525-0.0363 ( 63474 PWs)   bands (ev):

    -9.0679  -9.0183  -9.0086  -8.8772  -8.8742  -8.7305  -8.7270  -8.7248
    -8.7073  -8.7054  -8.7019  -8.5854  -8.5832  -8.4945  -8.4915  -8.4575
    -8.4524  -8.4508  -8.4491  -8.4466  -8.4383  -8.4310  -8.4218  -8.3871
    -8.3863  -8.3726  -8.3700  -8.3677  -8.3634  -8.3597  -8.3586  -8.3368
    -8.3354  -8.3124  -8.3005  -8.2925  -8.2899  -8.2744  -8.2732  -8.2584
    -8.2463  -8.2446  -8.2421  -8.2406  -8.2388  -8.2344  -8.2303  -8.2284
    -4.3029  -4.3016  -4.2817  -4.2813  -4.2807  -4.2805  -4.2778  -4.2754
    -4.2603  -4.2548  -4.2470  -4.2437  -4.2430  -4.2421  -4.2415  -4.2346
    -4.2325  -4.2273  -4.2270  -4.2229  -4.2225  -4.2222  -4.2188  -4.2126
    -4.1936  -4.1935  -4.1923  -4.1791  -4.1788  -4.1776  -4.1679  -4.1655
    -4.1639  -4.1636  -4.1603  -4.1601  -4.1597  -4.1534  -4.1532  -4.1525
    -4.1481  -4.1431  -4.1350  -4.1350  -4.1317  -4.1221  -4.1220  -4.1194
    -4.1190  -4.1104  -4.1098  -4.1078  -4.1073  -4.1000  -4.0954  -4.0946
    -4.0856  -4.0845  -4.0844  -4.0838  -4.0801  -4.0738  -4.0681  -4.0619
    -4.0596  -4.0585  -4.0469  -4.0307  -4.0303  -4.0234  -4.0192  -4.0146
    -4.0083  -4.0007  -4.0003  -3.9981  -3.9979  -3.9918  -3.9914  -3.9862
    -3.9861  -3.9758  -3.9748  -3.9745  -3.9724  -3.9675  -3.9607  -3.9596
    -3.9567  -3.9534  -3.9525  -3.9522  -3.9484  -3.9426  -3.9424  -3.9387
    -3.9333  -3.9223  -3.9105  -3.9103  -3.8984  -3.8861  -3.8857  -3.8839
    -3.8824  -3.8821  -3.8770  -3.8708  -3.8704  -3.8682  -3.8655  -3.8653
    -3.8626  -3.8538  -3.8500  -3.8497  -3.8439  -3.8421  -3.8419  -3.8181
    -3.8180  -3.8151  -3.8106  -3.7798  -3.7798  -3.7770  -3.7746  -3.7744
    -3.7644  -3.7618  -3.7161  -3.7150  -3.7076  -3.6828  -3.6789  -3.6669
    -3.6667  -3.6299  -3.6299  -3.5236  -3.4978  -3.4975  -3.4428  -3.3762
    -3.3759  -3.3742  -3.3617  -3.3044  -3.2772  -3.1757  -3.1751  -3.1356
    -3.0764  -3.0760  -3.0413  -3.0411  -3.0206  -3.0146  -2.9664  -2.9595
     2.8906   2.8963   2.9248   3.1477   3.1488   3.2106   3.2874   3.2898
     3.3218   3.3225   3.4386   3.4399   3.4768   3.6940   3.7581   3.7591
     3.7800   3.7825   3.8028   3.8048   3.8094   3.8111   3.9017   3.9658
     4.1186   4.1199   4.2765   4.5347   4.5370   4.6887   4.7063   4.7529
     4.8356   4.8936   5.0235   5.0238   5.1378   5.1384   5.1557   5.1776
     5.2324   5.3391   5.3534   5.3543   5.3548   5.3570   5.4497   5.5408
     5.5693   5.5944   5.6026   5.6033   5.6401   5.6412   5.6718   5.6868
     5.8729   6.0040   6.1128   6.1155   6.1236   6.1244   6.1371   6.1374
     6.2682   6.3060   6.3080   6.3094   6.3099   6.3314   6.3484   6.3578
     6.3987   6.4865   6.5094   6.5096   6.5398   6.6152   6.6606   6.6624
     6.6629   6.6902   6.7190   6.7202   6.8084   6.8373   6.8858   6.8868
     6.9133   6.9140   6.9162   6.9859   6.9865   7.0066   7.0688   7.1386
     7.1731   7.1738   7.2595   7.2599   7.2633   7.3286   7.3463   7.3538
     7.4102   7.4130   7.4140   7.5393   7.5427   7.5433   7.5761   7.5805
     7.6110   7.6176   7.6689   7.6698   7.6762   7.6965   7.6990   7.7245
     7.7247   7.7877   7.7893   7.7916   7.8173   7.8234   7.8401   7.8466
     7.8479   7.8490   7.8503   7.9128   7.9315   7.9350   7.9353   7.9379
     7.9408   7.9415   7.9462   7.9506   7.9520   7.9533   7.9942   8.0463
    10.7250  11.0773  11.2566  12.1372  12.1376  12.8120  12.9572  12.9574
    13.2296  13.2666  13.2672  13.3645  13.3649  13.4056  13.4434  13.4435
    13.4692  13.5075  13.7175  13.7179

 ------ SPIN DOWN ----------


          k = 0.0000 0.0000 0.0000 ( 63431 PWs)   bands (ev):

    -9.2348  -8.8517  -8.8504  -8.8477  -8.7337  -8.7311  -8.7296  -8.7292
    -8.7290  -8.7287  -8.7277  -8.7217  -8.6141  -8.6129  -8.6117  -8.4679
    -8.4652  -8.4646  -8.4475  -8.4461  -8.3674  -8.3643  -8.3621  -8.3619
    -8.3609  -8.3599  -8.3536  -8.3522  -8.3502  -8.3489  -8.3352  -8.3345
    -8.3325  -8.3303  -8.3284  -8.3280  -8.3239  -8.3226  -8.3219  -8.3215
    -8.3190  -8.3155  -8.2517  -8.2501  -8.1622  -8.1615  -8.1611  -8.1607
    -4.3190  -4.3189  -4.2874  -4.2871  -4.2869  -4.2704  -4.2702  -4.2699
    -4.2696  -4.2690  -4.2688  -4.2476  -4.2475  -4.2471  -4.2328  -4.2327
    -4.2204  -4.2204  -4.2201  -4.2185  -4.2183  -4.2179  -4.2179  -4.1956
    -4.1896  -4.1895  -4.1894  -4.1850  -4.1848  -4.1806  -4.1803  -4.1803
    -4.1604  -4.1603  -4.1599  -4.1597  -4.1592  -4.1588  -4.1423  -4.1422
    -4.1421  -4.1291  -4.1290  -4.1288  -4.1263  -4.1262  -4.1259  -4.1188
    -4.1187  -4.1182  -4.1179  -4.1176  -4.1174  -4.0986  -4.0984  -4.0981
    -4.0976  -4.0975  -4.0973  -4.0796  -4.0795  -4.0795  -4.0736  -4.0736
    -4.0731  -4.0731  -4.0675  -4.0542  -4.0541  -4.0198  -4.0191  -4.0186
    -4.0182  -4.0180  -4.0178  -4.0172  -4.0170  -3.9790  -3.9789  -3.9693
    -3.9693  -3.9692  -3.9682  -3.9680  -3.9680  -3.9675  -3.9674  -3.9672
    -3.9534  -3.9533  -3.9532  -3.9365  -3.9363  -3.9363  -3.9320  -3.9317
    -3.9317  -3.8920  -3.8919  -3.8914  -3.8914  -3.8791  -3.8790  -3.8771
    -3.8695  -3.8694  -3.8692  -3.8688  -3.8687  -3.8686  -3.8645  -3.8629
    -3.8628  -3.8624  -3.8623  -3.8619  -3.8617  -3.8502  -3.8501  -3.8501
    -3.8350  -3.8348  -3.8347  -3.7967  -3.7965  -3.7964  -3.7871  -3.7862
    -3.7350  -3.7350  -3.7348  -3.6924  -3.6921  -3.6919  -3.6035  -3.6031
    -3.4802  -3.4800  -3.4799  -3.4794  -3.4792  -3.4788  -3.3559  -3.3558
    -3.3550  -3.3549  -3.3212  -3.3210  -3.3207  -3.3084  -3.3082  -3.3077
    -3.3075  -3.3073  -3.3066  -2.9667  -2.9666  -2.8516  -2.8515  -2.8514
     2.6323   3.0021   3.1867   3.1879   3.1890   3.1892   3.1902   3.1912
     3.2078   3.2081   3.2093   3.2848   3.2867   3.7035   3.7038   3.7053
     3.9302   3.9306   3.9312   3.9316   3.9325   3.9342   4.2659   4.2669
     4.4405   4.4418   4.4422   4.4486   4.4493   4.4494   4.5726   4.5735
     4.8944   4.8953   4.8983   4.9676   5.2023   5.3137   5.3139   5.3157
     5.3163   5.3609   5.3616   5.3619   5.3794   5.3809   5.3818   5.4410
     5.4434   5.4446   5.4452   5.4458   5.4468   5.5920   5.5926   5.7999
     5.9224   5.9226   5.9228   5.9232   5.9242   5.9246   5.9319   5.9324
     5.9331   6.0337   6.0353   6.0355   6.2283   6.2289   6.2294   6.2297
     6.2314   6.6517   6.6522   6.6534   6.6537   6.6538   6.6549   7.0613
     7.0619   7.0628   7.0629   7.0650   7.0656   7.0664   7.1490   7.1498
     7.1505   7.1684   7.1695   7.1701   7.1708   7.1714   7.1720   7.1722
     7.1731   7.1740   7.2584   7.2598   7.2606   7.2612   7.2613   7.2652
     7.3033   7.3046   7.3051   7.3665   7.3669   7.3710   7.3716   7.3718
     7.3721   7.3724   7.3752   7.5616   7.5624   7.5639   7.6614   7.7384
     7.7390   7.7398   7.7467   7.7476   7.8526   7.8528   7.8955   7.8956
     7.8978   7.8980   7.9870   7.9879   7.9884   7.9965   7.9971   8.0249
     8.0255   8.0263   8.0266   8.0277   8.0283   8.0396   8.0400   8.0411
     9.0250  12.1625  12.1639  12.6860  12.6870  12.6877  12.6881  12.6885
    12.6892  12.8674  12.8675  12.8680  13.2426  13.2438  13.2439  13.4053
    13.6052  13.6053  13.6066  13.6067

          k = 0.0000 0.0000 0.0363 ( 63479 PWs)   bands (ev):

    -9.1659  -8.9792  -8.8444  -8.8430  -8.8406  -8.8081  -8.8064  -8.8037
    -8.6455  -8.6435  -8.6411  -8.6141  -8.6113  -8.6099  -8.4863  -8.4525
    -8.4513  -8.4473  -8.4372  -8.4334  -8.4137  -8.4120  -8.4068  -8.4026
    -8.3916  -8.3865  -8.3694  -8.3685  -8.3589  -8.3536  -8.3531  -8.3284
    -8.3265  -8.3251  -8.3239  -8.3232  -8.3202  -8.3110  -8.3043  -8.2691
[...]
    -4.0939  -4.0866  -4.0699  -4.0696  -4.0644  -4.0634  -4.0615  -4.0545
    -4.0473  -4.0314  -4.0306  -4.0302  -4.0296  -4.0228  -4.0225  -4.0146
    -4.0122  -4.0087  -4.0084  -4.0067  -4.0065  -4.0056  -4.0028  -4.0026
    -3.9885  -3.9876  -3.9871  -3.9841  -3.9775  -3.9774  -3.9678  -3.9677
    -3.9662  -3.9569  -3.9564  -3.9549  -3.9435  -3.9432  -3.9419  -3.9415
    -3.9284  -3.9282  -3.9244  -3.9239  -3.9220  -3.8909  -3.8908  -3.8860
    -3.8843  -3.8841  -3.8741  -3.8737  -3.8598  -3.8590  -3.8560  -3.8557
    -3.8506  -3.8503  -3.8418  -3.8386  -3.8372  -3.8369  -3.8337  -3.8335
    -3.7885  -3.7849  -3.7846  -3.7807  -3.7802  -3.7788  -3.7617  -3.7615
    -3.7459  -3.7452  -3.7195  -3.7195  -3.6911  -3.6830  -3.6826  -3.6631
    -3.6256  -3.6253  -3.6075  -3.6068  -3.5837  -3.4927  -3.4557  -3.4548
    -3.3643  -3.3633  -3.2800  -3.2541  -3.2535  -3.1854  -3.1849  -3.1519
    -3.1258  -3.1032  -3.0690  -3.0688  -2.9775  -2.9767  -2.9611  -2.9608
     2.9162   3.0044   3.0058   3.0311   3.1861   3.1874   3.2267   3.2277
     3.4621   3.4634   3.4963   3.5489   3.5502   3.5533   3.5542   3.6122
     3.7047   3.7063   3.7284   3.7289   3.7703   3.8876   3.9008   3.9021
     3.9300   4.2381   4.2385   4.6823   4.7768   4.7790   4.8911   4.8919
     4.9930   4.9947   5.0372   5.0489   5.0497   5.1477   5.1489   5.1755
     5.1766   5.1900   5.2678   5.3492   5.3499   5.3627   5.3642   5.3897
     5.5064   5.6319   5.6330   5.6785   5.6791   5.7571   5.7574   5.7674
     5.7680   5.8074   5.9020   5.9034   5.9445   5.9451   6.1448   6.1617
     6.1763   6.1766   6.2330   6.3350   6.3362   6.4186   6.4196   6.4774
     6.5137   6.5143   6.5156   6.5187   6.5192   6.5513   6.7048   6.7066
     6.7120   6.8653   6.8671   6.8804   6.8811   6.8848   6.8858   6.9153
     6.9160   7.0378   7.0415   7.0482   7.0497   7.1028   7.1035   7.1484
     7.1887   7.2022   7.2031   7.2136   7.2156   7.3469   7.3490   7.3529
     7.3536   7.3589   7.3595   7.3706   7.4108   7.4582   7.4599   7.5675
     7.5752   7.5760   7.6009   7.6022   7.6092   7.6528   7.7011   7.7022
     7.7147   7.7166   7.8180   7.8199   7.8241   7.8247   7.8274   7.8684
     7.8695   7.8775   7.8796   7.8962   7.8965   7.9209   7.9402   7.9420
     7.9424   7.9530   7.9555   7.9560   7.9991   8.0338   8.0344   8.0896
    10.8383  11.1916  11.1927  11.9929  11.9936  12.8851  12.8864  12.9123
    13.0028  13.0035  13.2677  13.2710  13.5428  13.5593  13.5601  13.6368
    13.6378  13.6726  13.6731  13.8476

          k = 0.0283-0.0525 0.0363 ( 63474 PWs)   bands (ev):

    -9.0678  -9.0185  -9.0084  -8.8765  -8.8749  -8.7312  -8.7263  -8.7247
    -8.7080  -8.7054  -8.7011  -8.5851  -8.5833  -8.4957  -8.4905  -8.4574
    -8.4524  -8.4501  -8.4494  -8.4470  -8.4385  -8.4309  -8.4217  -8.3885
    -8.3847  -8.3726  -8.3708  -8.3664  -8.3639  -8.3602  -8.3580  -8.3368
    -8.3353  -8.3125  -8.3003  -8.2925  -8.2898  -8.2756  -8.2725  -8.2583
    -8.2464  -8.2446  -8.2417  -8.2404  -8.2385  -8.2347  -8.2301  -8.2287
    -4.3030  -4.3016  -4.2817  -4.2810  -4.2809  -4.2804  -4.2778  -4.2756
    -4.2603  -4.2549  -4.2471  -4.2437  -4.2431  -4.2421  -4.2417  -4.2346
    -4.2325  -4.2276  -4.2266  -4.2230  -4.2226  -4.2220  -4.2189  -4.2125
    -4.1938  -4.1934  -4.1923  -4.1791  -4.1789  -4.1776  -4.1678  -4.1657
    -4.1640  -4.1635  -4.1605  -4.1600  -4.1598  -4.1537  -4.1528  -4.1525
    -4.1479  -4.1431  -4.1350  -4.1349  -4.1318  -4.1222  -4.1218  -4.1196
    -4.1190  -4.1102  -4.1098  -4.1079  -4.1075  -4.0999  -4.0954  -4.0946
    -4.0857  -4.0845  -4.0843  -4.0839  -4.0803  -4.0739  -4.0682  -4.0619
    -4.0593  -4.0588  -4.0470  -4.0307  -4.0304  -4.0235  -4.0192  -4.0146
    -4.0083  -4.0006  -4.0003  -3.9982  -3.9978  -3.9918  -3.9914  -3.9863
    -3.9861  -3.9756  -3.9751  -3.9746  -3.9725  -3.9676  -3.9607  -3.9596
    -3.9565  -3.9534  -3.9525  -3.9523  -3.9484  -3.9426  -3.9425  -3.9388
    -3.9332  -3.9223  -3.9106  -3.9102  -3.8984  -3.8860  -3.8857  -3.8838
    -3.8824  -3.8822  -3.8769  -3.8707  -3.8705  -3.8683  -3.8656  -3.8653
    -3.8627  -3.8539  -3.8501  -3.8497  -3.8439  -3.8422  -3.8419  -3.8183
    -3.8180  -3.8150  -3.8107  -3.7802  -3.7795  -3.7770  -3.7747  -3.7745
    -3.7644  -3.7618  -3.7160  -3.7149  -3.7077  -3.6828  -3.6791  -3.6671
    -3.6664  -3.6301  -3.6297  -3.5235  -3.4979  -3.4974  -3.4428  -3.3764
    -3.3758  -3.3741  -3.3617  -3.3044  -3.2773  -3.1757  -3.1753  -3.1355
    -3.0764  -3.0761  -3.0414  -3.0410  -3.0206  -3.0146  -2.9664  -2.9595
     2.8908   2.8960   2.9248   3.1480   3.1486   3.2106   3.2871   3.2902
     3.3216   3.3225   3.4387   3.4398   3.4767   3.6939   3.7581   3.7590
     3.7807   3.7822   3.8032   3.8045   3.8094   3.8106   3.9015   3.9659
     4.1188   4.1197   4.2766   4.5354   4.5366   4.6886   4.7064   4.7529
     4.8356   4.8938   5.0228   5.0246   5.1375   5.1384   5.1557   5.1777
     5.2322   5.3393   5.3535   5.3543   5.3551   5.3563   5.4495   5.5406
     5.5690   5.5946   5.6027   5.6032   5.6402   5.6413   5.6715   5.6868
     5.8726   6.0040   6.1127   6.1155   6.1235   6.1248   6.1369   6.1376
     6.2683   6.3072   6.3080   6.3092   6.3095   6.3315   6.3482   6.3580
     6.3989   6.4866   6.5094   6.5099   6.5398   6.6153   6.6601   6.6627
     6.6632   6.6904   6.7192   6.7202   6.8084   6.8373   6.8850   6.8875
     6.9132   6.9138   6.9161   6.9858   6.9866   7.0065   7.0688   7.1387
     7.1731   7.1738   7.2588   7.2602   7.2635   7.3287   7.3462   7.3537
     7.4103   7.4127   7.4140   7.5394   7.5426   7.5434   7.5763   7.5803
     7.6110   7.6175   7.6690   7.6697   7.6763   7.6966   7.6990   7.7234
     7.7259   7.7876   7.7892   7.7917   7.8174   7.8234   7.8401   7.8467
     7.8479   7.8490   7.8505   7.9128   7.9316   7.9344   7.9357   7.9384
     7.9401   7.9422   7.9463   7.9507   7.9519   7.9529   7.9943   8.0463
    10.7249  11.0773  11.2565  12.1370  12.1377  12.8119  12.9568  12.9578
    13.2295  13.2667  13.2670  13.3645  13.3648  13.4055  13.4429  13.4439
    13.4691  13.5074  13.7177  13.7180

          k = 0.0283-0.0525-0.0363 ( 63474 PWs)   bands (ev):

    -9.0679  -9.0183  -9.0086  -8.8772  -8.8742  -8.7305  -8.7269  -8.7248
    -8.7073  -8.7054  -8.7019  -8.5854  -8.5831  -8.4944  -8.4914  -8.4575
    -8.4523  -8.4508  -8.4491  -8.4465  -8.4383  -8.4310  -8.4218  -8.3870
    -8.3863  -8.3726  -8.3700  -8.3677  -8.3634  -8.3596  -8.3585  -8.3367
    -8.3354  -8.3124  -8.3005  -8.2925  -8.2899  -8.2744  -8.2732  -8.2584
    -8.2462  -8.2445  -8.2421  -8.2406  -8.2387  -8.2344  -8.2303  -8.2284
    -4.3029  -4.3016  -4.2817  -4.2813  -4.2807  -4.2805  -4.2779  -4.2755
    -4.2603  -4.2548  -4.2471  -4.2437  -4.2431  -4.2421  -4.2415  -4.2346
    -4.2325  -4.2273  -4.2270  -4.2229  -4.2225  -4.2222  -4.2189  -4.2126
    -4.1937  -4.1936  -4.1923  -4.1791  -4.1788  -4.1776  -4.1680  -4.1656
    -4.1639  -4.1636  -4.1603  -4.1601  -4.1597  -4.1534  -4.1532  -4.1525
    -4.1481  -4.1432  -4.1351  -4.1350  -4.1317  -4.1221  -4.1220  -4.1194
    -4.1190  -4.1105  -4.1098  -4.1078  -4.1073  -4.1000  -4.0954  -4.0946
    -4.0856  -4.0845  -4.0844  -4.0839  -4.0801  -4.0738  -4.0681  -4.0620
    -4.0596  -4.0585  -4.0469  -4.0307  -4.0304  -4.0234  -4.0192  -4.0146
    -4.0084  -4.0007  -4.0003  -3.9981  -3.9979  -3.9919  -3.9914  -3.9862
    -3.9861  -3.9758  -3.9748  -3.9746  -3.9724  -3.9675  -3.9607  -3.9596
    -3.9567  -3.9534  -3.9526  -3.9522  -3.9484  -3.9426  -3.9425  -3.9387
    -3.9333  -3.9223  -3.9105  -3.9103  -3.8985  -3.8861  -3.8857  -3.8839
    -3.8825  -3.8822  -3.8771  -3.8708  -3.8704  -3.8682  -3.8656  -3.8653
    -3.8626  -3.8538  -3.8500  -3.8497  -3.8440  -3.8421  -3.8419  -3.8181
    -3.8181  -3.8152  -3.8107  -3.7798  -3.7798  -3.7770  -3.7746  -3.7744
    -3.7644  -3.7618  -3.7161  -3.7150  -3.7077  -3.6829  -3.6789  -3.6669
    -3.6667  -3.6299  -3.6299  -3.5236  -3.4978  -3.4975  -3.4428  -3.3762
    -3.3759  -3.3743  -3.3617  -3.3044  -3.2772  -3.1757  -3.1751  -3.1356
    -3.0764  -3.0760  -3.0413  -3.0411  -3.0206  -3.0146  -2.9664  -2.9595
     2.8905   2.8963   2.9248   3.1477   3.1488   3.2106   3.2874   3.2898
     3.3217   3.3225   3.4386   3.4399   3.4767   3.6940   3.7581   3.7591
     3.7800   3.7825   3.8028   3.8048   3.8094   3.8111   3.9017   3.9658
     4.1186   4.1199   4.2765   4.5347   4.5370   4.6887   4.7063   4.7529
     4.8356   4.8936   5.0235   5.0238   5.1378   5.1384   5.1557   5.1776
     5.2324   5.3391   5.3534   5.3543   5.3548   5.3570   5.4497   5.5408
     5.5693   5.5944   5.6026   5.6033   5.6401   5.6412   5.6718   5.6868
     5.8729   6.0039   6.1129   6.1155   6.1236   6.1244   6.1371   6.1375
     6.2682   6.3060   6.3080   6.3094   6.3099   6.3315   6.3484   6.3578
     6.3988   6.4865   6.5094   6.5097   6.5398   6.6152   6.6606   6.6624
     6.6629   6.6902   6.7190   6.7202   6.8084   6.8373   6.8859   6.8868
     6.9133   6.9140   6.9162   6.9859   6.9865   7.0066   7.0689   7.1386
     7.1731   7.1738   7.2595   7.2600   7.2633   7.3286   7.3463   7.3539
     7.4102   7.4130   7.4140   7.5393   7.5427   7.5433   7.5761   7.5805
     7.6110   7.6176   7.6689   7.6698   7.6762   7.6965   7.6990   7.7245
     7.7247   7.7877   7.7893   7.7916   7.8173   7.8234   7.8401   7.8467
     7.8479   7.8490   7.8503   7.9128   7.9315   7.9350   7.9353   7.9379
     7.9408   7.9415   7.9463   7.9506   7.9520   7.9533   7.9942   8.0463
    10.7250  11.0773  11.2565  12.1371  12.1376  12.8119  12.9571  12.9574
    13.2295  13.2666  13.2672  13.3644  13.3649  13.4055  13.4433  13.4435
    13.4691  13.5075  13.7174  13.7179

     the Fermi energy is     8.5447 ev

!    total energy              =   -6637.03743739 Ry
     Harris-Foulkes estimate   =   -6637.03743739 Ry
     estimated scf accuracy    <          4.9E-09 Ry

     The total energy is the sum of the following terms:

     one-electron contribution =   -1621.94492117 Ry
     hartree contribution      =    1436.00210427 Ry
     xc contribution           =   -1885.86684150 Ry
     ewald contribution        =   -4108.26681934 Ry
     one-center paw contrib.   =    -456.96095965 Ry
     smearing contrib. (-TS)   =      -0.00000000 Ry

     total magnetization       =     0.00 Bohr mag/cell
     absolute magnetization    =     0.00 Bohr mag/cell

     convergence has been achieved in  14 iterations

     Forces acting on atoms (cartesian axes, Ry/au):

     atom    1 type  1   force =    -0.00512617    0.00058069    0.00039184
     atom    2 type  1   force =     0.00039609    0.00006591    0.00004590
     atom    3 type  1   force =     0.00018706    0.00019088    0.00006579
     atom    4 type  1   force =     0.00007935   -0.00012991   -0.00000047
     atom    5 type  1   force =     0.00013646    0.00015619    0.00018260
     atom    6 type  1   force =     0.00006314   -0.00004653   -0.00012336
     atom    7 type  1   force =    -0.00002236    0.00001541   -0.00000685
     atom    8 type  1   force =     0.00017506    0.00006237    0.00003761
     atom    9 type  1   force =     0.00077416    0.00073446    0.00050698
     atom   10 type  1   force =     0.00053395   -0.00029092   -0.00038701
     atom   11 type  1   force =    -0.00023860    0.00022085    0.00003915
     atom   12 type  1   force =    -0.00003599   -0.00011612   -0.00003717
     atom   13 type  1   force =    -0.00025474    0.00002064    0.00002925
     atom   14 type  1   force =    -0.00002032   -0.00006445   -0.00005631
     atom   15 type  1   force =    -0.00010586   -0.00000730   -0.00003638
     atom   16 type  1   force =    -0.00004033   -0.00009859   -0.00002583
     atom   17 type  1   force =     0.00015233    0.00007507    0.00003008
     atom   18 type  1   force =     0.00004331    0.00017357    0.00005290
     atom   19 type  1   force =     0.00033268   -0.00015949    0.00052358
     atom   20 type  1   force =     0.00032935    0.00019516   -0.00018347
     atom   21 type  1   force =     0.00038077    0.00016235   -0.00022403
     atom   22 type  1   force =     0.00037934   -0.00006805    0.00044909
     atom   23 type  1   force =     0.00003154    0.00002900    0.00007626
     atom   24 type  1   force =     0.00016133    0.00007447    0.00002553
     atom   25 type  1   force =    -0.00019126   -0.00012653   -0.00009642
     atom   26 type  1   force =    -0.00005160    0.00000315   -0.00000524
     atom   27 type  1   force =     0.00001167   -0.00003395   -0.00002283
     atom   28 type  1   force =    -0.00045218   -0.00023804   -0.00023712
     atom   29 type  1   force =     0.00004292   -0.00003315   -0.00001627
     atom   30 type  1   force =    -0.00077939   -0.00026375    0.00007607
     atom   31 type  1   force =     0.00020724   -0.00075407   -0.00068325
     atom   32 type  1   force =     0.00010979    0.00014228    0.00009710
     atom   33 type  2   force =    -0.00002108    0.00033551   -0.00055938
     atom   34 type  2   force =     0.00003697    0.00036989   -0.00050943
     atom   35 type  2   force =     0.00012993    0.00038747   -0.00059426
     atom   36 type  2   force =    -0.00006608    0.00035808   -0.00050488
     atom   37 type  2   force =     0.00058621    0.00054569   -0.00062857
     atom   38 type  2   force =    -0.00024436    0.00039808   -0.00054541
     atom   39 type  2   force =    -0.00000600    0.00025857   -0.00059057
     atom   40 type  2   force =    -0.00007660    0.00047675   -0.00049617
     atom   41 type  2   force =    -0.00039852    0.00048110   -0.00017114
     atom   42 type  2   force =    -0.00032135    0.00061723    0.00021001
     atom   43 type  2   force =    -0.00024729    0.00052343    0.00004279
     atom   44 type  2   force =    -0.00032685    0.00055512   -0.00000989
     atom   45 type  2   force =     0.00008896    0.00037450   -0.00023659
     atom   46 type  2   force =    -0.00038137    0.00055270   -0.00003424
     atom   47 type  2   force =    -0.00036143    0.00046716    0.00000239
     atom   48 type  2   force =    -0.00035248    0.00075696   -0.00006596
     atom   49 type  2   force =     0.00027007   -0.00031995   -0.00058419
     atom   50 type  2   force =     0.00026676   -0.00006673   -0.00045656
     atom   51 type  2   force =     0.00087845    0.00025467   -0.00096784
     atom   52 type  2   force =     0.00010915   -0.00019982   -0.00053086
     atom   53 type  2   force =     0.00045188   -0.00016446   -0.00064072
     atom   54 type  2   force =     0.00024917   -0.00021989   -0.00050992
     atom   55 type  2   force =     0.00028395   -0.00024501   -0.00056072
     atom   56 type  2   force =     0.00030135   -0.00015856   -0.00048155
     atom   57 type  2   force =    -0.00039193    0.00018759    0.00055918
     atom   58 type  2   force =     0.00013594    0.00031395    0.00063853
     atom   59 type  2   force =    -0.00031755    0.00034590    0.00050103
     atom   60 type  2   force =    -0.00037521    0.00008807    0.00053745
     atom   61 type  2   force =    -0.00036664    0.00024055    0.00066840
     atom   62 type  2   force =    -0.00034267    0.00007998    0.00034661
     atom   63 type  2   force =    -0.00033568    0.00020226    0.00052205
     atom   64 type  2   force =    -0.00026238    0.00016475    0.00056447
     atom   65 type  2   force =    -0.00022690   -0.00042911    0.00058303
     atom   66 type  2   force =     0.00141410   -0.00121927    0.00070989
     atom   67 type  2   force =     0.00010426   -0.00025472    0.00051025
     atom   68 type  2   force =    -0.00004963   -0.00039246    0.00051823
     atom   69 type  2   force =     0.00001535   -0.00035987    0.00056850
     atom   70 type  2   force =    -0.00003724   -0.00038057    0.00046997
     atom   71 type  2   force =    -0.00002922   -0.00035042    0.00050080
     atom   72 type  2   force =     0.00000380   -0.00038100    0.00061675
     atom   73 type  2   force =     0.00027912   -0.00058704   -0.00002167
     atom   74 type  2   force =     0.00039196   -0.00048273    0.00005587
     atom   75 type  2   force =     0.00103020   -0.00071139    0.00002925
     atom   76 type  2   force =     0.00006507   -0.00063424    0.00000290
     atom   77 type  2   force =     0.00033516   -0.00057463    0.00007903
     atom   78 type  2   force =     0.00026626   -0.00057057   -0.00003357
     atom   79 type  2   force =     0.00030968   -0.00056582   -0.00000438
     atom   80 type  2   force =     0.00032598   -0.00053930    0.00001338

     Total force =     0.007760     Total SCF correction =     0.000148


     Computing stress (Cartesian axis) and pressure

          total   stress  (Ry/bohr**3)                   (kbar)     P=       -4.86
  -0.00002440   0.00000872   0.00000613           -3.59        1.28        0.90
   0.00000872  -0.00003597   0.00000279            1.28       -5.29        0.41
   0.00000613   0.00000279  -0.00003867            0.90        0.41       -5.69

 
     init_run     :     41.21s CPU     41.96s WALL (       1 calls)
     electrons    :   2415.27s CPU   2456.00s WALL (       1 calls)
     forces       :     17.89s CPU     18.14s WALL (       1 calls)
     stress       :    256.88s CPU    258.52s WALL (       1 calls)

     Called by init_run:
     wfcinit      :     38.31s CPU     38.92s WALL (       1 calls)
     potinit      :      0.92s CPU      0.97s WALL (       1 calls)
     hinit0       :      0.83s CPU      0.86s WALL (       1 calls)

     Called by electrons:
     c_bands      :   2255.01s CPU   2292.32s WALL (      14 calls)
     sum_band     :    148.91s CPU    151.50s WALL (      14 calls)
     v_of_rho     :      3.93s CPU      4.17s WALL (      15 calls)
     newd         :      4.59s CPU      5.24s WALL (      15 calls)
     PAW_pot      :      2.22s CPU      2.25s WALL (      15 calls)
     mix_rho      :      0.84s CPU      0.85s WALL (      14 calls)

     Called by c_bands:
     init_us_2    :     12.92s CPU     13.00s WALL (     868 calls)
     cegterg      :   2212.61s CPU   2249.48s WALL (     392 calls)

     Called by sum_band:
     sum_band:bec :      1.78s CPU      1.79s WALL (     392 calls)
     addusdens    :      6.91s CPU      7.72s WALL (      14 calls)

     Called by *egterg:
     h_psi        :    691.06s CPU    704.36s WALL (    1911 calls)
     s_psi        :    112.26s CPU    113.04s WALL (    1911 calls)
     g_psi        :      2.04s CPU      2.07s WALL (    1491 calls)
     cdiaghg      :   1115.09s CPU   1121.30s WALL (    1883 calls)

     Called by h_psi:
     h_psi:calbec :    114.79s CPU    115.47s WALL (    1911 calls)
     vloc_psi     :    456.73s CPU    465.27s WALL (    1911 calls)
     add_vuspsi   :    112.79s CPU    113.42s WALL (    1911 calls)

     General routines
     calbec       :    170.46s CPU    171.56s WALL (    2443 calls)
     fft          :      3.91s CPU      4.02s WALL (     413 calls)
     ffts         :      0.09s CPU      0.10s WALL (      58 calls)
     fftw         :    483.20s CPU    492.18s WALL (  950656 calls)
     interpolate  :      0.35s CPU      0.35s WALL (      30 calls)
 
     Parallel routines
     fft_scatt_xy :     57.86s CPU     58.74s WALL (  951127 calls)
     fft_scatt_yz :    225.65s CPU    230.67s WALL (  951127 calls)
 
     PWSCF        :  45m31.99s CPU  46m15.69s WALL

 
   This run was terminated on:  16:48:23   7Jul2021            

=------------------------------------------------------------------------------=
   JOB DONE.
=------------------------------------------------------------------------------=
# python dir           : /gpfs/nobackup/projects/quantumchemistry/rom_cq/SOAPML/venv/SOAPML/lib/python3.6/site-packages/espresso
# espresso dir         : /software/app/qe_foundation/qe/6.5/rt_intel_impi/2017.5/2020-02-13_09-05-31/bin
# pseudo dir           : /gpfs/nobackup/projects/quantumchemistry/rom_cq/SOAPML/data/In2O3/espresso_calculations/psp_copy/
# ase-espresso version : 0.3.3


