1
Lattice="3.6672203535990606 0.43678438325017466 -3.328493872614709e-10 0.6895445690592926 3.628197073834786 -7.630432684630227e-10 -2.17838246118244 -2.032490728111386 2.182410825728382" Properties=species:S:1:pos:R:3:spacegroup_kinds:I:1:forces:R:3 spacegroup="P 1" unit_cell=conventional occupancy="_JSON {\"0\": {\"In\": 1}}" n_minim_iter=2 energy=-1971.0416573859754 stress="-0.05553335670123412 -9.331807933670363e-05 1.6223568566672678e-14 -9.331807933670363e-05 -0.05552040860464549 -4.507595944334353e-14 1.6223568566672678e-14 -4.507595944334353e-14 -0.055433340270302715" free_energy=-1971.0416573859754 pbc="T T T"
In       0.00000000       0.00000000       0.00000000        0      -0.00000000       0.00000000       0.00000000
