1
Lattice="3.633880141344291 0.4328133963328376 -3.2982369747626683e-10 0.683275635078003 3.5952116383059165 -7.561060680032218e-10 -2.158577888065743 -2.0140125168922034 2.1625696290886762" Properties=species:S:1:pos:R:3:spacegroup_kinds:I:1:forces:R:3 spacegroup="P 1" unit_cell=conventional occupancy="_JSON {\"0\": {\"In\": 1}}" n_minim_iter=1 energy=-1970.9854796710554 stress="-0.08896150857115127 0.005806632959546282 -1.5598667798817046e-12 0.005806632959546282 -0.08976719215603879 -1.4665827961550343e-12 -1.5598667798817046e-12 -1.4665827961550343e-12 -0.09518494035400067" free_energy=-1970.9854796710554 pbc="T T T"
In       0.00000000       0.00000000       0.00000000        0       0.00000000      -0.00000000      -0.00000000
