1
Lattice="3.4459386861925636 0.24777904096776646 -2.8064098431450754e-10 0.48567758040045167 3.4205270310345166 -7.083153247008823e-10 -1.9658081331506254 -1.83415303557257 2.1696471851156405" Properties=species:S:1:pos:R:3:spacegroup_kinds:I:1:forces:R:3 spacegroup="P 1" unit_cell=conventional occupancy="_JSON {\"0\": {\"In\": 1}}" n_minim_iter=1 energy=-1970.560401760091 stress="-0.2031858326529836 0.018383678719140158 -4.91495861058748e-12 0.018383678719140158 -0.2057366100618825 -4.674851545546835e-12 -4.91495861058748e-12 -4.674851545546835e-12 -0.22288908774492922" free_energy=-1970.560401760091 pbc="T T T"
In       0.00000000       0.00000000       0.00000000        0      -0.00000000       0.00000000      -0.00000000
1
Lattice="3.393765364063347 0.13245091528193415 -2.5435214903580097e-10 0.36701509231733315 3.3764606488579663 -6.916320983776455e-10 -1.8803902280411808 -1.754455781631752 2.21837870794443" Properties=species:S:1:pos:R:3:spacegroup_kinds:I:1:forces:R:3 spacegroup="P 1" unit_cell=conventional occupancy="_JSON {\"0\": {\"In\": 1}}" n_minim_iter=2 energy=-1970.5845395726988 stress="-0.17530806185611722 0.0026846191512185707 -6.78842372461415e-13 0.0026846191512185707 -0.1756805588949772 -7.719394195632707e-13 -6.78842372461415e-13 -7.719394195632707e-13 -0.17818538237343493" free_energy=-1970.5845395726988 pbc="T T T"
In       0.00000000       0.00000000       0.00000000        0       0.00000000      -0.00000000       0.00000000
