1
Lattice="3.537982914451368 0.37007152101128116 -3.1098461045944543e-10 0.614047180123597 3.5038867125230597 -7.33411490291498e-10 -2.0760150471433914 -1.9369791163438579 2.14302343909146" Properties=species:S:1:pos:R:3:spacegroup_kinds:I:1:forces:R:3 spacegroup="P 1" unit_cell=conventional occupancy="_JSON {\"0\": {\"In\": 1}}" n_minim_iter=1 energy=-1970.8032682967696 stress="-0.1507127985397148 0.009200574122787776 -2.494432861980585e-12 0.009200574122787776 -0.1519893992125079 -2.2994237667949977e-12 -2.494432861980585e-12 -2.2994237667949977e-12 -0.16057378782826953" free_energy=-1970.8032682967696 pbc="T T T"
In       0.00000000       0.00000000       0.00000000        0      -0.00000000      -0.00000000       0.00000000
