1
Lattice="3.7827220104412698 0.4854073956112419 -3.502216103026315e-10 0.7460448346998285 3.7400565841453 -7.889400529985795e-10 -2.2643834224209027 -2.1127319894386356 2.2256543768202146" Properties=species:S:1:pos:R:3:spacegroup_kinds:I:1:forces:R:3 spacegroup="P 1" unit_cell=conventional occupancy="_JSON {\"0\": {\"In\": 1}}" n_minim_iter=6 energy=-1971.082291650476 stress="-0.0007414038577294813 -0.0007714463879191782 3.164328018730181e-14 -0.0007714463879191782 -0.0006343639095271693 2.902586853230949e-13 3.164328018730181e-14 2.902586853230949e-13 8.541678064624492e-05" free_energy=-1971.082291650476 pbc="T T T"
In       0.00000000       0.00000000       0.00000000        0      -0.00000000      -0.00000000      -0.00000000
