1
Lattice="3.8750196984109144 0.4972512425063169 -3.587683697513656e-10 0.7642481848731714 3.8313132439366995 -8.081886969276015e-10 -2.3196339414887452 -2.1642822427711446 2.2799599146400755" Properties=species:S:1:pos:R:3:spacegroup_kinds:I:1:forces:R:3 spacegroup="P 1" unit_cell=conventional occupancy="_JSON {\"0\": {\"In\": 1}}" n_minim_iter=1 energy=-1971.0522520429208 stress="0.03112068943676497 -0.008681384833917687 2.3204595372101973e-12 -0.008681384833917687 0.03232525141003126 2.20513792464287e-12 2.3204595372101973e-12 2.20513792464287e-12 0.04042522214521149" free_energy=-1971.0522520429208 pbc="T T T"
In       0.00000000       0.00000000       0.00000000        0      -0.00000000      -0.00000000       0.00000000
