1
Lattice="3.287639966369958 0.1283090832601934 -2.4640080224058484e-10 0.3555382757276856 3.270876381615899 -6.700028445726347e-10 -1.821589120904326 -1.6995927320135522 2.1490084665281906" Properties=species:S:1:pos:R:3:spacegroup_kinds:I:1:forces:R:3 spacegroup="P 1" unit_cell=conventional occupancy="_JSON {\"0\": {\"In\": 1}}" n_minim_iter=1 energy=-1969.7919936076642 stress="-0.5389972499741732 -0.0244615171010956 6.801828843013145e-12 -0.0244615171010956 -0.5356031586089824 6.346353044015759e-12 6.801828843013145e-12 6.346353044015759e-12 -0.5127798906116995" free_energy=-1969.7919936076642 pbc="T T T"
In       0.00000000       0.00000000       0.00000000        0       0.00000000      -0.00000000      -0.00000000
1
Lattice="3.349338934538036 0.2637956025597142 -2.773121514143479e-10 0.49497008810478715 3.323050410424702 -6.896840587491361e-10 -1.9221545111807465 -1.7934230060789675 2.0920361791222484" Properties=species:S:1:pos:R:3:spacegroup_kinds:I:1:forces:R:3 spacegroup="P 1" unit_cell=conventional occupancy="_JSON {\"0\": {\"In\": 1}}" n_minim_iter=2 energy=-1969.8322007052832 stress="-0.4253577325054731 -0.00304798477816228 8.345217673875186e-13 -0.00304798477816228 -0.42493481765571967 7.528770426717914e-13 8.345217673875186e-13 7.528770426717914e-13 -0.42209096405696" free_energy=-1969.8322007052832 pbc="T T T"
In       0.00000000       0.00000000       0.00000000        0       0.00000000      -0.00000000       0.00000000
