1
Lattice="3.8447448702558615 0.4933663084702554 -3.5596537735725075e-10 0.7582772520094404 3.8013798864066906 -8.018744647892789e-10 -2.301511060980551 -2.147373096991628 2.2621470001291004" Properties=species:S:1:pos:R:3:spacegroup_kinds:I:1:forces:R:3 spacegroup="P 1" unit_cell=conventional occupancy="_JSON {\"0\": {\"In\": 1}}" n_minim_iter=1 energy=-1971.0522520429208 stress="0.03112068943676497 -0.008681384833917687 2.3204595372101973e-12 -0.008681384833917687 0.03232525141003126 2.20513792464287e-12 2.3204595372101973e-12 2.20513792464287e-12 0.04042522214521149" free_energy=-1971.0522520429208 pbc="T T T"
In       0.00000000       0.00000000       0.00000000        0      -0.00000000      -0.00000000       0.00000000
