1
Lattice="3.537982914451369 0.37007152101128127 -3.1098458772588396e-10 0.6140471801235972 3.503886712523061 -7.334120140978802e-10 -2.076015047143392 -1.936979116343858 2.1430234390914604" Properties=species:S:1:pos:R:3:spacegroup_kinds:I:1:forces:R:3 spacegroup="P 1" unit_cell=conventional occupancy="_JSON {\"0\": {\"In\": 1}}" n_minim_iter=1 energy=-1970.6706949445195 stress="-0.18407755360312655 0.017911945826886714 -4.8402033690137115e-12 0.017911945826886714 -0.18656287699583174 -4.516071017115727e-12 -4.8402033690137115e-12 -4.516071017115727e-12 -0.20327521492166212" free_energy=-1970.6706949445195 pbc="T T T"
In       0.00000000       0.00000000       0.00000000        0       0.00000000       0.00000000       0.00000000
1
Lattice="3.480400359201325 0.2502569957620485 -2.8344583432333337e-10 0.49053467841862164 3.4547345706327865 -7.15398173467209e-10 -1.9854675186626334 -1.8524957827645592 2.1913450963806964" Properties=species:S:1:pos:R:3:spacegroup_kinds:I:1:forces:R:3 spacegroup="P 1" unit_cell=conventional occupancy="_JSON {\"0\": {\"In\": 1}}" n_minim_iter=2 energy=-1970.700188708997 stress="-0.15351978113428744 0.005300883773297051 -1.4291769950580674e-12 0.005300883773297051 -0.15425529086467346 -1.3332026016892101e-12 -1.4291769950580674e-12 -1.3332026016892101e-12 -0.1592011611671024" free_energy=-1970.700188708997 pbc="T T T"
In       0.00000000       0.00000000       0.00000000        0      -0.00000000      -0.00000000       0.00000000
