1
Lattice="3.9631183328917654 0.5085562574141562 -3.6692428529063996e-10 0.7816233795126767 3.9184182114798674 -8.265628347343928e-10 -2.372370856045438 -2.2134872339864105 2.3317948395652928" Properties=species:S:1:pos:R:3:spacegroup_kinds:I:1:forces:R:3 spacegroup="P 1" unit_cell=conventional occupancy="_JSON {\"0\": {\"In\": 1}}" n_minim_iter=1 energy=-1970.9230477225035 stress="0.03871443908649785 -0.004533393307366697 1.2928236755459304e-12 -0.004533393307366697 0.039343457761737394 1.038071538200474e-12 1.2928236755459304e-12 1.038071538200474e-12 0.043573238357578335" free_energy=-1970.9230477225035 pbc="T T T"
In       0.00000000       0.00000000       0.00000000        0       0.00000000       0.00000000      -0.00000000
