1
Lattice="4.047465193630123 0.5193798362777303 -3.74734414477868e-10 0.7982586330690582 4.001813721640468 -8.441556923420871e-10 -2.4228619131894695 -2.2605967784886944 2.3814223192625055" Properties=species:S:1:pos:R:3:spacegroup_kinds:I:1:forces:R:3 spacegroup="P 1" unit_cell=conventional occupancy="_JSON {\"0\": {\"In\": 1}}" n_minim_iter=1 energy=-1970.864481751677 stress="0.037863721478219585 0.0054246393873825 -1.438930496040172e-12 0.0054246393873825 0.03711104037385599 -1.3722835849649052e-12 -1.438930496040172e-12 -1.3722835849649052e-12 0.032049702681210795" free_energy=-1970.864481751677 pbc="T T T"
In       0.00000000       0.00000000       0.00000000        0       0.00000000       0.00000000      -0.00000000
