1
Lattice="3.844744870255861 0.49336630847025614 -3.5596455332832744e-10 0.7582772520094417 3.8013798864066897 -8.018745934646602e-10 -2.301511060980551 -2.1473730969916294 2.2621470001291" Properties=species:S:1:pos:R:3:spacegroup_kinds:I:1:forces:R:3 spacegroup="P 1" unit_cell=conventional occupancy="_JSON {\"0\": {\"In\": 1}}" n_minim_iter=1 energy=-1971.074018365231 stress="0.01857118189029626 -0.005605289615623054 1.5612802403819832e-12 -0.005605289615623054 0.019348928626416236 1.3562300983905753e-12 1.5612802403819832e-12 1.3562300983905753e-12 0.024578817948819318" free_energy=-1971.074018365231 pbc="T T T"
In       0.00000000       0.00000000       0.00000000        0      -0.00000000      -0.00000000       0.00000000
