80
Lattice="11.758812762970885 0.0 0.0 6.452317444010323 9.830426094342354 0.0 6.452317444010323 3.4829815090918417 9.192720870539437" Properties=species:S:1:pos:R:3:initial_magmoms:R:1:forces:R:3 uid=supercell-001.xyz_R3c type=Bulk energy=-90301.49388349822 stress="0.002240304730747863 -0.0008006334939394002 -0.0005628306557165738 -0.0008006334939394002 0.003302613162500026 -0.0002561659917535466 -0.0005628306557165738 -0.0002561659917535466 0.0035505157351647483" virial="-2.108274738542569e-06 7.534490049217705e-07 5.296608257076208e-07 7.534490049217705e-07 -3.1079771453023037e-06 2.4106911969400687e-07 5.296608257076208e-07 2.4106911969400687e-07 -3.3412698417803747e-06" pbc="T T T"
In      10.58152218       5.70622635       3.94006911      10.00000000      -0.13179913       0.01493014       0.01007461
In      16.45034502       5.70622635       3.94006911      10.00000000       0.01018388       0.00169461       0.00118014
In      13.79709736      10.62143940       3.94006911      10.00000000       0.00480951       0.00490772       0.00169153
In      19.67650374      10.62143940       3.94006911      10.00000000       0.00204017      -0.00334012      -0.00001208
In      13.79709736       7.44771711       8.53642955      10.00000000       0.00350853       0.00401581       0.00469483
In      19.67650374       7.44771711       8.53642955      10.00000000       0.00162339      -0.00119633      -0.00317171
In      17.02325608      12.36293015       8.53642955      10.00000000      -0.00057490       0.00039621      -0.00017612
In      22.90266246      12.36293015       8.53642955      10.00000000       0.00450097       0.00160360       0.00096699
In       7.92664710       4.27882935       2.95447155      10.00000000       0.01990445       0.01888373       0.01303498
In      13.80605348       4.27882935       2.95447155      10.00000000       0.01372841      -0.00747985      -0.00995043
In      11.15280582       9.19404240       2.95447155      10.00000000      -0.00613465       0.00567828       0.00100659
In      17.03221221       9.19404240       2.95447155      10.00000000      -0.00092534      -0.00298557      -0.00095568
In      11.15280582       6.02032010       7.55083198      10.00000000      -0.00654963       0.00053068       0.00075205
In      17.03221221       6.02032010       7.55083198      10.00000000      -0.00052245      -0.00165708      -0.00144779
In      14.37896455      10.93553315       7.55083198      10.00000000      -0.00272177      -0.00018769      -0.00093537
In      20.25837093      10.93553315       7.55083198      10.00000000      -0.00103693      -0.00253485      -0.00066412
In       4.40507673       2.37787445       1.64188889      10.00000000       0.00391656       0.00193013       0.00077339
In      10.28448311       2.37787445       1.64188889      10.00000000       0.00111354       0.00446266       0.00136011
In       7.63123545       7.29308750       1.64188889      10.00000000       0.00855355      -0.00410065       0.01346178
In      13.51064183       7.29308750       1.64188889      10.00000000       0.00846793       0.00501777      -0.00471720
In       7.63123545       4.11936520       6.23824933      10.00000000       0.00978999       0.00417419      -0.00576004
In      13.51064183       4.11936520       6.23824933      10.00000000       0.00975322      -0.00174964       0.01154657
In      10.85739417       9.03457825       6.23824933      10.00000000       0.00081093       0.00074562       0.00196072
In      16.73680055       9.03457825       6.23824933      10.00000000       0.00414796       0.00191470       0.00065640
In       1.76078518       0.95047746       0.65629133      10.00000000      -0.00491749      -0.00325322      -0.00247906
In       7.64019156       0.95047746       0.65629133      10.00000000      -0.00132669       0.00008099      -0.00013473
In       4.98694390       5.86569050       0.65629133      10.00000000       0.00030005      -0.00087289      -0.00058698
In      10.86635028       5.86569050       0.65629133      10.00000000      -0.01162602      -0.00612025      -0.00609660
In       4.98694390       2.69196821       5.25265176      10.00000000       0.00110352      -0.00085232      -0.00041832
In      10.86635028       2.69196821       5.25265176      10.00000000      -0.02003892      -0.00678129       0.00195584
In       8.21310263       7.60718126       5.25265176      10.00000000       0.00532835      -0.01938792      -0.01756706
In      14.09250901       7.60718126       5.25265176      10.00000000       0.00282281       0.00365817       0.00249654
O        6.02263415       2.30932705       0.21474656       4.00000000      -0.00054199       0.00862631      -0.01438224
O       11.90204053       2.30932705       0.21474656       4.00000000       0.00095054       0.00951025      -0.01309797
O        9.24879287       7.22454010       0.21474656       4.00000000       0.00334063       0.00996225      -0.01527904
O       15.12819925       7.22454010       0.21474656       4.00000000      -0.00169899       0.00920661      -0.01298099
O        9.24879287       4.05081780       4.81110699       4.00000000       0.01507206       0.01403025      -0.01616118
O       15.12819925       4.05081780       4.81110699       4.00000000      -0.00628275       0.01023505      -0.01402305
O       12.47495159       8.96603085       4.81110699       4.00000000      -0.00015427       0.00664810      -0.01518417
O       18.35435798       8.96603085       4.81110699       4.00000000      -0.00196947       0.01225774      -0.01275704
O        7.09636398       5.12094207       1.14909010       4.00000000      -0.01024636       0.01236958      -0.00440019
O       12.97577036       5.12094207       1.14909010       4.00000000      -0.00826224       0.01586962       0.00539957
O       10.32252270      10.03615511       1.14909010       4.00000000      -0.00635808       0.01345793       0.00110018
O       16.20192908      10.03615511       1.14909010       4.00000000      -0.00840365       0.01427271      -0.00025428
O       10.32252270       6.86243282       5.74545054       4.00000000       0.00228725       0.00962878      -0.00608297
O       16.20192908       6.86243282       5.74545054       4.00000000      -0.00980542       0.01421049      -0.00088035
O       13.54868142      11.77764587       5.74545054       4.00000000      -0.00929274       0.01201117       0.00006145
O       19.42808780      11.77764587       5.74545054       4.00000000      -0.00906263       0.01946222      -0.00169590
O        8.17506304       2.18091283       2.51292678       4.00000000       0.00694378      -0.00822625      -0.01502013
O       14.05446942       2.18091283       2.51292678       4.00000000       0.00685868      -0.00171570      -0.01173863
O       11.40122176       7.09612588       2.51292678       4.00000000       0.02258586       0.00654783      -0.02488417
O       17.28062814       7.09612588       2.51292678       4.00000000       0.00280636      -0.00513758      -0.01364896
O       11.40122176       3.92240358       7.10928721       4.00000000       0.01161830      -0.00422844      -0.01647357
O       17.28062814       3.92240358       7.10928721       4.00000000       0.00640642      -0.00565360      -0.01311057
O       14.62738048       8.83761663       7.10928721       4.00000000       0.00730065      -0.00629946      -0.01441669
O       20.50678687       8.83761663       7.10928721       4.00000000       0.00774802      -0.00407674      -0.01238115
O        4.15666079       4.47579097       2.08343366       4.00000000      -0.01007693       0.00482313       0.01437710
O       10.03606717       4.47579097       2.08343366       4.00000000       0.00349516       0.00807198       0.01641727
O        7.38281951       9.39100402       2.08343366       4.00000000      -0.00816454       0.00889345       0.01288200
O       13.26222589       9.39100402       2.08343366       4.00000000      -0.00964704       0.00226437       0.01381839
O        7.38281951       6.21728172       6.67979410       4.00000000      -0.00942669       0.00618479       0.01718525
O       13.26222589       6.21728172       6.67979410       4.00000000      -0.00881040       0.00205637       0.00891170
O       10.60897823      11.13249477       6.67979410       4.00000000      -0.00863068       0.00520031       0.01342245
O       16.48838462      11.13249477       6.67979410       4.00000000      -0.00674606       0.00423589       0.01451311
O        6.30908968       4.34737676       4.38161388       4.00000000      -0.00583383      -0.01103286       0.01499030
O       12.18849606       4.34737676       4.38161388       4.00000000       0.03635797      -0.03134869       0.01825201
O        9.53524840       9.26258981       4.38161388       4.00000000       0.00268063      -0.00654911       0.01311905
O       15.41465478       9.26258981       4.38161388       4.00000000      -0.00127604      -0.01009055       0.01332423
O        9.53524840       6.08886751       8.97797431       4.00000000       0.00039466      -0.00925263       0.01461672
O       15.41465478       6.08886751       8.97797431       4.00000000      -0.00095748      -0.00978485       0.01208341
O       12.76140712      11.00408056       8.97797431       4.00000000      -0.00075128      -0.00900966       0.01287609
O       18.64081350      11.00408056       8.97797431       4.00000000       0.00009770      -0.00979590       0.01585728
O        5.23535984       1.53576173       3.44727032       4.00000000       0.00717646      -0.01509341      -0.00055716
O       11.11476623       1.53576173       3.44727032       4.00000000       0.01007770      -0.01241149       0.00143648
O        8.46151857       6.45097478       3.44727032       4.00000000       0.02648751      -0.01829057       0.00075205
O       14.34092495       6.45097478       3.44727032       4.00000000       0.00167302      -0.01630697       0.00007456
O        8.46151857       3.27725249       8.04363076       4.00000000       0.00861731      -0.01477433       0.00203194
O       14.34092495       3.27725249       8.04363076       4.00000000       0.00684582      -0.01466994      -0.00086312
O       11.68767729       8.19246553       8.04363076       4.00000000       0.00796219      -0.01454782      -0.00011261
O       17.56708367       8.19246553       8.04363076       4.00000000       0.00838128      -0.01386596       0.00034401
