40
Lattice="5.5078804806318 2.377532162685511e-42 0.0 -2.4390546248482832e-42 5.650405731724087 0.0 0.0 0.0 15.726236105763807" Properties=species:S:1:pos:R:3:spacegroup_kinds:I:1:forces:R:3 spacegroup="P 1" unit_cell=conventional occupancy="_JSON {\"0\": {\"In\": 1}, \"1\": {\"In\": 1}, \"2\": {\"In\": 1}, \"3\": {\"In\": 1}, \"4\": {\"In\": 1}, \"5\": {\"In\": 1}, \"6\": {\"In\": 1}, \"7\": {\"In\": 1}, \"8\": {\"In\": 1}, \"9\": {\"In\": 1}, \"10\": {\"In\": 1}, \"11\": {\"In\": 1}, \"12\": {\"In\": 1}, \"13\": {\"In\": 1}, \"14\": {\"In\": 1}, \"15\": {\"In\": 1}, \"16\": {\"O\": 1}, \"17\": {\"O\": 1}, \"18\": {\"O\": 1}, \"19\": {\"O\": 1}, \"20\": {\"O\": 1}, \"21\": {\"O\": 1}, \"22\": {\"O\": 1}, \"23\": {\"O\": 1}, \"24\": {\"O\": 1}, \"25\": {\"O\": 1}, \"26\": {\"O\": 1}, \"27\": {\"O\": 1}, \"28\": {\"O\": 1}, \"29\": {\"O\": 1}, \"30\": {\"O\": 1}, \"31\": {\"O\": 1}, \"32\": {\"O\": 1}, \"33\": {\"O\": 1}, \"34\": {\"O\": 1}, \"35\": {\"O\": 1}, \"36\": {\"O\": 1}, \"37\": {\"O\": 1}, \"38\": {\"O\": 1}, \"39\": {\"O\": 1}}" n_minim_iter=1 energy=-45150.192153638076 stress="-0.006943128940008959 -3.463097839582754e-13 -6.748249227572369e-14 -3.463097839582754e-13 -0.0014768073983411141 6.4480593674583e-14 -6.748249227572369e-14 6.4480593674583e-14 -0.0006832632068491188" free_energy=-45150.192153638076 pbc="T T T"
In       2.76749367       4.48633750       8.97656689        0       0.04742168      -0.06816171      -0.01148770
In       0.01355343       3.98927110       6.74966922        1       0.04742168       0.06816171       0.01148770
In       2.74038681       1.66113464      14.61278727        2      -0.04742168      -0.06816171       0.01148770
In       5.49432705       1.16406823       1.11344883        3      -0.04742168       0.06816171      -0.01148770
In       2.74038681       1.16406823       6.74966922        4      -0.04742168       0.06816171       0.01148770
In       5.49432705       1.66113464       8.97656689        5      -0.04742168      -0.06816171      -0.01148770
In       2.76749367       3.98927110       1.11344883        6       0.04742168       0.06816171      -0.01148770
In       0.01355343       4.48633750      14.61278727        7       0.04742168      -0.06816171       0.01148770
In       2.75541717       4.17583432      12.84314257        8       0.00005136       0.03129747      -0.11394771
In       5.50935741       4.29977428       2.88309354        9       0.00005136      -0.03129747       0.11394771
In       2.75246331       1.35063145      10.74621159       10      -0.00005136       0.03129747       0.11394771
In      -0.00147693       1.47457141       4.98002452       11      -0.00005136      -0.03129747      -0.11394771
In       2.75246331       1.47457141       2.88309354       12      -0.00005136      -0.03129747       0.11394771
In      -0.00147693       1.35063145      12.84314257       13      -0.00005136       0.03129747      -0.11394771
In       2.75541717       4.29977428       4.98002452       14       0.00005136      -0.03129747      -0.11394771
In       5.50935741       4.17583432      10.74621159       15       0.00005136       0.03129747       0.11394771
O        4.73665754       4.91375065      12.55963580       16      -0.01683061      -0.07702934      -0.07084104
O        1.98271730       3.56185795       3.16660030       17      -0.01683061       0.07702934       0.07084104
O        0.77122294       2.08854778      11.02971836       18       0.01683061      -0.07702934       0.07084104
O        3.52516318       0.73665509       4.69651775       19       0.01683061       0.07702934      -0.07084104
O        0.77122294       0.73665509       3.16660030       20       0.01683061       0.07702934       0.07084104
O        3.52516318       2.08854778      12.55963580       21       0.01683061      -0.07702934      -0.07084104
O        4.73665754       3.56185795       4.69651775       22      -0.01683061       0.07702934      -0.07084104
O        1.98271730       4.91375065      11.02971836       23      -0.01683061      -0.07702934       0.07084104
O        3.88505673       2.95639901       9.86879250       24      -0.08284064      -0.00704834       0.12342225
O        1.13111649       5.51920959       5.85744361       25      -0.08284064       0.00704834      -0.12342225
O        1.62282375       0.13119614      13.72056166       26       0.08284064      -0.00704834      -0.12342225
O        4.37676399       2.69400672       2.00567445       27       0.08284064       0.00704834       0.12342225
O        1.62282375       2.69400672       5.85744361       28       0.08284064       0.00704834      -0.12342225
O        4.37676399       0.13119614       9.86879250       29       0.08284064      -0.00704834       0.12342225
O        3.88505673       5.51920959       2.00567445       30      -0.08284064       0.00704834       0.12342225
O        1.13111649       2.95639901      13.72056166       31      -0.08284064      -0.00704834      -0.12342225
O        3.57139403       3.70096346      14.89901007       32       0.02691420       0.03867576       0.00224926
O        0.81745379       4.77464514       0.82722604       33       0.02691420      -0.03867576      -0.00224926
O        1.93648645       0.87576059       8.69034409       34      -0.02691420       0.03867576      -0.00224926
O        4.69042669       1.94944228       7.03589201       35      -0.02691420      -0.03867576       0.00224926
O        1.93648645       1.94944228       0.82722604       36      -0.02691420      -0.03867576      -0.00224926
O        4.69042669       0.87576059      14.89901007       37      -0.02691420       0.03867576       0.00224926
O        3.57139403       4.77464514       7.03589201       38       0.02691420      -0.03867576       0.00224926
O        0.81745379       3.70096346       8.69034409       39       0.02691420       0.03867576      -0.00224926
40
Lattice="5.51973450358861 2.4218424609211328e-42 0.0 -2.4594769163725822e-42 5.64556705943193 0.0 0.0 0.0 15.70591250552929" Properties=species:S:1:pos:R:3:spacegroup_kinds:I:1:forces:R:3 spacegroup="P 1" unit_cell=conventional occupancy="_JSON {\"0\": {\"In\": 1}, \"1\": {\"In\": 1}, \"2\": {\"In\": 1}, \"3\": {\"In\": 1}, \"4\": {\"In\": 1}, \"5\": {\"In\": 1}, \"6\": {\"In\": 1}, \"7\": {\"In\": 1}, \"8\": {\"In\": 1}, \"9\": {\"In\": 1}, \"10\": {\"In\": 1}, \"11\": {\"In\": 1}, \"12\": {\"In\": 1}, \"13\": {\"In\": 1}, \"14\": {\"In\": 1}, \"15\": {\"In\": 1}, \"16\": {\"O\": 1}, \"17\": {\"O\": 1}, \"18\": {\"O\": 1}, \"19\": {\"O\": 1}, \"20\": {\"O\": 1}, \"21\": {\"O\": 1}, \"22\": {\"O\": 1}, \"23\": {\"O\": 1}, \"24\": {\"O\": 1}, \"25\": {\"O\": 1}, \"26\": {\"O\": 1}, \"27\": {\"O\": 1}, \"28\": {\"O\": 1}, \"29\": {\"O\": 1}, \"30\": {\"O\": 1}, \"31\": {\"O\": 1}, \"32\": {\"O\": 1}, \"33\": {\"O\": 1}, \"34\": {\"O\": 1}, \"35\": {\"O\": 1}, \"36\": {\"O\": 1}, \"37\": {\"O\": 1}, \"38\": {\"O\": 1}, \"39\": {\"O\": 1}}" n_minim_iter=2 energy=-45150.195697574294 stress="-0.0025613207898519297 -1.7246847151840912e-13 -2.2248535131105374e-13 -1.7246847151840912e-13 -0.0025549065300266493 -7.607936412827062e-14 -2.2248535131105374e-13 -7.607936412827062e-14 -0.0029044398690846085" free_energy=-45150.195697574294 pbc="T T T"
In       2.77350325       4.48241913       8.96495324        0       0.02942972      -0.07895553      -0.01924791
In       0.01363600       3.98593146       6.74095926        1       0.02942972       0.07895553       0.01924791
In       2.74623125       1.65963560      14.59391552        2      -0.02942972      -0.07895553       0.01924791
In       5.50609850       1.16314793       1.11199699        3      -0.02942972       0.07895553      -0.01924791
In       2.74623125       1.16314793       6.74095926        4      -0.02942972       0.07895553       0.01924791
In       5.50609850       1.65963560       8.96495324        5      -0.02942972      -0.07895553      -0.01924791
In       2.77350325       3.98593146       1.11199699        6       0.02942972       0.07895553      -0.01924791
In       0.01363600       4.48241913      14.59391552        7       0.02942972      -0.07895553       0.01924791
In       2.76134742       4.17229352      12.82641701        8       0.01706182       0.03141169      -0.12249695
In       5.52121467       4.29605707       2.87949550        9       0.01706182      -0.03141169       0.12249695
In       2.75838709       1.34950999      10.73245175       10      -0.01706182       0.03141169       0.12249695
In      -0.00148016       1.47327354       4.97346076       11      -0.01706182      -0.03141169      -0.12249695
In       2.75838709       1.47327354       2.87949550       12      -0.01706182      -0.03141169       0.12249695
In      -0.00148016       1.34950999      12.82641701       13      -0.01706182       0.03141169      -0.12249695
In       2.76134742       4.29605707       4.97346076       14       0.01706182      -0.03141169      -0.12249695
In       5.52121467       4.17229352      10.73245175       15       0.01706182       0.03141169       0.12249695
O        4.74683279       4.90945631      12.54332501       16      -0.02289928      -0.07806157      -0.06029099
O        1.98696553       3.55889428       3.16258750       17      -0.02289928       0.07806157       0.06029099
O        0.77290172       2.08667278      11.01554375       18       0.02289928      -0.07806157       0.06029099
O        3.53276897       0.73611075       4.69036876       19       0.02289928       0.07806157      -0.06029099
O        0.77290172       0.73611075       3.16258750       20       0.02289928       0.07806157       0.06029099
O        3.53276897       2.08667278      12.54332501       21       0.02289928      -0.07806157      -0.06029099
O        4.74683279       3.55889428       4.69036876       22      -0.02289928       0.07806157      -0.06029099
O        1.98696553       4.90945631      11.01554375       23      -0.02289928      -0.07806157       0.06029099
O        3.89332483       2.95385941       9.85617721       24      -0.07980731      -0.00684711       0.11813856
O        1.13345758       5.51449118       5.84973529       25      -0.07980731       0.00684711      -0.11813856
O        1.62640967       0.13107588      13.70269154       26       0.07980731      -0.00684711      -0.11813856
O        4.38627693       2.69170765       2.00322096       27       0.07980731       0.00684711       0.11813856
O        1.62640967       2.69170765       5.84973529       28       0.07980731       0.00684711      -0.11813856
O        4.38627693       0.13107588       9.85617721       29       0.07980731      -0.00684711       0.11813856
O        3.89332483       5.51449118       2.00322096       30      -0.07980731       0.00684711       0.11813856
O        1.13345758       2.95385941      13.70269154       31      -0.07980731      -0.00684711      -0.11813856
O        3.57911068       3.69783760      14.87975805       32       0.04135518       0.04061778      -0.01306295
O        0.81924342       4.77051299       0.82615446       33       0.04135518      -0.04061778       0.01306295
O        1.94062383       0.87505407       8.67911071       34      -0.04135518       0.04061778       0.01306295
O        4.70049108       1.94772946       7.02680179       35      -0.04135518      -0.04061778      -0.01306295
O        1.94062383       1.94772946       0.82615446       36      -0.04135518      -0.04061778       0.01306295
O        4.70049108       0.87505407      14.87975805       37      -0.04135518       0.04061778      -0.01306295
O        3.57911068       4.77051299       7.02680179       38       0.04135518      -0.04061778      -0.01306295
O        0.81924342       3.69783760       8.67911071       39       0.04135518       0.04061778       0.01306295
40
Lattice="5.525202146662328 2.3298043177370235e-42 0.0 -2.4091339209777896e-42 5.625514350206762 0.0 0.0 0.0 15.746300105967562" Properties=species:S:1:pos:R:3:spacegroup_kinds:I:1:forces:R:3 spacegroup="P 1" unit_cell=conventional occupancy="_JSON {\"0\": {\"In\": 1}, \"1\": {\"In\": 1}, \"2\": {\"In\": 1}, \"3\": {\"In\": 1}, \"4\": {\"In\": 1}, \"5\": {\"In\": 1}, \"6\": {\"In\": 1}, \"7\": {\"In\": 1}, \"8\": {\"In\": 1}, \"9\": {\"In\": 1}, \"10\": {\"In\": 1}, \"11\": {\"In\": 1}, \"12\": {\"In\": 1}, \"13\": {\"In\": 1}, \"14\": {\"In\": 1}, \"15\": {\"In\": 1}, \"16\": {\"O\": 1}, \"17\": {\"O\": 1}, \"18\": {\"O\": 1}, \"19\": {\"O\": 1}, \"20\": {\"O\": 1}, \"21\": {\"O\": 1}, \"22\": {\"O\": 1}, \"23\": {\"O\": 1}, \"24\": {\"O\": 1}, \"25\": {\"O\": 1}, \"26\": {\"O\": 1}, \"27\": {\"O\": 1}, \"28\": {\"O\": 1}, \"29\": {\"O\": 1}, \"30\": {\"O\": 1}, \"31\": {\"O\": 1}, \"32\": {\"O\": 1}, \"33\": {\"O\": 1}, \"34\": {\"O\": 1}, \"35\": {\"O\": 1}, \"36\": {\"O\": 1}, \"37\": {\"O\": 1}, \"38\": {\"O\": 1}, \"39\": {\"O\": 1}}" n_minim_iter=3 energy=-45150.20484734536 stress="6.204548218177437e-05 -1.0201732417046727e-12 -4.06996237306967e-13 -1.0201732417046727e-12 -0.004983864674716818 -4.976685579006194e-13 -4.06996237306967e-13 -4.976685579006194e-13 0.0018269602413816131" free_energy=-45150.20484734536 pbc="T T T"
In       2.77749986       4.46327807       8.98722595        0       0.04503644      -0.01914024       0.00060636
In       0.01489878       3.97499346       6.75907415        1       0.04503644       0.01914024      -0.00060636
In       2.74770229       1.65052089      14.63222421        2      -0.04503644      -0.01914024      -0.00060636
In       5.51030336       1.16223628       1.11407590        3      -0.04503644       0.01914024       0.00060636
In       2.74770229       1.16223628       6.75907415        4      -0.04503644       0.01914024      -0.00060636
In       5.51030336       1.65052089       8.98722595        5      -0.04503644      -0.01914024       0.00060636
In       2.77749986       3.97499346       1.11407590        6       0.04503644       0.01914024       0.00060636
In       0.01489878       4.46327807      14.63222421        7       0.04503644      -0.01914024      -0.00060636
In       2.76476145       4.15876163      12.85436466        8       0.00938541      -0.00147599      -0.08632943
In       5.52736252       4.27950989       2.89193545        9       0.00938541       0.00147599       0.08632943
In       2.76044070       1.34600446      10.76508550       10      -0.00938541      -0.00147599       0.08632943
In      -0.00216037       1.46675272       4.98121460       11      -0.00938541       0.00147599      -0.08632943
In       2.76044070       1.46675272       2.89193545       12      -0.00938541       0.00147599       0.08632943
In      -0.00216037       1.34600446      12.85436466       13      -0.00938541      -0.00147599      -0.08632943
In       2.76476145       4.27950989       4.98121460       14       0.00938541       0.00147599      -0.08632943
In       5.52736252       4.15876163      10.76508550       15       0.00938541      -0.00147599       0.08632943
O        4.75059605       4.88881902      12.57307729       16       0.01013535      -0.05382696       0.00375264
O        1.98799498       3.54945251       3.17322282       17       0.01013535       0.05382696      -0.00375264
O        0.77460609       2.07606184      11.04637287       18      -0.01013535      -0.05382696      -0.00375264
O        3.53720717       0.73669533       4.69992724       19      -0.01013535       0.05382696       0.00375264
O        0.77460609       0.73669533       3.17322282       20      -0.01013535       0.05382696      -0.00375264
O        3.53720717       2.07606184      12.57307729       21      -0.01013535      -0.05382696       0.00375264
O        4.75059605       3.54945251       4.69992724       22       0.01013535       0.05382696       0.00375264
O        1.98799498       4.88881902      11.04637287       23       0.01013535      -0.05382696      -0.00375264
O        3.89386955       2.94308639       9.88640088       24      -0.01204838      -0.02011975       0.10640369
O        1.13126847       5.49518514       5.85989923       25      -0.01204838       0.02011975      -0.10640369
O        1.63133260       0.13032921      13.73304928       26       0.01204838      -0.02011975      -0.10640369
O        4.39393367       2.68242796       2.01325083       27       0.01204838       0.02011975       0.10640369
O        1.63133260       2.68242796       5.85989923       28       0.01204838       0.02011975      -0.10640369
O        4.39393367       0.13032921       9.88640088       29       0.01204838      -0.02011975       0.10640369
O        3.89386955       5.49518514       2.01325083       30      -0.01204838       0.02011975       0.10640369
O        1.13126847       2.94308639      13.73304928       31      -0.01204838      -0.02011975      -0.10640369
O        3.58434561       3.68636543      14.91750808       32      -0.01665710       0.01982681      -0.00947800
O        0.82174454       4.75190609       0.82879203       33      -0.01665710      -0.01982681       0.00947800
O        1.94085653       0.87360826       8.70194208       34       0.01665710       0.01982681       0.00947800
O        4.70345761       1.93914892       7.04435802       35       0.01665710      -0.01982681      -0.00947800
O        1.94085653       1.93914892       0.82879203       36       0.01665710      -0.01982681       0.00947800
O        4.70345761       0.87360826      14.91750808       37       0.01665710       0.01982681      -0.00947800
O        3.58434561       4.75190609       7.04435802       38      -0.01665710      -0.01982681      -0.00947800
O        0.82174454       3.68636543       8.70194208       39      -0.01665710       0.01982681       0.00947800
40
Lattice="5.524512749117862 2.218430378728946e-42 0.0 -2.2367096726407028e-42 5.638937747592425 0.0 0.0 0.0 15.710776585820302" Properties=species:S:1:pos:R:3:spacegroup_kinds:I:1:forces:R:3 spacegroup="P 1" unit_cell=conventional occupancy="_JSON {\"0\": {\"In\": 1}, \"1\": {\"In\": 1}, \"2\": {\"In\": 1}, \"3\": {\"In\": 1}, \"4\": {\"In\": 1}, \"5\": {\"In\": 1}, \"6\": {\"In\": 1}, \"7\": {\"In\": 1}, \"8\": {\"In\": 1}, \"9\": {\"In\": 1}, \"10\": {\"In\": 1}, \"11\": {\"In\": 1}, \"12\": {\"In\": 1}, \"13\": {\"In\": 1}, \"14\": {\"In\": 1}, \"15\": {\"In\": 1}, \"16\": {\"O\": 1}, \"17\": {\"O\": 1}, \"18\": {\"O\": 1}, \"19\": {\"O\": 1}, \"20\": {\"O\": 1}, \"21\": {\"O\": 1}, \"22\": {\"O\": 1}, \"23\": {\"O\": 1}, \"24\": {\"O\": 1}, \"25\": {\"O\": 1}, \"26\": {\"O\": 1}, \"27\": {\"O\": 1}, \"28\": {\"O\": 1}, \"29\": {\"O\": 1}, \"30\": {\"O\": 1}, \"31\": {\"O\": 1}, \"32\": {\"O\": 1}, \"33\": {\"O\": 1}, \"34\": {\"O\": 1}, \"35\": {\"O\": 1}, \"36\": {\"O\": 1}, \"37\": {\"O\": 1}, \"38\": {\"O\": 1}, \"39\": {\"O\": 1}}" n_minim_iter=4 energy=-45150.21397179083 stress="0.0015579679595053057 -1.5089272938300303e-12 9.628702900040681e-14 -1.5089272938300303e-12 0.00036303829493838815 -6.041645600785179e-13 9.628702900040681e-14 -6.041645600785179e-13 0.0004561245759106351" free_energy=-45150.21397179083 pbc="T T T"
In       2.77842345       4.47095794       8.96625124        0       0.03130246       0.04743033       0.03559742
In       0.01616708       3.98744868       6.74452535        1       0.03130246      -0.04743033      -0.03559742
In       2.74608930       1.65148906      14.59991364        2      -0.03130245       0.04743033      -0.03559742
In       5.50834567       1.16797981       1.11086295        3      -0.03130246      -0.04743033       0.03559742
In       2.74608930       1.16797981       6.74452535        4      -0.03130245      -0.04743033      -0.03559742
In       5.50834567       1.65148906       8.96625124        5      -0.03130246       0.04743033       0.03559742
In       2.77842345       3.98744868       1.11086295        6       0.03130245      -0.04743033       0.03559742
In       0.01616708       4.47095794      14.59991364        7       0.03130245       0.04743033      -0.03559742
In       2.76505296       4.16984716      12.82056883        8       0.03031792      -0.07286050      -0.04177332
In       5.52730933       4.28855947       2.89020775        9       0.03031792       0.07286050       0.04177332
In       2.75945979       1.35037828      10.74559605       10      -0.03031792      -0.07286050       0.04177332
In      -0.00279658       1.46909059       4.96518054       11      -0.03031792       0.07286050      -0.04177332
In       2.75945979       1.46909059       2.89020775       12      -0.03031792       0.07286050       0.04177332
In      -0.00279658       1.35037828      12.82056883       13      -0.03031792      -0.07286050      -0.04177332
In       2.76505296       4.28855947       4.96518054       14       0.03031792       0.07286050      -0.04177332
In       5.52730933       4.16984716      10.74559605       15       0.03031792      -0.07286050       0.04177332
O        4.74918760       4.89742654      12.54246426       16       0.01372796      -0.02154414       0.08529209
O        1.98693123       3.56098008       3.16831233       17       0.01372796       0.02154414      -0.08529209
O        0.77532515       2.07795767      11.02370062       18      -0.01372796      -0.02154414      -0.08529209
O        3.53758152       0.74151121       4.68707596       19      -0.01372796       0.02154414       0.08529209
O        0.77532515       0.74151121       3.16831233       20      -0.01372796       0.02154414      -0.08529209
O        3.53758152       2.07795767      12.54246426       21      -0.01372796      -0.02154414       0.08529209
O        4.74918760       3.56098008       4.68707596       22       0.01372796       0.02154414       0.08529209
O        1.98693123       4.89742654      11.02370062       23       0.01372796      -0.02154414      -0.08529209
O        3.89035422       2.94979437       9.86881684       24       0.03455702       0.00509047       0.07885394
O        1.12809785       5.50861225       5.84195975       25       0.03455702      -0.00509047      -0.07885394
O        1.63415853       0.13032550      13.69734804       26      -0.03455702       0.00509047      -0.07885394
O        4.39641490       2.68914337       2.01342854       27      -0.03455702      -0.00509047       0.07885394
O        1.63415853       2.68914337       5.84195975       28      -0.03455702      -0.00509047      -0.07885394
O        4.39641490       0.13032550       9.86881684       29      -0.03455702       0.00509047       0.07885394
O        3.89035422       5.50861225       2.01342854       30       0.03455702      -0.00509047       0.07885394
O        1.12809785       2.94979437      13.69734804       31       0.03455702       0.00509047      -0.07885394
O        3.58537023       3.69672595      14.88336779       32      -0.04178988      -0.03571200      -0.04767162
O        0.82311385       4.76168067       0.82740880       33      -0.04178988       0.03571200       0.04767162
O        1.93914252       0.87725707       8.68279709       34       0.04178988      -0.03571200       0.04767162
O        4.70139890       1.94221180       7.02797950       35       0.04178988       0.03571200      -0.04767162
O        1.93914252       1.94221180       0.82740880       36       0.04178988       0.03571200       0.04767162
O        4.70139890       0.87725707      14.88336779       37       0.04178988      -0.03571200      -0.04767162
O        3.58537023       4.76168067       7.02797950       38      -0.04178988       0.03571200      -0.04767162
O        0.82311385       3.69672595       8.68279709       39      -0.04178988      -0.03571200       0.04767162
40
Lattice="5.514416460830295 3.8656193458117045e-42 0.0 -2.110121459648668e-42 5.64846741959719 0.0 0.0 0.0 15.7129867072982" Properties=species:S:1:pos:R:3:spacegroup_kinds:I:1:forces:R:3 spacegroup="P 1" unit_cell=conventional occupancy="_JSON {\"0\": {\"In\": 1}, \"1\": {\"In\": 1}, \"2\": {\"In\": 1}, \"3\": {\"In\": 1}, \"4\": {\"In\": 1}, \"5\": {\"In\": 1}, \"6\": {\"In\": 1}, \"7\": {\"In\": 1}, \"8\": {\"In\": 1}, \"9\": {\"In\": 1}, \"10\": {\"In\": 1}, \"11\": {\"In\": 1}, \"12\": {\"In\": 1}, \"13\": {\"In\": 1}, \"14\": {\"In\": 1}, \"15\": {\"In\": 1}, \"16\": {\"O\": 1}, \"17\": {\"O\": 1}, \"18\": {\"O\": 1}, \"19\": {\"O\": 1}, \"20\": {\"O\": 1}, \"21\": {\"O\": 1}, \"22\": {\"O\": 1}, \"23\": {\"O\": 1}, \"24\": {\"O\": 1}, \"25\": {\"O\": 1}, \"26\": {\"O\": 1}, \"27\": {\"O\": 1}, \"28\": {\"O\": 1}, \"29\": {\"O\": 1}, \"30\": {\"O\": 1}, \"31\": {\"O\": 1}, \"32\": {\"O\": 1}, \"33\": {\"O\": 1}, \"34\": {\"O\": 1}, \"35\": {\"O\": 1}, \"36\": {\"O\": 1}, \"37\": {\"O\": 1}, \"38\": {\"O\": 1}, \"39\": {\"O\": 1}}" n_minim_iter=5 energy=-45150.22822799754 stress="6.458478176733833e-06 -2.693603716881921e-13 4.0212091670316867e-13 -2.693603716881921e-13 0.00423106082088706 9.853506735133622e-13 4.0212091670316867e-13 9.853506735133622e-13 0.002832808849385116" free_energy=-45150.22822799754 pbc="T T T"
In       2.77713766       4.47880165       8.96941809        0       0.02281794       0.03482406       0.02546109
In       0.01992943       3.99389948       6.74356862        1       0.02281794      -0.03482406      -0.02546109
In       2.73727880       1.65456794      14.60006197        2      -0.02281794       0.03482406      -0.02546109
In       5.49448703       1.16966577       1.11292474        3      -0.02281794      -0.03482406       0.02546109
In       2.73727880       1.16966577       6.74356862        4      -0.02281794      -0.03482406      -0.02546109
In       5.49448703       1.65456794       8.96941809        5      -0.02281794       0.03482406       0.02546109
In       2.77713766       3.99389948       1.11292474        6       0.02281794      -0.03482406       0.02546109
In       0.01992943       4.47880165      14.60006197        7       0.02281794       0.03482406      -0.02546109
In       2.76272289       4.17288030      12.81427588        8      -0.00152435      -0.07316868      -0.02904599
In       5.51993112       4.29982083       2.89871083        9      -0.00152435       0.07316868       0.02904599
In       2.75169357       1.34864659      10.75520418       10       0.00152435      -0.07316868       0.02904599
In      -0.00551466       1.47558712       4.95778252       11       0.00152435       0.07316868      -0.02904599
In       2.75169357       1.47558712       2.89871083       12       0.00152435       0.07316868       0.02904599
In      -0.00551466       1.34864659      12.81427588       13       0.00152435      -0.07316868      -0.02904599
In       2.76272289       4.29982083       4.95778252       14      -0.00152435       0.07316868      -0.02904599
In       5.51993112       4.17288030      10.75520418       15      -0.00152435      -0.07316868       0.02904599
O        4.74062308       4.90085158      12.54777997       16       0.01648535      -0.01790265       0.05086916
O        1.98341485       3.57184955       3.16520674       17       0.01648535       0.01790265      -0.05086916
O        0.77379338       2.07661787      11.02170009       18      -0.01648535      -0.01790265      -0.05086916
O        3.53100161       0.74761584       4.69128662       19      -0.01648535       0.01790265       0.05086916
O        0.77379338       0.74761584       3.16520674       20      -0.01648535       0.01790265      -0.05086916
O        3.53100161       2.07661787      12.54777997       21      -0.01648535      -0.01790265       0.05086916
O        4.74062308       3.57184955       4.69128662       22       0.01648535       0.01790265       0.05086916
O        1.98341485       4.90085158      11.02170009       23       0.01648535      -0.01790265      -0.05086916
O        3.88235580       2.95487337       9.88102079       24       0.01001314       0.03166800       0.04492896
O        1.12514757       5.51782776       5.83196592       25       0.01001314      -0.03166800      -0.04492896
O        1.63206066       0.13063966      13.68845927       26      -0.01001314       0.03166800      -0.04492896
O        4.38926889       2.69359405       2.02452744       27      -0.01001314      -0.03166800       0.04492896
O        1.63206066       2.69359405       5.83196592       28      -0.01001314      -0.03166800      -0.04492896
O        4.38926889       0.13063966       9.88102079       29      -0.01001314       0.03166800       0.04492896
O        3.88235580       5.51782776       2.02452744       30       0.01001314      -0.03166800       0.04492896
O        1.12514757       2.95487337      13.68845927       31       0.01001314       0.03166800      -0.04492896
O        3.57730378       3.70203826      14.88162568       32      -0.03053517      -0.03025774       0.00623008
O        0.82009555       4.77066287       0.83136102       33      -0.03053517       0.03025774      -0.00623008
O        1.93711268       0.87780455       8.68785438       34       0.03053517      -0.03025774      -0.00623008
O        4.69432091       1.94642916       7.02513233       35       0.03053517       0.03025774       0.00623008
O        1.93711268       1.94642916       0.83136102       36       0.03053517       0.03025774      -0.00623008
O        4.69432091       0.87780455      14.88162568       37       0.03053517      -0.03025774       0.00623008
O        3.57730378       4.77066287       7.02513233       38      -0.03053517       0.03025774       0.00623008
O        0.82009555       3.70203826       8.68785438       39      -0.03053517      -0.03025774      -0.00623008
40