40
Lattice="5.53436969460159 4.720812126910645e-42 0.0 -4.237842292797947e-42 5.707666368613183 0.0 0.0 0.0 15.912706765160618" Properties=species:S:1:pos:R:3:spacegroup_kinds:I:1:forces:R:3 spacegroup="P 1" unit_cell=conventional occupancy="_JSON {\"0\": {\"In\": 1}, \"1\": {\"In\": 1}, \"2\": {\"In\": 1}, \"3\": {\"In\": 1}, \"4\": {\"In\": 1}, \"5\": {\"In\": 1}, \"6\": {\"In\": 1}, \"7\": {\"In\": 1}, \"8\": {\"In\": 1}, \"9\": {\"In\": 1}, \"10\": {\"In\": 1}, \"11\": {\"In\": 1}, \"12\": {\"In\": 1}, \"13\": {\"In\": 1}, \"14\": {\"In\": 1}, \"15\": {\"In\": 1}, \"16\": {\"O\": 1}, \"17\": {\"O\": 1}, \"18\": {\"O\": 1}, \"19\": {\"O\": 1}, \"20\": {\"O\": 1}, \"21\": {\"O\": 1}, \"22\": {\"O\": 1}, \"23\": {\"O\": 1}, \"24\": {\"O\": 1}, \"25\": {\"O\": 1}, \"26\": {\"O\": 1}, \"27\": {\"O\": 1}, \"28\": {\"O\": 1}, \"29\": {\"O\": 1}, \"30\": {\"O\": 1}, \"31\": {\"O\": 1}, \"32\": {\"O\": 1}, \"33\": {\"O\": 1}, \"34\": {\"O\": 1}, \"35\": {\"O\": 1}, \"36\": {\"O\": 1}, \"37\": {\"O\": 1}, \"38\": {\"O\": 1}, \"39\": {\"O\": 1}}" n_minim_iter=16 energy=-45150.27072967942 stress="-0.0015489121518296035 2.2727897488611843e-12 1.2718518477383856e-12 2.2727897488611843e-12 -0.0015615561483529115 3.528087689547605e-14 1.2718518477383856e-12 3.528087689547605e-14 -0.0015622780701678282" free_energy=-45150.27072967942 pbc="T T T"
In       2.77658251       4.54409855       9.07994032        0      -0.00377309      -0.00163596       0.00006202
In       0.00939766       4.01740100       6.83276644        1      -0.00377309       0.00163596      -0.00006202
In       2.75778719       1.69026537      14.78911983        2       0.00377309      -0.00163596      -0.00006202
In       5.52497203       1.16356782       1.12358694        3       0.00377309       0.00163596       0.00006202
In       2.75778719       1.16356782       6.83276644        4       0.00377309       0.00163596      -0.00006202
In       5.52497203       1.69026537       9.07994032        5       0.00377309      -0.00163596       0.00006202
In       2.77658251       4.01740100       1.12358694        6      -0.00377309       0.00163596       0.00006202
In       0.00939766       4.54409855      14.78911983        7      -0.00377309      -0.00163596      -0.00006202
In       2.76140956       4.24584397      13.00794504        8      -0.00026823      -0.00404899      -0.00251210
In       5.52859441       4.31565558       2.90476173        9      -0.00026823       0.00404899       0.00251210
In       2.77296013       1.39201079      10.86111511       10       0.00026823      -0.00404899       0.00251210
In       0.00577529       1.46182239       5.05159165       11       0.00026824       0.00404899      -0.00251210
In       2.77296013       1.46182239       2.90476173       12       0.00026823       0.00404899       0.00251210
In       0.00577529       1.39201079      13.00794504       13       0.00026824      -0.00404899      -0.00251210
In       2.76140956       4.31565558       5.05159165       14      -0.00026823       0.00404899      -0.00251210
In       5.52859441       4.24584397      10.86111511       15      -0.00026824      -0.00404899       0.00251210
O        4.75799057       5.00525563      12.70719221       16      -0.00404099       0.00346632       0.00588618
O        1.99080572       3.55624392       3.20551455       17      -0.00404099      -0.00346632      -0.00588618
O        0.77637913       2.15142245      11.16186793       18       0.00404099       0.00346632      -0.00588618
O        3.54356397       0.70241074       4.75083883       19       0.00404099      -0.00346632       0.00588618
O        0.77637913       0.70241074       3.20551455       20       0.00404099      -0.00346632      -0.00588618
O        3.54356397       2.15142245      12.70719221       21       0.00404099       0.00346632       0.00588618
O        4.75799057       3.55624392       4.75083883       22      -0.00404099      -0.00346632       0.00588618
O        1.99080572       5.00525563      11.16186793       23      -0.00404099       0.00346632      -0.00588618
O        3.90929735       2.99484589       9.95901914       24       0.00308746       0.00149670      -0.00376400
O        1.14211250       5.56665366       5.95368763       25       0.00308746      -0.00149670       0.00376400
O        1.62507235       0.14101270      13.91004101       26      -0.00308746       0.00149670       0.00376400
O        4.39225720       2.71282048       2.00266575       27      -0.00308746      -0.00149670      -0.00376400
O        1.62507235       2.71282048       5.95368763       28      -0.00308746      -0.00149670       0.00376400
O        4.39225720       0.14101270       9.95901914       29      -0.00308746       0.00149670      -0.00376400
O        3.90929735       5.56665366       2.00266575       30       0.00308746      -0.00149670      -0.00376400
O        1.14211250       2.99484589      13.91004101       31       0.00308746       0.00149670       0.00376400
O        3.58548548       3.75214348      15.07637752       32       0.00532886      -0.00140980      -0.00448593
O        0.81830063       4.80935607       0.83632924       33       0.00532886       0.00140980       0.00448593
O        1.94888422       0.89831029       8.79268263       34      -0.00532886      -0.00140980       0.00448593
O        4.71606907       1.95552289       7.12002414       35      -0.00532886       0.00140980      -0.00448593
O        1.94888422       1.95552289       0.83632924       36      -0.00532886       0.00140980       0.00448593
O        4.71606907       0.89831029      15.07637752       37      -0.00532886      -0.00140980      -0.00448593
O        3.58548548       4.80935607       7.12002414       38       0.00532886       0.00140980      -0.00448593
O        0.81830063       3.75214348       8.79268263       39       0.00532886      -0.00140980       0.00448593
