10
Lattice="5.18701992572464 -0.2515859458319194 -0.17371656031826485 2.635904042958499 4.474425222787799 -0.1737165603182375 2.6359040429585066 1.4228693986355456 4.245715627791728" Properties=species:S:1:pos:R:3:spacegroup_kinds:I:1:forces:R:3 spacegroup="P 1" unit_cell=conventional occupancy="_JSON {\"0\": {\"In\": 1}, \"1\": {\"In\": 1}, \"2\": {\"In\": 1}, \"3\": {\"In\": 1}, \"4\": {\"O\": 1}, \"5\": {\"O\": 1}, \"6\": {\"O\": 1}, \"7\": {\"O\": 1}, \"8\": {\"O\": 1}, \"9\": {\"O\": 1}}" n_minim_iter=7 energy=-11281.297566438718 stress="-0.30731706097443906 0.00010620149743209052 7.333064163639325e-05 0.00010620149743209052 -0.3074564742140861 3.958411393822914e-05 7.333064163639325e-05 3.958411393822914e-05 -0.30748646984624817" pbc="T T T"
In       9.12337712       4.92482803       3.40052455        0      -0.00368259      -0.00193835      -0.00176918
In       6.56486489       3.54373498       2.44689921        1       0.00399755       0.00165605       0.00113591
In       3.89396311       2.10197370       1.45138330        2      -0.00399755      -0.00165605      -0.00113591
In       1.33545088       0.72088064       0.49775795        3       0.00368259       0.00193835       0.00176918
O        5.20821696       1.93603639      -0.05423614        4       0.00002391       0.00083792      -0.00121125
O        5.98242950       4.53013889       0.80085406        5      -0.00073714       0.00133492      -0.00000257
O        7.06990846       1.64017900       2.06862167        6       0.00073636      -0.00045868      -0.00122847
O        3.38891954       4.00552967       1.82966083        7      -0.00073636       0.00045868       0.00122847
O        5.25061104       3.70967229       3.95251864        8      -0.00002391      -0.00083792       0.00121125
O        4.47639849       1.11556978       3.09742844        9       0.00073714      -0.00133492       0.00000257
