10
Lattice="5.62210035880779 -0.07112908613951241 -0.04911363447540751 3.0255050156671675 4.739134012831303 -0.04911363447539929 3.0255050156671714 1.6331772447146966 4.449105014271073" Properties=species:S:1:pos:R:3:spacegroup_kinds:I:1:forces:R:3 spacegroup="P 1" unit_cell=conventional occupancy="_JSON {\"0\": {\"In\": 1}, \"1\": {\"In\": 1}, \"2\": {\"In\": 1}, \"3\": {\"In\": 1}, \"4\": {\"O\": 1}, \"5\": {\"O\": 1}, \"6\": {\"O\": 1}, \"7\": {\"O\": 1}, \"8\": {\"O\": 1}, \"9\": {\"O\": 1}}" n_minim_iter=1 energy=-11284.397873119955 stress="-0.08759669970633233 0.0028219704671376827 0.0019485309533083667 0.0028219704671376827 -0.09130116767076245 0.0010518232153264306 0.0019485309533083667 0.0010518232153264306 -0.09209820716786202" pbc="T T T"
In      10.05396056       5.42715994       3.74737767        0       0.03563292       0.01893335       0.01331163
In       7.45570504       4.02461333       2.77893895        1      -0.03549151      -0.01932493      -0.01312137
In       4.21740536       2.27656885       1.57193880        2       0.03549151       0.01932493       0.01312137
In       1.61914984       0.87402225       0.60350008        3      -0.03563292      -0.01893335      -0.01331163
O        5.72932778       2.17108507       0.14880069        4      -0.00000129       0.02802066      -0.04060338
O        6.71426515       4.88708984       1.03860580        5      -0.02342995       0.04343519       0.00005451
O        7.76989543       2.00988186       2.37335320        6       0.02343792      -0.01542019      -0.04060775
O        3.90321497       4.29130032       1.97752455        7      -0.02343792       0.01542019       0.04060775
O        5.94378262       4.13009711       4.20207706        8       0.00000129      -0.02802066       0.04060338
O        4.95884525       1.41409234       3.31227195        9       0.02342995      -0.04343519      -0.00005451
10
Lattice="5.613615549795226 -0.08007625101775535 -0.05529152609852324 3.013369341159308 4.736950175022005 -0.05529152609851504 3.013369341159311 1.6266263689591223 4.449251708917595" Properties=species:S:1:pos:R:3:spacegroup_kinds:I:1:forces:R:3 spacegroup="P 1" unit_cell=conventional occupancy="_JSON {\"0\": {\"In\": 1}, \"1\": {\"In\": 1}, \"2\": {\"In\": 1}, \"3\": {\"In\": 1}, \"4\": {\"O\": 1}, \"5\": {\"O\": 1}, \"6\": {\"O\": 1}, \"7\": {\"O\": 1}, \"8\": {\"O\": 1}, \"9\": {\"O\": 1}}" n_minim_iter=2 energy=-11284.39897871857 stress="-0.088845416974942 0.0006240305855910529 0.0004308843504902543 0.0006240305855910529 -0.08966459681401757 0.0002325927449071119 0.0004308843504902543 0.0002325927449071119 -0.08984084848989654" pbc="T T T"
In      10.02591377       5.41202019       3.73692389        0       0.07357984       0.03955848       0.02741105
In       7.43461759       4.01323026       2.77107910        1      -0.07352533      -0.03976700      -0.02725961
In       4.20573665       2.27027005       1.56758956        2       0.07352533       0.03976700       0.02725961
In       1.61444047       0.87148011       0.60174477        3      -0.07357984      -0.03955848      -0.02741105
O        5.71689634       2.16321015       0.14118351        4       0.00001594       0.01757246      -0.02544287
O        6.69491386       4.87868223       1.02937564        5      -0.01469077       0.02724752       0.00003394
O        7.75224815       1.99715315       2.36580936        6       0.01470285      -0.00967609      -0.02546806
O        3.88810609       4.28634716       1.97285930        7      -0.01470285       0.00967609       0.02546806
O        5.92345790       4.12029015       4.19748516        8      -0.00001594      -0.01757246       0.02544287
O        4.94544038       1.40481808       3.30929302        9       0.01469077      -0.02724752      -0.00003394
10
Lattice="5.6018731179943275 -0.09249789263936352 -0.06386849508968254 2.9965414579823086 4.733949469612419 -0.06386849508967476 2.996541457982305 1.6175426240176702 4.449484534751728" Properties=species:S:1:pos:R:3:spacegroup_kinds:I:1:forces:R:3 spacegroup="P 1" unit_cell=conventional occupancy="_JSON {\"0\": {\"In\": 1}, \"1\": {\"In\": 1}, \"2\": {\"In\": 1}, \"3\": {\"In\": 1}, \"4\": {\"O\": 1}, \"5\": {\"O\": 1}, \"6\": {\"O\": 1}, \"7\": {\"O\": 1}, \"8\": {\"O\": 1}, \"9\": {\"O\": 1}}" n_minim_iter=3 energy=-11284.399249743974 stress="-0.08935193238747599 -0.001620298962040027 -0.00111879366489296 -0.001620298962040027 -0.08722492727967003 -0.0006039283840458196 -0.00111879366489296 -0.0006039283840458196 -0.08676728880155887" pbc="T T T"
In       9.99081435       5.39307341       3.72384141        0       0.08277513       0.04463307       0.03103913
In       7.40161971       3.99541790       2.75877992        1      -0.08286306      -0.04488581      -0.03058867
In       4.19333633       2.26357631       1.56296763        2       0.08286306       0.04488581       0.03058867
In       1.60414170       0.86592080       0.59790614        3      -0.08277513      -0.04463307      -0.03103913
O        5.69967557       2.15295687       0.12964650        4       0.00003214       0.00786141      -0.01137379
O        6.66753687       4.86807216       1.01656839        5      -0.00655811       0.01218806       0.00002777
O        7.72835573       1.97913036       2.35438876        6       0.00656943      -0.00434388      -0.01139384
O        3.86660031       4.27986385       1.96735879        7      -0.00656943       0.00434388       0.01139384
O        5.89528047       4.10603735       4.19210105        8      -0.00003214      -0.00786141       0.01137379
O        4.92741917       1.39092205       3.30517916        9       0.00655811      -0.01218806      -0.00002777
10
Lattice="5.60137397458543 -0.09302692855725038 -0.0642337869569855 2.995825290424743 4.733822476799435 -0.0642337869569777 2.9958252904247407 1.6171560344888605 4.449495205228865" Properties=species:S:1:pos:R:3:spacegroup_kinds:I:1:forces:R:3 spacegroup="P 1" unit_cell=conventional occupancy="_JSON {\"0\": {\"In\": 1}, \"1\": {\"In\": 1}, \"2\": {\"In\": 1}, \"3\": {\"In\": 1}, \"4\": {\"O\": 1}, \"5\": {\"O\": 1}, \"6\": {\"O\": 1}, \"7\": {\"O\": 1}, \"8\": {\"O\": 1}, \"9\": {\"O\": 1}}" n_minim_iter=4 energy=-11284.401378082532 stress="-0.0867296564397165 9.606318612995473e-06 6.633028014506326e-06 9.606318612995473e-06 -0.08674226688336548 3.5805296505347917e-06 6.633028014506326e-06 3.5805296505347917e-06 -0.08674498009934171" pbc="T T T"
In       9.99787236       5.39688335       3.72647211        0      -0.01008207      -0.00563637      -0.00388957
In       7.39166448       3.99004404       2.75506934        1       0.01010521       0.00551913       0.00392556
In       4.20136008       2.26790756       1.56595830        2      -0.01010521      -0.00551913      -0.00392556
In       1.59515221       0.86106824       0.59455552        3       0.01008207       0.00563637       0.00388957
O        5.69894313       2.15432468       0.12654234        4       0.00002005       0.01380245      -0.01996925
O        6.66486380       4.87041520       1.01602312        5      -0.01152497       0.02134273      -0.00000206
O        7.72884775       1.97737317       2.35128994        6       0.01151520      -0.00756907      -0.01995408
O        3.86417681       4.28057842       1.96973769        7      -0.01151520       0.00756907       0.01995408
O        5.89408143       4.10362691       4.19448529        8      -0.00002005      -0.01380245       0.01996925
O        4.92816077       1.38753639       3.30500451        9       0.01152497      -0.02134273       0.00000206
10
Lattice="5.602323593805746 -0.09202051071824278 -0.06353886958130607 2.9971877375671307 4.734064119747729 -0.06353886958129829 2.9971877375671285 1.6178914877961772 4.4494749590875555" Properties=species:S:1:pos:R:3:spacegroup_kinds:I:1:forces:R:3 spacegroup="P 1" unit_cell=conventional occupancy="_JSON {\"0\": {\"In\": 1}, \"1\": {\"In\": 1}, \"2\": {\"In\": 1}, \"3\": {\"In\": 1}, \"4\": {\"O\": 1}, \"5\": {\"O\": 1}, \"6\": {\"O\": 1}, \"7\": {\"O\": 1}, \"8\": {\"O\": 1}, \"9\": {\"O\": 1}}" n_minim_iter=5 energy=-11284.40148856076 stress="-0.08674921782903426 -4.499115151820952e-05 -3.106575790896848e-05 -4.499115151820952e-05 -0.0866901568709463 -1.6769395074375804e-05 -3.106575790896848e-05 -1.6769395074375804e-05 -0.08667744953570035" pbc="T T T"
In      10.00060424       5.39835803       3.72749036        0       0.00464290       0.00251814       0.00188899
In       7.39444437       3.99154463       2.75610548        1      -0.00480154      -0.00239550      -0.00167764
In       4.20225470       2.26839048       1.56629175        2       0.00480154       0.00239550       0.00167764
In       1.59609484       0.86157708       0.59490687        3      -0.00464290      -0.00251814      -0.00188899
O        5.70033657       2.15624778       0.12589400        4       0.00001903      -0.00305936       0.00443644
O        6.66616599       4.87296614       1.01706044        5       0.00258293      -0.00477274       0.00001003
O        7.73169489       1.97823296       2.35063148        6      -0.00256673       0.00164756       0.00442564
O        3.86500419       4.28170214       1.97176575        7       0.00256673      -0.00164756      -0.00442564
O        5.89636251       4.10368733       4.19650322        8      -0.00001903       0.00305936      -0.00443644
O        4.93053309       1.38696897       3.30533679        9      -0.00258293       0.00477274      -0.00001003
