10
Lattice="5.019943427865257 -0.3103735794453457 -0.21430859524614448 2.4950787638678187 4.367006496432219 -0.2143085952461228 2.4950787638678196 1.3468514644062257 4.159647226232587" Properties=species:S:1:pos:R:3:spacegroup_kinds:I:1:forces:R:3 spacegroup="P 1" unit_cell=conventional occupancy="_JSON {\"0\": {\"In\": 1}, \"1\": {\"In\": 1}, \"2\": {\"In\": 1}, \"3\": {\"In\": 1}, \"4\": {\"O\": 1}, \"5\": {\"O\": 1}, \"6\": {\"O\": 1}, \"7\": {\"O\": 1}, \"8\": {\"O\": 1}, \"9\": {\"O\": 1}}" n_minim_iter=14 energy=-11278.857330293928 stress="-0.44325726971896373 -3.6016970996009118e-06 -2.486921235889117e-06 -3.6016970996009118e-06 -0.44325254168524353 -1.3424480052870447e-06 -2.486921235889117e-06 -1.3424480052870447e-06 -0.44325152441915955" pbc="T T T"
In       8.77702414       4.73786559       3.27142961        0      -0.00001877       0.00016172      -0.00011313
In       6.23812728       3.36736098       2.32511544        1       0.00005142      -0.00000720      -0.00008408
In       3.77197366       2.03612340       1.40591459        2      -0.00005142       0.00000720       0.00008408
In       1.23307680       0.66561879       0.45960042        3       0.00001877      -0.00016172       0.00011313
O        5.01249695       1.85086282      -0.12326261        4      -0.00000077      -0.00010362       0.00014244
O        5.71230382       4.39387683       0.71844891        5       0.00007842      -0.00015221       0.00000051
O        6.80776883       1.50959927       1.95656100        6      -0.00007533       0.00003342       0.00013653
O        3.20233211       3.89388511       1.77446903        7       0.00007533      -0.00003342      -0.00013653
O        4.99760400       3.55262156       3.85429264        8       0.00000077       0.00010362      -0.00014244
O        4.29779712       1.00960755       3.01258112        9      -0.00007842       0.00015221      -0.00000051
