10
Lattice="5.392815613566613 -0.1469910196294295 -0.10149523354041845 2.8362705124256347 4.58907792286472 -0.1014952335404018 2.8362705124256347 1.5310278570889402 4.3273422750428985" Properties=species:S:1:pos:R:3:spacegroup_kinds:I:1:forces:R:3 spacegroup="P 1" unit_cell=conventional occupancy="_JSON {\"0\": {\"In\": 1}, \"1\": {\"In\": 1}, \"2\": {\"In\": 1}, \"3\": {\"In\": 1}, \"4\": {\"O\": 1}, \"5\": {\"O\": 1}, \"6\": {\"O\": 1}, \"7\": {\"O\": 1}, \"8\": {\"O\": 1}, \"9\": {\"O\": 1}}" n_minim_iter=1 energy=-11282.96142432458 stress="-0.210584090932418 0.004925934022157035 0.0034012882232121455 0.004925934022157035 -0.21705048205609498 0.0018360262171442099 0.0034012882232121455 0.0018360262171442099 -0.21844176662887377" pbc="T T T"
In       9.57790199       5.17018200       3.56993802        0       0.07207188       0.03879769       0.02697602
In       7.02013298       3.78949015       2.61658970        1      -0.07216316      -0.03873779      -0.02690248
In       4.04522367       2.18362462       1.50776212        2       0.07216316       0.03873779       0.02690248
In       1.48745466       0.80293277       0.55441379        3      -0.07207188      -0.03879769      -0.02697602
O        5.46274697       2.05419985       0.06154298        4      -0.00000926       0.04165290      -0.06032683
O        6.35050674       4.69685709       0.92959272        5      -0.03476775       0.06449124       0.00000129
O        7.41125772       1.83717883       2.22521412        6       0.03481377      -0.02288513      -0.06035305
O        3.65409893       4.13593594       1.89913769        7      -0.03481377       0.02288513       0.06035305
O        5.60260968       3.91891492       4.06280883        8       0.00000926      -0.04165290       0.06032683
O        4.71484991       1.27625768       3.19475909        9       0.03476775      -0.06449124      -0.00000129
10
Lattice="5.378953709035201 -0.16198247909951088 -0.1118466256449399 2.816131247726402 4.585715442878866 -0.11184662564492318 2.8161312477264024 1.520156617853919 4.32786548403723" Properties=species:S:1:pos:R:3:spacegroup_kinds:I:1:forces:R:3 spacegroup="P 1" unit_cell=conventional occupancy="_JSON {\"0\": {\"In\": 1}, \"1\": {\"In\": 1}, \"2\": {\"In\": 1}, \"3\": {\"In\": 1}, \"4\": {\"O\": 1}, \"5\": {\"O\": 1}, \"6\": {\"O\": 1}, \"7\": {\"O\": 1}, \"8\": {\"O\": 1}, \"9\": {\"O\": 1}}" n_minim_iter=2 energy=-11282.965599639652 stress="-0.2125472521554563 0.0004058681599582764 0.00028024626120318197 0.0004058681599582764 -0.2130800449730483 0.00015127782447671434 0.00028024626120318197 0.00015127782447671434 -0.21319467868657205" pbc="T T T"
In       9.53140468       5.14508261       3.55260724        0       0.15866793       0.08570953       0.05909141
In       6.98541964       3.77075177       2.60365111        1      -0.15869955      -0.08580235      -0.05935803
In       4.02579657       2.17313782       1.50052112        2       0.15869955       0.08580235       0.05935803
In       1.47981154       0.79880698       0.55156500        3      -0.15866793      -0.08570953      -0.05909141
O        5.44228091       2.04116826       0.04875835        4      -0.00001723       0.01203019      -0.01739197
O        6.31849095       4.68311574       0.91419643        5      -0.01002165       0.01864847      -0.00001183
O        7.38220212       1.81596971       2.21269109        6       0.01005070      -0.00660928      -0.01742051
O        3.62901409       4.12791988       1.89148114        7      -0.01005070       0.00660928       0.01742051
O        5.56893530       3.90272133       4.05541389        8       0.00001723      -0.01203019       0.01739197
O        4.69272526       1.26077385       3.18997580        9       0.01002165      -0.01864847       0.00001183
10
Lattice="5.356424963241187 -0.18650252725717575 -0.12877737434277553 2.7832703502437206 4.580335985161004 -0.12877737434275877 2.7832703502437197 1.5024182007196853 4.328833665001429" Properties=species:S:1:pos:R:3:spacegroup_kinds:I:1:forces:R:3 spacegroup="P 1" unit_cell=conventional occupancy="_JSON {\"0\": {\"In\": 1}, \"1\": {\"In\": 1}, \"2\": {\"In\": 1}, \"3\": {\"In\": 1}, \"4\": {\"O\": 1}, \"5\": {\"O\": 1}, \"6\": {\"O\": 1}, \"7\": {\"O\": 1}, \"8\": {\"O\": 1}, \"9\": {\"O\": 1}}" n_minim_iter=3 energy=-11282.970480545962 stress="-0.20978052163269761 -0.002953666277785842 -0.0020394650599749597 -0.002953666277785842 -0.20590317343536768 -0.001100909735760991 -0.0020394650599749597 -0.001100909735760991 -0.20506893767278223" pbc="T T T"
In       9.46793181       5.11081975       3.52894922        0       0.09876431       0.05341364       0.03665879
In       6.91651669       3.73355774       2.57796916        1      -0.09866043      -0.05342701      -0.03689173
In       4.00644898       2.16269392       1.49330976        2       0.09866043       0.05342701       0.03689173
In       1.45503386       0.78543192       0.54232970        3      -0.09876431      -0.05341364      -0.03665879
O        5.40895390       2.02062653       0.02681569        4      -0.00000926       0.02182687      -0.03159295
O        6.26570065       4.66187493       0.88904236        5      -0.01824018       0.03380435      -0.00002443
O        7.33547750       1.78094036       2.19123253        6       0.01823915      -0.01196951      -0.03158780
O        3.58748817       4.11531131       1.88004639        7      -0.01823915       0.01196951       0.03158780
O        5.51401177       3.87562513       4.04446323        8       0.00000926      -0.02182687       0.03159295
O        4.65726502       1.23437674       3.18223656        9       0.01824018      -0.03380435       0.00002443
10
Lattice="5.3583182515424035 -0.1844343628113324 -0.12734933585470973 2.7860382346827683 4.580783936607768 -0.127349335854693 2.7860382346827675 1.503912313556531 4.3287465946113635" Properties=species:S:1:pos:R:3:spacegroup_kinds:I:1:forces:R:3 spacegroup="P 1" unit_cell=conventional occupancy="_JSON {\"0\": {\"In\": 1}, \"1\": {\"In\": 1}, \"2\": {\"In\": 1}, \"3\": {\"In\": 1}, \"4\": {\"O\": 1}, \"5\": {\"O\": 1}, \"6\": {\"O\": 1}, \"7\": {\"O\": 1}, \"8\": {\"O\": 1}, \"9\": {\"O\": 1}}" n_minim_iter=4 energy=-11282.97360305251 stress="-0.2074682451761259 -0.001094495765880997 -0.0007557339465168733 -0.001094495765880997 -0.2060314744695841 -0.00040794759159824834 -0.0007557339465168733 -0.00040794759159824834 -0.20572234424835223" pbc="T T T"
In       9.47888832       5.11673411       3.53303300        0       0.02639418       0.01427477       0.00985864
In       6.91670377       3.73365873       2.57803889        1      -0.02627642      -0.01429919      -0.00980130
In       4.01369096       2.16660317       1.49600904        2       0.02627642       0.01429919       0.00980130
In       1.45150641       0.78352779       0.54101492        3      -0.02639418      -0.01427477      -0.00985864
O        5.41175781       2.02327464       0.02733641        4      -0.00002957       0.03549794      -0.05142567
O        6.26937731       4.66508253       0.89116265        5      -0.02966745       0.05500541      -0.00002828
O        7.34017654       1.78338853       2.19170971        6       0.02968133      -0.01948742      -0.05144906
O        3.59021819       4.11687337       1.88233822        7      -0.02968133       0.01948742       0.05144906
O        5.51863692       3.87698726       4.04671152        8       0.00002957      -0.03549794       0.05142567
O        4.66101742       1.23517937       3.18288528        9       0.02966745      -0.05500541       0.00002828
10
Lattice="5.360290286874807 -0.18228165952200295 -0.12586292448315425 2.7889200042327493 4.581251332654963 -0.12586292448313746 2.788920004232749 1.5054679019390227 4.328657025561587" Properties=species:S:1:pos:R:3:spacegroup_kinds:I:1:forces:R:3 spacegroup="P 1" unit_cell=conventional occupancy="_JSON {\"0\": {\"In\": 1}, \"1\": {\"In\": 1}, \"2\": {\"In\": 1}, \"3\": {\"In\": 1}, \"4\": {\"O\": 1}, \"5\": {\"O\": 1}, \"6\": {\"O\": 1}, \"7\": {\"O\": 1}, \"8\": {\"O\": 1}, \"9\": {\"O\": 1}}" n_minim_iter=5 energy=-11282.974250683495 stress="-0.20568049774339037 0.00022479350608462867 0.00015521675715951533 0.00022479350608462867 -0.20597558954240125 8.378649993261156e-05 0.00015521675715951533 8.378649993261156e-05 -0.20603908039219104" pbc="T T T"
In       9.48897441       5.12217862       3.53679236        0      -0.01772981      -0.00946835      -0.00651800
In       6.91822104       3.73447776       2.57860441        1       0.01759869       0.00960821       0.00662676
In       4.01990926       2.16995983       1.49832677        2      -0.01759869      -0.00960821      -0.00662676
In       1.44915589       0.78225897       0.54013883        3       0.01772981       0.00946835       0.00651800
O        5.41467772       2.02648797       0.02721740        4      -0.00000566       0.03304433      -0.04786006
O        6.27282431       4.66912934       0.89336987        5      -0.02764605       0.05126446      -0.00004165
O        7.34545114       1.78568681       2.19154591        6       0.02765839      -0.01818696      -0.04795262
O        3.59267916       4.11875077       1.88538527        7      -0.02765839       0.01818696       0.04795262
O        5.52345258       3.87794962       4.04971378        8       0.00000566      -0.03304433       0.04786006
O        4.66530600       1.23530824       3.18356131        9       0.02764605      -0.05126446       0.00004165
10
Lattice="5.360877820310544 -0.18164059095729 -0.1254202756474975 2.7897783331802883 4.581390745210303 -0.12542027564748076 2.7897783331802875 1.5059312306389725 4.328630561093005" Properties=species:S:1:pos:R:3:spacegroup_kinds:I:1:forces:R:3 spacegroup="P 1" unit_cell=conventional occupancy="_JSON {\"0\": {\"In\": 1}, \"1\": {\"In\": 1}, \"2\": {\"In\": 1}, \"3\": {\"In\": 1}, \"4\": {\"O\": 1}, \"5\": {\"O\": 1}, \"6\": {\"O\": 1}, \"7\": {\"O\": 1}, \"8\": {\"O\": 1}, \"9\": {\"O\": 1}}" n_minim_iter=6 energy=-11282.974613411272 stress="-0.20512899234273516 0.0004350797961566041 0.00030041648551709654 0.0004350797961566041 -0.2057001319721548 0.00016216577581025515 0.00030041648551709654 0.00016216577581025515 -0.20582301624254848" pbc="T T T"
In       9.49214328       5.12388918       3.53797348        0      -0.02206469      -0.01189264      -0.00794342
In       6.91850846       3.73463291       2.57871154        1       0.02184846       0.01199908       0.00834966
In       4.02192603       2.17104849       1.49907847        2      -0.02184846      -0.01199908      -0.00834966
In       1.44829122       0.78179222       0.53981654        3       0.02206469       0.01189264       0.00794342
O        5.41554754       2.02809527       0.02624020        4      -0.00000540       0.02047987      -0.02966308
O        6.27330750       4.67134181       0.89402723        5      -0.01711095       0.03172124      -0.00002031
O        7.34756591       1.78601451       2.19055548        6       0.01713280      -0.01126760      -0.02969239
O        3.59286859       4.11966689       1.88723453        7      -0.01713280       0.01126760       0.02969239
O        5.52488696       3.87758612       4.05154981        8       0.00000540      -0.02047987       0.02966308
O        4.66712700       1.23433959       3.18376279        9       0.01711095      -0.03172124       0.00002031
10
Lattice="5.361118881961991 -0.18137760284244228 -0.12523868604969685 2.790130468349789 4.581447966628935 -0.12523868604968008 2.7901304683497883 1.5061213143251388 4.328619732194945" Properties=species:S:1:pos:R:3:spacegroup_kinds:I:1:forces:R:3 spacegroup="P 1" unit_cell=conventional occupancy="_JSON {\"0\": {\"In\": 1}, \"1\": {\"In\": 1}, \"2\": {\"In\": 1}, \"3\": {\"In\": 1}, \"4\": {\"O\": 1}, \"5\": {\"O\": 1}, \"6\": {\"O\": 1}, \"7\": {\"O\": 1}, \"8\": {\"O\": 1}, \"9\": {\"O\": 1}}" n_minim_iter=7 energy=-11282.97479872081 stress="-0.20514540939395748 0.00021795898018242164 0.00015049761306260012 0.00021795898018242164 -0.205431529347745 8.123909091685422e-05 0.00015049761306260012 8.123909091685422e-05 -0.20549308984881162" pbc="T T T"
In       9.49307322       5.12439117       3.53832009        0      -0.00816660      -0.00441613      -0.00282641
In       6.91899651       3.73489636       2.57889345        1       0.00794599       0.00444004       0.00279633
In       4.02238331       2.17129533       1.49924891        2      -0.00794599      -0.00444004      -0.00279633
In       1.44830661       0.78180052       0.53982227        3       0.00816660       0.00441613       0.00282641
O        5.41590440       2.02924578       0.02512805        4       0.00000437       0.00346199      -0.00499694
O        6.27309518       4.67301007       0.89429691        5      -0.00288401       0.00537721      -0.00000000
O        7.34884409       1.78587947       2.18943792        6       0.00290123      -0.00192550      -0.00504605
O        3.59253574       4.12031222       1.88870444        7      -0.00290123       0.00192550       0.00504605
O        5.52547543       3.87694591       4.05301431        8      -0.00000437      -0.00346199       0.00499694
O        4.66828464       1.23318161       3.18384546        9       0.00288401      -0.00537721       0.00000000
