10
Lattice="5.756422973848582 -0.035936798605168775 -0.02481385445398251 3.1286316967610874 4.832117611706858 -0.024813854453977668 3.12863169676109 1.6888453556625842 4.527447151033058" Properties=species:S:1:pos:R:3:spacegroup_kinds:I:1:forces:R:3 spacegroup="P 1" unit_cell=conventional occupancy="_JSON {\"0\": {\"In\": 1}, \"1\": {\"In\": 1}, \"2\": {\"In\": 1}, \"3\": {\"In\": 1}, \"4\": {\"O\": 1}, \"5\": {\"O\": 1}, \"6\": {\"O\": 1}, \"7\": {\"O\": 1}, \"8\": {\"O\": 1}, \"9\": {\"O\": 1}}" n_minim_iter=1 energy=-11284.82974761263 stress="0.00012952036151344428 8.594527496015622e-05 5.934400465938405e-05 8.594527496015622e-05 1.6697948418892032e-05 3.203408274587748e-05 5.934400465938405e-05 3.203408274587748e-05 -7.57650077540006e-06" pbc="T T T"
In      10.32646738       5.57425999       3.84894819        0       0.00150847       0.00077750       0.00033733
In       7.69406218       4.15327927       2.86778098        1      -0.00158971      -0.00080347      -0.00063583
In       4.31962420       2.33174691       1.61003847        2       0.00158971       0.00080347       0.00063583
In       1.68721899       0.91076619       0.62887125        3      -0.00150847      -0.00077750      -0.00033733
O        5.88163308       2.23647601       0.19003020        4      -0.00000360      -0.00071117       0.00103204
O        6.91660073       4.99997882       1.09464101        5       0.00061475      -0.00114517      -0.00000129
O        7.97529714       2.10026682       2.45375378        6      -0.00060498       0.00039852       0.00106058
O        4.03838924       4.38475936       2.02406567        7       0.00060498      -0.00039852      -0.00106058
O        6.13205329       4.24855017       4.28778924        8       0.00000360       0.00071117      -0.00103204
O        5.09708565       1.48504736       3.38317844        9      -0.00061475       0.00114517       0.00000129
