10
Lattice="5.805208545433126 -0.03624136226716221 -0.025024151382864224 3.1551467889107467 4.873069713510668 -0.025024151382863773 3.1551467889107494 1.7031582868645128 4.565817176669704" Properties=species:S:1:pos:R:3:spacegroup_kinds:I:1:forces:R:3 spacegroup="P 1" unit_cell=conventional occupancy="_JSON {\"0\": {\"In\": 1}, \"1\": {\"In\": 1}, \"2\": {\"In\": 1}, \"3\": {\"In\": 1}, \"4\": {\"O\": 1}, \"5\": {\"O\": 1}, \"6\": {\"O\": 1}, \"7\": {\"O\": 1}, \"8\": {\"O\": 1}, \"9\": {\"O\": 1}}" n_minim_iter=7 energy=-11284.82974761263 stress="0.00012952036151344564 8.594527496015687e-05 5.934400465938455e-05 8.594527496015687e-05 1.6697948418892686e-05 3.203408274587767e-05 5.934400465938455e-05 3.203408274587767e-05 -7.576500775399667e-06" pbc="T T T"
In      10.41398399       5.62150173       3.88156795        0       0.00150847       0.00077750       0.00033733
In       7.75926920       4.18847823       2.89208536        1      -0.00158971      -0.00080347      -0.00063583
In       4.35623293       2.35150842       1.62368352        2       0.00158971       0.00080347       0.00063583
In       1.70151814       0.91848492       0.63420093        3      -0.00150847      -0.00077750      -0.00033733
O        5.93147981       2.25543010       0.19164071        4      -0.00000360      -0.00071117       0.00103204
O        6.97521878       5.04235355       1.10391807        5       0.00061475      -0.00114517      -0.00000129
O        8.04288762       2.11806654       2.47454929        6      -0.00060498       0.00039852       0.00106058
O        4.07261451       4.42192011       2.04121958        7       0.00060498      -0.00039852      -0.00106058
O        6.18402232       4.28455655       4.32412817        8       0.00000360       0.00071117      -0.00103204
O        5.14028335       1.49763310       3.41185081        9      -0.00061475       0.00114517       0.00000129
