10
Lattice="5.102472961674655 -0.28263321872676533 -0.195154265976742 2.563555601857326 4.420779856217064 -0.1951542659767161 2.5635556018573276 1.3838154796748574 4.203145779398537" Properties=species:S:1:pos:R:3:spacegroup_kinds:I:1:forces:R:3 spacegroup="P 1" unit_cell=conventional occupancy="_JSON {\"0\": {\"In\": 1}, \"1\": {\"In\": 1}, \"2\": {\"In\": 1}, \"3\": {\"In\": 1}, \"4\": {\"O\": 1}, \"5\": {\"O\": 1}, \"6\": {\"O\": 1}, \"7\": {\"O\": 1}, \"8\": {\"O\": 1}, \"9\": {\"O\": 1}}" n_minim_iter=7 energy=-11280.186891540487 stress="-0.3696230317769476 0.00031923086870360405 0.0002204244290165136 0.00031923086870360405 -0.37004209375514596 0.00011898580890958022 0.0002204244290165136 0.00011898580890958022 -0.3701322575658639" pbc="T T T"
In       8.94738555       4.82982723       3.33492783        0      -0.00644190      -0.00389342      -0.00282873
In       6.39699068       3.45311595       2.38432804        1       0.00702323       0.00310975       0.00233379
In       3.83259347       2.06884617       1.42850921        2      -0.00702323      -0.00310975      -0.00233379
In       1.28219860       0.69213489       0.47790941        3       0.00644190       0.00389342       0.00282873
O        5.10863252       1.89231833      -0.09028774        4       0.00004602       0.00361626      -0.00519723
O        5.84437834       4.46110286       0.75805504        5      -0.00309561       0.00576698      -0.00000180
O        6.93644230       1.57268705       2.01128515        6       0.00300331      -0.00193913      -0.00517075
O        3.29314185       3.94927506       1.80155209        7      -0.00300331       0.00193913       0.00517075
O        5.12095164       3.62964379       3.90312498        8      -0.00004602      -0.00361626       0.00519723
O        4.38520582       1.06085925       3.05478220        9       0.00309561      -0.00576698       0.00000180
