10
Lattice="5.271914940990093 -0.21924502411417152 -0.1513856083258833 2.709524964230593 4.527651708539947 -0.15138560832586376 2.709524964230595 1.4626102064457849 4.287577285630378" Properties=species:S:1:pos:R:3:spacegroup_kinds:I:1:forces:R:3 spacegroup="P 1" unit_cell=conventional occupancy="_JSON {\"0\": {\"In\": 1}, \"1\": {\"In\": 1}, \"2\": {\"In\": 1}, \"3\": {\"In\": 1}, \"4\": {\"O\": 1}, \"5\": {\"O\": 1}, \"6\": {\"O\": 1}, \"7\": {\"O\": 1}, \"8\": {\"O\": 1}, \"9\": {\"O\": 1}}" n_minim_iter=6 energy=-11282.220692437113 stress="-0.25324566959869266 -0.00034830152787486933 -0.00024049731067410374 -0.00034830152787486933 -0.25278844587257504 -0.00012982121436745653 -0.00024049731067410374 -0.00012982121436745653 -0.2526900713226463" pbc="T T T"
In       9.30079211       5.02059721       3.46665182        0      -0.00513835      -0.00291332      -0.00206691
In       6.73565518       3.63592812       2.51055728        1       0.00522654       0.00283490       0.00194941
In       3.95530968       2.13508877       1.47424879        2      -0.00522654      -0.00283490      -0.00194941
In       1.39017274       0.75041968       0.51815424        3       0.00513835       0.00291332       0.00206691
O        5.30869868       1.98005353      -0.01639931        4      -0.00001080       0.00561709      -0.00813111
O        6.12263129       4.59885952       0.84481591        5      -0.00470023       0.00874329       0.00000514
O        7.20429103       1.70945668       2.12738933        6       0.00472209      -0.00310975      -0.00817405
O        3.48667382       4.06156021       1.85741673        7      -0.00472209       0.00310975       0.00817405
O        5.38226618       3.79096336       4.00120537        8       0.00001080      -0.00561709       0.00813111
O        4.56833356       1.17215737       3.13999016        9       0.00470023      -0.00874329      -0.00000514
