10
Lattice="5.308035010337041 -0.17958166703185532 -0.1239986176089264 2.7625035996196297 4.536084116083633 -0.1239986176089098 2.7625035996196288 1.491208242583671 4.285759295924789" Properties=species:S:1:pos:R:3:spacegroup_kinds:I:1:forces:R:3 spacegroup="P 1" unit_cell=conventional occupancy="_JSON {\"0\": {\"In\": 1}, \"1\": {\"In\": 1}, \"2\": {\"In\": 1}, \"3\": {\"In\": 1}, \"4\": {\"O\": 1}, \"5\": {\"O\": 1}, \"6\": {\"O\": 1}, \"7\": {\"O\": 1}, \"8\": {\"O\": 1}, \"9\": {\"O\": 1}}" n_minim_iter=7 energy=-11282.97479872081 stress="-0.20514540939395715 0.00021795898018280415 0.00015049761306282217 0.00021795898018280415 -0.20543152934774492 8.123909091703463e-05 0.00015049761306282217 8.123909091703463e-05 -0.20549308984881165" pbc="T T T"
In       9.39907622       5.07365129       3.50328492        0      -0.00816660      -0.00441613      -0.00282641
In       6.85048710       3.69791476       2.55335818        1       0.00794599       0.00444004       0.00279633
In       3.98255512       2.14979594       1.48440389        2      -0.00794599      -0.00444004      -0.00279633
In       1.43396599       0.77405941       0.53447715        3       0.00816660       0.00441613       0.00282641
O        5.36227806       2.00915292       0.02487925        4       0.00000437       0.00346199      -0.00499694
O        6.21098125       4.62673961       0.88544190        5      -0.00288401       0.00537721      -0.00000000
O        7.27607847       1.76819633       2.16775889        6       0.00290123      -0.00192550      -0.00504605
O        3.55696374       4.07951437       1.87000317        7      -0.00290123       0.00192550       0.00504605
O        5.47076416       3.83855779       4.01288282        8      -0.00000437      -0.00346199       0.00499694
O        4.62206097       1.22097109       3.15232017        9       0.00288401      -0.00537721       0.00000000
