40
Lattice="8.919682340494337 6.990997312768897e-10 -4.728473172240315e-16 -2.973227447490564 8.40955715842489 -1.2108775916364053e-09 -2.973227446501888 -4.204778578513343 7.282890134580483" Properties=species:S:1:pos:R:3:spacegroup_kinds:I:1:forces:R:3 spacegroup="P 1" unit_cell=conventional occupancy="_JSON {\"0\": {\"In\": 1}, \"1\": {\"In\": 1}, \"2\": {\"In\": 1}, \"3\": {\"In\": 1}, \"4\": {\"In\": 1}, \"5\": {\"In\": 1}, \"6\": {\"In\": 1}, \"7\": {\"In\": 1}, \"8\": {\"In\": 1}, \"9\": {\"In\": 1}, \"10\": {\"In\": 1}, \"11\": {\"In\": 1}, \"12\": {\"In\": 1}, \"13\": {\"In\": 1}, \"14\": {\"In\": 1}, \"15\": {\"In\": 1}, \"16\": {\"O\": 1}, \"17\": {\"O\": 1}, \"18\": {\"O\": 1}, \"19\": {\"O\": 1}, \"20\": {\"O\": 1}, \"21\": {\"O\": 1}, \"22\": {\"O\": 1}, \"23\": {\"O\": 1}, \"24\": {\"O\": 1}, \"25\": {\"O\": 1}, \"26\": {\"O\": 1}, \"27\": {\"O\": 1}, \"28\": {\"O\": 1}, \"29\": {\"O\": 1}, \"30\": {\"O\": 1}, \"31\": {\"O\": 1}, \"32\": {\"O\": 1}, \"33\": {\"O\": 1}, \"34\": {\"O\": 1}, \"35\": {\"O\": 1}, \"36\": {\"O\": 1}, \"37\": {\"O\": 1}, \"38\": {\"O\": 1}, \"39\": {\"O\": 1}}" n_minim_iter=1 energy=-45151.905636510484 stress="0.002876239596942058 -2.5860686002163485e-14 -7.38391027536616e-14 -2.5860686002163485e-14 0.0028762395971735637 -1.284889930255745e-14 -7.38391027536616e-14 -1.284889930255745e-14 0.002876239597269382" free_energy=-45151.905636510484 pbc="T T T"
In      -4.26096793       3.01295932       5.70573658        0       0.00396666      -0.00280485       0.00485814
In       7.23419537       1.19181926       1.57715355        1      -0.00396666       0.00280485      -0.00485814
In       1.28774048      -0.91057003       5.21859862        2      -0.00396666       0.00280485      -0.00485814
In      -1.48661372      -2.10238929       3.64144506        3       0.00000000      -0.00000000      -0.00000000
In      -1.28774048       4.06415396       3.39787608        4       0.00396666      -0.00280485      -0.00485814
In       4.65871441      -2.87233470       5.46216760        5       0.00396666       0.00560970       0.00000000
In      -1.28774048       1.33244388       5.46216760        6       0.00396666       0.00560970       0.00000000
In      -1.68548697       7.07711328       1.82072253        7      -0.00396666      -0.00560970       0.00000000
In       4.26096793       0.14062462       3.88501405        8      -0.00396666       0.00280485       0.00485814
In      -1.48661373       4.20477858      -0.00000000        9       0.00000000       0.00000000      -0.00000000
In       4.26096793       6.44779249       0.24356898       10      -0.00396666       0.00280485       0.00485814
In      -1.28774048      -2.24301390       7.03932115       11       0.00396666      -0.00280485      -0.00485814
In       4.26096793       2.87233470       1.82072253       12      -0.00396666      -0.00560970      -0.00000000
In       1.68548696       5.11534861       2.06429151       13       0.00396666      -0.00280485       0.00485814
In       4.45984117       0.00000000      -0.00000000       14       0.00000000      -0.00000000      -0.00000000
In       1.48661372       2.10238929       3.64144506       15      -0.00000000      -0.00000000       0.00000000
O        0.86923494       4.20407218       3.96292640       16       0.01905646       0.00626023      -0.00344558
O       -2.10399251       3.43234814       5.30203869       17       0.01905646      -0.00611408      -0.00369872
O       -0.43917542       2.25514469       0.05812474       18       0.00648995       0.00277179      -0.01908950
O       -0.86923494      -0.77313684       1.98207496       19      -0.01905646       0.00014615      -0.00714431
O        3.93737969       5.01147376       1.92395022       20      -0.01211656      -0.01116748       0.01194519
O        2.00907520       2.94193640       1.66059362       21       0.01211656      -0.01592858      -0.00369872
O        2.00907520       6.27431593       0.26335659       22       0.01211656       0.00476110       0.01564391
O       -2.27256261       5.96951153       3.69956981       23      -0.00044996      -0.00704271      -0.01908950
O        3.41240287       1.94963389       7.22476539       24      -0.00648995      -0.00277179       0.01908950
O        5.24579006      -1.76473295       3.58332032       25       0.00044996       0.00704271       0.01908950
O        6.38563031       3.28029914       1.71749485       26      -0.00648995      -0.01514609      -0.01194519
O        3.67389228       2.32155496       3.90480166       27      -0.00044996      -0.01301063       0.01564391
O        0.70066483       4.32326925       6.96140879       28      -0.00044996       0.02005335       0.00344558
O        2.27256261      -0.11849066       0.32148133       29       0.00044996      -0.02005335      -0.00344558
O       -3.41240287       0.92447944       5.56539528       30       0.00648995       0.01514609       0.01194519
O        5.07721995       0.77243044       1.98085144       31      -0.01905646       0.00611408       0.00369872
O        0.96415225       1.26284218       5.62229651       32      -0.01211656       0.01592858       0.00369872
O        3.41240287      -1.02515445       5.62352003       33      -0.00648995       0.01791789      -0.00714431
O        2.10399251       0.00070640       3.31996373       34      -0.01905646      -0.00626023       0.00344558
O        0.96415225      -2.06953735       7.01953354       35      -0.01211656      -0.00476110      -0.01564391
O       -0.70066484       1.88322362       3.37808847       36       0.00044996       0.01301063      -0.01564391
O       -0.96415225      -0.80669517       5.35893991       37       0.01211656       0.01116748      -0.01194519
O       -0.43917542       5.22993303       1.65937010       38       0.00648995      -0.01791789       0.00714431
O        3.84246239       4.97791542       5.30081517       39       0.01905646      -0.00014615       0.00714431
40
Lattice="8.910883857877785 6.984101323635308e-10 -6.307041108047951e-16 -2.970294619951062 8.401261869462033 -1.209682736975786e-09 -2.9702946189633623 -4.200630934032604 7.27570620360612" Properties=species:S:1:pos:R:3:spacegroup_kinds:I:1:forces:R:3 spacegroup="P 1" unit_cell=conventional occupancy="_JSON {\"0\": {\"In\": 1}, \"1\": {\"In\": 1}, \"2\": {\"In\": 1}, \"3\": {\"In\": 1}, \"4\": {\"In\": 1}, \"5\": {\"In\": 1}, \"6\": {\"In\": 1}, \"7\": {\"In\": 1}, \"8\": {\"In\": 1}, \"9\": {\"In\": 1}, \"10\": {\"In\": 1}, \"11\": {\"In\": 1}, \"12\": {\"In\": 1}, \"13\": {\"In\": 1}, \"14\": {\"In\": 1}, \"15\": {\"In\": 1}, \"16\": {\"O\": 1}, \"17\": {\"O\": 1}, \"18\": {\"O\": 1}, \"19\": {\"O\": 1}, \"20\": {\"O\": 1}, \"21\": {\"O\": 1}, \"22\": {\"O\": 1}, \"23\": {\"O\": 1}, \"24\": {\"O\": 1}, \"25\": {\"O\": 1}, \"26\": {\"O\": 1}, \"27\": {\"O\": 1}, \"28\": {\"O\": 1}, \"29\": {\"O\": 1}, \"30\": {\"O\": 1}, \"31\": {\"O\": 1}, \"32\": {\"O\": 1}, \"33\": {\"O\": 1}, \"34\": {\"O\": 1}, \"35\": {\"O\": 1}, \"36\": {\"O\": 1}, \"37\": {\"O\": 1}, \"38\": {\"O\": 1}, \"39\": {\"O\": 1}}" n_minim_iter=2 energy=-45151.9080299062 stress="7.216562245154316e-05 2.6293763230311824e-14 4.18602181444756e-14 2.6293763230311824e-14 7.216562232562995e-05 6.809456470180306e-14 4.18602181444756e-14 6.809456470180306e-14 7.216562227862964e-05" free_energy=-45151.9080299062 pbc="T T T"
In      -4.25676237       3.00998554       5.70011142        0       0.00231497      -0.00163693       0.00283525
In       7.22705699       1.19064540       1.57559478        1      -0.00231497       0.00163693      -0.00283525
In       1.28646775      -0.90967007       5.21344788        2      -0.00231497       0.00163693      -0.00283525
In      -1.48514731      -2.10031547       3.63785310        3       0.00000000      -0.00000000       0.00000000
In      -1.28646775       4.06014327       3.39452133        4       0.00231497      -0.00163693      -0.00283525
In       4.65412149      -2.86949787       5.45677965        5       0.00231497       0.00327386      -0.00000000
In      -1.28646775       1.33113306       5.45677965        6       0.00231497       0.00327386       0.00000000
In      -1.68382687       7.07012881       1.81892655        7      -0.00231497      -0.00327386      -0.00000000
In       4.25676237       0.14048767       3.88118487        8      -0.00231497       0.00163693       0.00283525
In      -1.48514731       4.20063094      -0.00000000        9      -0.00000000       0.00000000      -0.00000000
In       4.25676237       6.44143407       0.24333177       10      -0.00231497       0.00163693       0.00283525
In      -1.28646775      -2.24080313       7.03237443       11       0.00231497      -0.00163693      -0.00283525
In       4.25676237       2.86949788       1.81892655       12      -0.00231497      -0.00327386       0.00000000
In       1.68382687       5.11030101       2.06225832       13       0.00231497      -0.00163693       0.00283525
In       4.45544193       0.00000000      -0.00000000       14       0.00000000       0.00000000      -0.00000000
In       1.48514731       2.10031547       3.63785310       15      -0.00000000      -0.00000000       0.00000000
O        0.86838947       4.19992916       3.95901516       16       0.01718111       0.00406617       0.00322087
O       -2.10190515       3.42895859       5.29680637       17       0.01718111       0.00075627      -0.00513184
O       -0.43873814       2.25292193       0.05805543       18       0.01027367       0.00564057      -0.01359169
O       -0.86838948      -0.77237411       1.98011533       19      -0.01718111       0.00482244      -0.00191097
O        3.93348821       5.00652337       1.92205990       20      -0.00501402      -0.01266960       0.01168072
O        2.00710102       2.93902445       1.65895327       21       0.00501402      -0.01645060      -0.00513184
O        2.00710102       6.26812986       0.26310663       22       0.00501402       0.00378100       0.01681255
O       -2.27032121       5.96361872       3.69590853       23      -0.00189342      -0.01156630      -0.01359169
O        3.40903276       1.94770901       7.21765077       24      -0.01027367      -0.00564057       0.01359169
O        5.24061583      -1.76298778       3.57979767       25       0.00189342       0.01156630       0.01359169
O        6.37932738       3.27705391       1.71579319       26      -0.01027367      -0.00895046      -0.01168072
O        3.67026803       2.31925679       3.90095973       27      -0.00189342      -0.00598759       0.01681255
O        0.69997341       4.31901730       6.95454414       28      -0.00189342       0.01755390      -0.00322087
O        2.27032121      -0.11838637       0.32116206       29       0.00189342      -0.01755390       0.00322087
O       -3.40903276       0.92357703       5.55991301       30       0.01027367       0.00895046       0.01168072
O        5.07219976       0.77167234       1.97889983       31      -0.01718111      -0.00075627       0.00513184
O        0.96319359       1.26160649       5.61675293       32      -0.00501402       0.01645060       0.00513184
O        3.40903276      -1.02413198       5.61796843       33      -0.01027367       0.01459103      -0.00191097
O        2.10190514       0.00070178       3.31669104       34      -0.01718111      -0.00406617      -0.00322087
O        0.96319359      -2.06749892       7.01259957       35      -0.00501402      -0.00378100      -0.01681255
O       -0.69997341       1.88137415       3.37474647       36       0.00189342       0.00598759      -0.01681255
O       -0.96319359      -0.80589243       5.35364629       37       0.00501402       0.01266960      -0.01168072
O       -0.43873814       5.22476292       1.65773776       38       0.01027367      -0.01459103       0.00191097
O        3.83868409       4.97300505       5.29559086       39       0.01718111      -0.00482244       0.00191097
40
Lattice="8.908218411884462 6.982012202010705e-10 -6.542425224547897e-16 -2.9694061379530905 8.398748862879748 -1.2093208702888362e-09 -2.9694061369656852 -4.199374430741669 7.2735298760657425" Properties=species:S:1:pos:R:3:spacegroup_kinds:I:1:forces:R:3 spacegroup="P 1" unit_cell=conventional occupancy="_JSON {\"0\": {\"In\": 1}, \"1\": {\"In\": 1}, \"2\": {\"In\": 1}, \"3\": {\"In\": 1}, \"4\": {\"In\": 1}, \"5\": {\"In\": 1}, \"6\": {\"In\": 1}, \"7\": {\"In\": 1}, \"8\": {\"In\": 1}, \"9\": {\"In\": 1}, \"10\": {\"In\": 1}, \"11\": {\"In\": 1}, \"12\": {\"In\": 1}, \"13\": {\"In\": 1}, \"14\": {\"In\": 1}, \"15\": {\"In\": 1}, \"16\": {\"O\": 1}, \"17\": {\"O\": 1}, \"18\": {\"O\": 1}, \"19\": {\"O\": 1}, \"20\": {\"O\": 1}, \"21\": {\"O\": 1}, \"22\": {\"O\": 1}, \"23\": {\"O\": 1}, \"24\": {\"O\": 1}, \"25\": {\"O\": 1}, \"26\": {\"O\": 1}, \"27\": {\"O\": 1}, \"28\": {\"O\": 1}, \"29\": {\"O\": 1}, \"30\": {\"O\": 1}, \"31\": {\"O\": 1}, \"32\": {\"O\": 1}, \"33\": {\"O\": 1}, \"34\": {\"O\": 1}, \"35\": {\"O\": 1}, \"36\": {\"O\": 1}, \"37\": {\"O\": 1}, \"38\": {\"O\": 1}, \"39\": {\"O\": 1}}" n_minim_iter=3 energy=-45151.90873230088 stress="-0.0008497841157029246 9.295470692484044e-14 -7.001753709232005e-14 9.295470692484044e-14 -0.0008497841157394979 2.390702084856446e-13 -7.001753709232005e-14 2.390702084856446e-13 -0.0008497841159206903" free_energy=-45151.90873230088 pbc="T T T"
In      -4.25509507       3.00880658       5.69888895        0       0.00819585      -0.00579534       0.01003782
In       7.22450121       1.19056786       1.57464092        1      -0.00819585       0.00579534      -0.01003782
In       1.28568893      -0.90911936       5.21140586        2      -0.00819585       0.00579534      -0.01003782
In      -1.48470307      -2.09968721       3.63676494        3       0.00000000      -0.00000000       0.00000000
In      -1.28568893       4.05865019       3.39302339        4       0.00819585      -0.00579534      -0.01003782
In       4.65312334      -2.86808233       5.45514740        5       0.00819585       0.01159068       0.00000000
In      -1.28568893       1.33129210       5.45514740        6       0.00819585       0.01159068       0.00000000
In      -1.68371721       7.06745677       1.81838247        7      -0.00819585      -0.01159068      -0.00000000
In       4.25509507       0.14072425       3.88050648        8      -0.00819585       0.00579534       0.01003782
In      -1.48470307       4.19937443      -0.00000000        9       0.00000000       0.00000000       0.00000000
In       4.25509507       6.43978589       0.24374154       10      -0.00819585       0.00579534       0.01003782
In      -1.28568893      -2.24041146       7.02978833       11       0.00819585      -0.00579534      -0.01003782
In       4.25509507       2.86808234       1.81838247       12      -0.00819585      -0.01159068      -0.00000000
In       1.68371720       5.10849380       2.06212401       13       0.00819585      -0.00579534       0.01003782
In       4.45410920       0.00000000      -0.00000000       14      -0.00000000       0.00000000      -0.00000000
In       1.48470307       2.09968722       3.63676494       15      -0.00000000       0.00000000      -0.00000000
O        0.87109811       4.19936794       3.95841726       16       0.00653838      -0.00617959      -0.00454672
O       -2.09830803       3.42809316       5.29432687       17       0.00653838      -0.00084779       0.00762504
O       -0.43681105       2.25323738       0.05570689       18      -0.00444601       0.00691935      -0.00582803
O       -0.87109811      -0.77128777       1.97921425       19      -0.00653838      -0.00702737       0.00307832
O        3.93147323       5.00282460       1.92350736       20      -0.00297876       0.00366256       0.00890635
O        2.00733904       2.93529328       1.65756193       21       0.00297876      -0.00588185       0.00762504
O        2.00733904       6.26690575       0.26594542       22       0.00297876       0.00954440       0.00128131
O       -2.26997625       5.95981193       3.69247183       23      -0.00800563       0.00188529      -0.00582803
O        3.40621718       1.94613706       7.21782298       24       0.00444601      -0.00691935       0.00582803
O        5.23938239      -1.76043749       3.58105804       25       0.00800563      -0.00188529       0.00582803
O        6.37562332       3.27454949       1.71325758       26       0.00444601      -0.00158755      -0.00890635
O        3.66883602       2.31755567       3.90271036       27      -0.00800563      -0.00598987       0.00128131
O        0.69942988       4.32075571       6.95187755       28      -0.00800563       0.00410458       0.00454672
O        2.26997625      -0.12138127       0.32165232       29       0.00800563      -0.00410458      -0.00454672
O       -3.40621719       0.92482494       5.56027229       30      -0.00444601       0.00158755       0.00890635
O        5.06771416       0.77128128       1.97920300       31      -0.00653838       0.00084779      -0.00762504
O        0.96206709       1.26408116       5.61596794       32      -0.00297876       0.00588185      -0.00762504
O        3.40621718      -1.02131211       5.61597919       33       0.00444601       0.00850690       0.00307832
O        2.09830802       0.00000650       3.31511261       34      -0.00653838       0.00617959       0.00454672
O        0.96206709      -2.06753132       7.00758445       35      -0.00297876      -0.00954440      -0.00128131
O       -0.69942989       1.88181877       3.37081951       36       0.00800563       0.00598987      -0.00128131
O       -0.96206709      -0.80345016       5.35002251       37       0.00297876      -0.00366256      -0.00890635
O       -0.43681105       5.22068655       1.65755068       38      -0.00444601      -0.00850690      -0.00307832
O        3.84050425       4.97066221       5.29431562       39       0.00653838       0.00702737      -0.00307832
40
Lattice="8.911682489476929 6.984727302818387e-10 -6.423058135580131e-16 -2.970560830484169 8.402014826554575 -1.2097911225693335e-09 -2.970560829496379 -4.201007412578811 7.276358283576296" Properties=species:S:1:pos:R:3:spacegroup_kinds:I:1:forces:R:3 spacegroup="P 1" unit_cell=conventional occupancy="_JSON {\"0\": {\"In\": 1}, \"1\": {\"In\": 1}, \"2\": {\"In\": 1}, \"3\": {\"In\": 1}, \"4\": {\"In\": 1}, \"5\": {\"In\": 1}, \"6\": {\"In\": 1}, \"7\": {\"In\": 1}, \"8\": {\"In\": 1}, \"9\": {\"In\": 1}, \"10\": {\"In\": 1}, \"11\": {\"In\": 1}, \"12\": {\"In\": 1}, \"13\": {\"In\": 1}, \"14\": {\"In\": 1}, \"15\": {\"In\": 1}, \"16\": {\"O\": 1}, \"17\": {\"O\": 1}, \"18\": {\"O\": 1}, \"19\": {\"O\": 1}, \"20\": {\"O\": 1}, \"21\": {\"O\": 1}, \"22\": {\"O\": 1}, \"23\": {\"O\": 1}, \"24\": {\"O\": 1}, \"25\": {\"O\": 1}, \"26\": {\"O\": 1}, \"27\": {\"O\": 1}, \"28\": {\"O\": 1}, \"29\": {\"O\": 1}, \"30\": {\"O\": 1}, \"31\": {\"O\": 1}, \"32\": {\"O\": 1}, \"33\": {\"O\": 1}, \"34\": {\"O\": 1}, \"35\": {\"O\": 1}, \"36\": {\"O\": 1}, \"37\": {\"O\": 1}, \"38\": {\"O\": 1}, \"39\": {\"O\": 1}}" n_minim_iter=4 energy=-45151.90921632411 stress="0.00018574977093411733 9.825650181171503e-14 -1.0418964345983719e-13 9.825650181171503e-14 0.00018574977112816526 -7.19731692973838e-14 -1.0418964345983719e-13 -7.19731692973838e-14 0.00018574977107943774" free_energy=-45151.90921632411 pbc="T T T"
In      -4.25623477       3.00961247       5.70173572        0       0.01022303      -0.00722878       0.01252061
In       7.22679559       1.19139495       1.57462256        1      -0.01022303       0.00722878      -0.01252061
In       1.28567393      -0.90910876       5.21280170        2      -0.01022303       0.00722878      -0.01252061
In      -1.48528042      -2.10050370       3.63817914        3      -0.00000000      -0.00000000       0.00000000
In      -1.28567394       4.05986432       3.39371213        4       0.01022303      -0.00722878      -0.01252061
In       4.65544772      -2.86846937       5.45726871        5       0.01022303       0.01445755      -0.00000000
In      -1.28567394       1.33253805       5.45726871        6       0.01022303       0.01445755       0.00000000
In      -1.68488690       7.06947678       1.81908957        7      -0.01022303      -0.01445755       0.00000000
In       4.25623476       0.14114310       3.88264615        8      -0.01022303       0.00722878       0.01252061
In      -1.48528042       4.20100741      -0.00000000        9      -0.00000000      -0.00000000       0.00000000
In       4.25623476       6.44265422       0.24446701       10      -0.01022303       0.00722878       0.01252061
In      -1.28567394      -2.24164680       7.03189127       11       0.01022303      -0.00722878      -0.01252061
In       4.25623476       2.86846937       1.81908957       12      -0.01022303      -0.01445755      -0.00000000
In       1.68488689       5.11011617       2.06355658       13       0.01022303      -0.00722878       0.01252061
In       4.45584124       0.00000000      -0.00000000       14       0.00000000      -0.00000000      -0.00000000
In       1.48528041       2.10050371       3.63817914       15       0.00000000       0.00000000      -0.00000000
O        0.87368076       4.20132406       3.96017886       16       0.00092437      -0.00862470      -0.01019388
O       -2.09688007       3.42945717       5.29599462       17       0.00092437      -0.00451581       0.01256615
O       -0.43589909       2.25496626       0.05391428       18      -0.01208086       0.00468028      -0.00336195
O       -0.87368076      -0.77123359       1.97981520       19      -0.00092437      -0.01314051       0.00237227
O        3.93228325       5.00336844       1.92590092       20      -0.00456567       0.01119949       0.00573422
O        2.00883841       2.93430880       1.65781548       21       0.00456567       0.00063376       0.01256615
O        2.00883841       6.27006705       0.26808543       22       0.00456567       0.01056572      -0.00683193
O       -2.27130227       5.96082530       3.69209342       23      -0.00843957       0.00982985      -0.00336195
O        3.40645991       1.94604116       7.22244400       24       0.01208086      -0.00468028       0.00336195
O        5.24186310      -1.75981788       3.58426485       25       0.00843957      -0.00982985       0.00336195
O        6.37702074       3.27467798       1.71227822       26       0.01208086      -0.00057139      -0.00573422
O        3.66981939       2.31753776       3.90626457       27      -0.00843957      -0.00782646      -0.00683193
O        0.69925856       4.32465919       6.95435856       28      -0.00843957      -0.00200339       0.01019388
O        2.27130227      -0.12365177       0.32199972       29       0.00843957       0.00200339      -0.01019388
O       -3.40645991       0.92632944       5.56408006       30      -0.01208086       0.00057139       0.00573422
O        5.06744090       0.77155024       1.98036365       31      -0.00092437       0.00451581      -0.01256615
O        0.96172242       1.26669861       5.61854279       32      -0.00456567      -0.00063376      -0.01256615
O        3.40645991      -1.01971172       5.61799434       33       0.01208087       0.00525168       0.00237227
O        2.09688007      -0.00031665       3.31617942       34      -0.00092437       0.00862470       0.01019388
O        0.96172242      -2.06905963       7.00827285       35      -0.00456567      -0.01056572       0.00683193
O       -0.69925856       1.88346966       3.37009371       36       0.00843957       0.00782646       0.00683193
O       -0.96172242      -0.80236102       5.35045736       37       0.00456567      -0.01119949      -0.00573422
O       -0.43589909       5.22071913       1.65836393       38      -0.01208086      -0.00525168      -0.00237227
O        3.84424159       4.97224101       5.29654308       39       0.00092437       0.01314051      -0.00237227
40
Lattice="8.91138614883513 6.984495062317103e-10 -6.508380371078569e-16 -2.9704620502702137 8.401735433918102 -1.2097508934101635e-09 -2.9704620492824567 -4.200867716260599 7.276116322455455" Properties=species:S:1:pos:R:3:spacegroup_kinds:I:1:forces:R:3 spacegroup="P 1" unit_cell=conventional occupancy="_JSON {\"0\": {\"In\": 1}, \"1\": {\"In\": 1}, \"2\": {\"In\": 1}, \"3\": {\"In\": 1}, \"4\": {\"In\": 1}, \"5\": {\"In\": 1}, \"6\": {\"In\": 1}, \"7\": {\"In\": 1}, \"8\": {\"In\": 1}, \"9\": {\"In\": 1}, \"10\": {\"In\": 1}, \"11\": {\"In\": 1}, \"12\": {\"In\": 1}, \"13\": {\"In\": 1}, \"14\": {\"In\": 1}, \"15\": {\"In\": 1}, \"16\": {\"O\": 1}, \"17\": {\"O\": 1}, \"18\": {\"O\": 1}, \"19\": {\"O\": 1}, \"20\": {\"O\": 1}, \"21\": {\"O\": 1}, \"22\": {\"O\": 1}, \"23\": {\"O\": 1}, \"24\": {\"O\": 1}, \"25\": {\"O\": 1}, \"26\": {\"O\": 1}, \"27\": {\"O\": 1}, \"28\": {\"O\": 1}, \"29\": {\"O\": 1}, \"30\": {\"O\": 1}, \"31\": {\"O\": 1}, \"32\": {\"O\": 1}, \"33\": {\"O\": 1}, \"34\": {\"O\": 1}, \"35\": {\"O\": 1}, \"36\": {\"O\": 1}, \"37\": {\"O\": 1}, \"38\": {\"O\": 1}, \"39\": {\"O\": 1}}" n_minim_iter=5 energy=-45151.909527623415 stress="-3.6124082565595394e-05 1.1492858944854936e-13 -1.1113023368787321e-13 1.1492858944854936e-13 -3.612408211386965e-05 5.979613218610838e-14 -1.1113023368787321e-13 5.979613218610838e-14 -3.612408221258186e-05" free_energy=-45151.909527623415 pbc="T T T"
In      -4.25505494       3.00877820       5.70281776        0       0.00117927      -0.00083387       0.00144430
In       7.22551699       1.19208952       1.57329855        1      -0.00117927       0.00083387      -0.00144430
In       1.28459289      -0.90834434       5.21135671        2      -0.00117927       0.00083387      -0.00144430
In      -1.48523103      -2.10043386       3.63805816        3      -0.00000000       0.00000000      -0.00000000
In      -1.28459289       4.05899513       3.39232763        4       0.00117927      -0.00083387      -0.00144430
In       4.65633121      -2.86690561       5.45708724        5       0.00117927       0.00166774       0.00000000
In      -1.28459289       1.33396210       5.45708724        6       0.00117927       0.00166774      -0.00000000
In      -1.68586916       7.06777334       1.81902908        7      -0.00117927      -0.00166774      -0.00000000
In       4.25505494       0.14187259       3.88378868        8      -0.00117927       0.00083387       0.00144430
In      -1.48523103       4.20086772      -0.00000000        9       0.00000000       0.00000000       0.00000000
In       4.25505494       6.44317416       0.24573052       10      -0.00117927       0.00083387       0.00144430
In      -1.28459289      -2.24230644       7.03038579       11       0.00117927      -0.00083387      -0.00144430
In       4.25505494       2.86690562       1.81902908       12      -0.00117927      -0.00166774       0.00000000
In       1.68586916       5.10921206       2.06475960       13       0.00117927      -0.00083387       0.00144430
In       4.45569307       0.00000000      -0.00000000       14      -0.00000000       0.00000000       0.00000000
In       1.48523102       2.10043386       3.63805816       15       0.00000000       0.00000000       0.00000000
O        0.87528657       4.20082734       3.95955174       16      -0.00088605       0.00026130       0.00057815
O       -2.09517548       3.42909259       5.29637542       17      -0.00088605       0.00037004      -0.00051537
O       -0.43591245       2.25581645       0.05243298       18       0.00029988      -0.00046855       0.00093710
O       -0.87528658      -0.77181551       1.97981084       19       0.00088605       0.00063134       0.00006278
O        3.93137132       5.00295542       1.92737786       20       0.00064423      -0.00009031      -0.00087432
O        2.00955278       2.93275338       1.65831726       21      -0.00064423       0.00071203      -0.00051537
O        2.00955277       6.27106976       0.26906060       22      -0.00064423      -0.00080234      -0.00035895
O       -2.27210830       5.96034496       3.69049114       23       0.00054171      -0.00012655       0.00093710
O        3.40637450       1.94505127       7.22368334       24      -0.00029988       0.00046855      -0.00093710
O        5.24257035      -1.75947724       3.58562518       25      -0.00054171       0.00012655      -0.00093710
O        6.37683655       3.27375038       1.71068029       26      -0.00029988       0.00057728       0.00087432
O        3.66881580       2.31632046       3.90711876       27       0.00054171       0.00087483      -0.00035895
O        0.69835375       4.32593774       6.95462273       28       0.00054171      -0.00074828      -0.00057815
O        2.27210830      -0.12507002       0.32149358       29      -0.00054171       0.00074828       0.00057815
O       -3.40637450       0.92711734       5.56543602       30       0.00029988      -0.00057728      -0.00087432
O        5.06563752       0.77177513       1.97974090       31       0.00088605      -0.00037004       0.00051537
O        0.96090927       1.26811434       5.61779906       32       0.00064423      -0.00071203       0.00051537
O        3.40637450      -1.01793392       5.61786900       33      -0.00029988      -0.00104582       0.00006278
O        2.09517547       0.00004038       3.31656457       34       0.00088605      -0.00026130      -0.00057815
O        0.96090927      -2.07020204       7.00705572       35       0.00064423       0.00080234       0.00035895
O       -0.69835375       1.88454726       3.36899755       36      -0.00054171      -0.00087483       0.00035895
O       -0.96090927      -0.80208770       5.34873846       37      -0.00064423       0.00009031       0.00087432
O       -0.43591245       5.21880164       1.65824731       38       0.00029988       0.00104582      -0.00006278
O        3.84574862       4.97268323       5.29630547       39      -0.00088605      -0.00063134      -0.00006278
