40
Lattice="9.469760854354877 7.422126297188715e-10 2.1339779087009918e-14 -3.156586952151391 8.92817615485826 -1.2855949492181537e-09 -3.1565869511017617 -4.464088076686886 7.732027360426765" Properties=species:S:1:pos:R:3:spacegroup_kinds:I:1:forces:R:3 spacegroup="P 1" unit_cell=conventional occupancy="_JSON {\"0\": {\"In\": 1}, \"1\": {\"In\": 1}, \"2\": {\"In\": 1}, \"3\": {\"In\": 1}, \"4\": {\"In\": 1}, \"5\": {\"In\": 1}, \"6\": {\"In\": 1}, \"7\": {\"In\": 1}, \"8\": {\"In\": 1}, \"9\": {\"In\": 1}, \"10\": {\"In\": 1}, \"11\": {\"In\": 1}, \"12\": {\"In\": 1}, \"13\": {\"In\": 1}, \"14\": {\"In\": 1}, \"15\": {\"In\": 1}, \"16\": {\"O\": 1}, \"17\": {\"O\": 1}, \"18\": {\"O\": 1}, \"19\": {\"O\": 1}, \"20\": {\"O\": 1}, \"21\": {\"O\": 1}, \"22\": {\"O\": 1}, \"23\": {\"O\": 1}, \"24\": {\"O\": 1}, \"25\": {\"O\": 1}, \"26\": {\"O\": 1}, \"27\": {\"O\": 1}, \"28\": {\"O\": 1}, \"29\": {\"O\": 1}, \"30\": {\"O\": 1}, \"31\": {\"O\": 1}, \"32\": {\"O\": 1}, \"33\": {\"O\": 1}, \"34\": {\"O\": 1}, \"35\": {\"O\": 1}, \"36\": {\"O\": 1}, \"37\": {\"O\": 1}, \"38\": {\"O\": 1}, \"39\": {\"O\": 1}}" n_minim_iter=1 energy=-45145.2389435448 stress="0.09996969912234482 4.0282507437900875e-14 7.877865524008119e-14 4.0282507437900875e-14 0.09996969912243035 1.1651262604457556e-13 7.877865524008119e-14 1.1651262604457556e-13 0.09996969912240222" free_energy=-45145.2389435448 pbc="T T T"
In      -4.49030681       3.17512640       6.09856080        0       0.02923663      -0.02067342       0.03580741
In       7.64689376       1.28896169       1.63346655        1      -0.02923663       0.02067342      -0.03580741
In       1.33371986      -0.94308235       5.49948023        2      -0.02923663       0.02067342      -0.03580741
In      -1.57829348      -2.23204404       3.86601368        3       0.00000000      -0.00000000       0.00000000
In      -1.33371986       4.29114842       3.56647339        4       0.02923663      -0.02067342      -0.03580741
In       4.97945404      -3.00218673       5.79902052        5       0.02923663       0.04134684      -0.00000000
In      -1.33371986       1.46190135       5.79902052        6       0.02923663       0.04134684      -0.00000000
In      -1.82286710       7.46627481       1.93300684        7      -0.02923663      -0.04134684       0.00000000
In       4.49030681       0.17293967       4.16555396        8      -0.02923663       0.02067342       0.03580741
In      -1.57829348       4.46408808      -0.00000000        9       0.00000000       0.00000000      -0.00000000
In       4.49030681       6.86907178       0.29954028       10      -0.02923663       0.02067342       0.03580741
In      -1.33371986      -2.40498370       7.43248707       11       0.02923663      -0.02067342      -0.03580741
In       4.49030681       3.00218673       1.93300684       12      -0.02923663      -0.04134684       0.00000000
In       1.82286709       5.40717044       2.23254712       13       0.02923663      -0.02067342       0.03580741
In       4.73488043       0.00000000      -0.00000000       14       0.00000000       0.00000000       0.00000000
In       1.57829347       2.23204404       3.86601368       15       0.00000000      -0.00000000       0.00000000
O        1.06973223       4.48353800       4.16729298       16       0.02906645       0.01322148      -0.04875622
O       -2.08685472       3.59925663       5.63153674       17       0.02906645      -0.04883486       0.01292798
O       -0.44045594       2.43507689      -0.08407216       18      -0.02388781      -0.01139055      -0.05192748
O       -1.06973224      -0.84538153       2.06680237       19      -0.02906645      -0.03561339      -0.03582824
O        4.08902993       5.26093053       2.15087452       20      -0.05573077       0.00563304       0.01609923
O        2.22414397       2.99979732       1.76552306       21       0.05573077      -0.01112582       0.01292798
O        2.22414397       6.72522128       0.38535146       22       0.05573077       0.01675887       0.00317126
O       -2.44263116       6.29970566       3.78194152       23       0.00277651       0.02631849      -0.05192748
O        3.59704289       2.02901119       7.81609951       24       0.02388781       0.01139055       0.05192748
O        5.59921811      -1.83561758       3.95008583       25      -0.00277651      -0.02631849       0.05192748
O        6.75362984       3.37677386       1.71513915       26       0.02388781      -0.05066579      -0.01609923
O        3.87054275       2.35744865       4.25136514       27       0.00277651      -0.05812976       0.00317126
O        0.71395579       4.73510993       7.43074805       28       0.00277651       0.03181127       0.04875622
O        2.44263115      -0.27102185       0.30127930       29      -0.00277651      -0.03181127      -0.04875622
O       -3.59704289       1.08731422       6.01688820       30      -0.02388781       0.05066579       0.01609923
O        5.24344166       0.86483145       2.10049061       31      -0.02906645       0.04883486      -0.01292798
O        0.93244298       1.46429076       5.96650429       32      -0.05573077       0.01112582      -0.01292798
O        3.59704289      -0.94169697       5.93281605       33       0.02388781       0.03927524      -0.03582824
O        2.08685471      -0.01944991       3.56473437       34      -0.02906645      -0.01322148       0.04875622
O        0.93244298      -2.26113320       7.34667590       35      -0.05573077      -0.01675887      -0.00317126
O       -0.71395580       2.10663944       3.48066222       36      -0.00277651       0.05812976      -0.00317126
O       -0.93244298      -0.79684245       5.58115283       37       0.05573077      -0.00563304      -0.01609923
O       -0.44045594       5.40578505       1.79921131       38      -0.02388781      -0.03927524       0.03582824
O        4.22631919       5.30946961       5.66522499       39       0.02906645       0.03561339       0.03582824
40
Lattice="9.46976085435487 7.422126297188711e-10 2.1339779087009912e-14 -3.156586952151389 8.928176154858255 -1.285594949218153e-09 -3.15658695110176 -4.464088076686883 7.732027360426761" Properties=species:S:1:pos:R:3:spacegroup_kinds:I:1:forces:R:3 spacegroup="P 1" unit_cell=conventional occupancy="_JSON {\"0\": {\"In\": 1}, \"1\": {\"In\": 1}, \"2\": {\"In\": 1}, \"3\": {\"In\": 1}, \"4\": {\"In\": 1}, \"5\": {\"In\": 1}, \"6\": {\"In\": 1}, \"7\": {\"In\": 1}, \"8\": {\"In\": 1}, \"9\": {\"In\": 1}, \"10\": {\"In\": 1}, \"11\": {\"In\": 1}, \"12\": {\"In\": 1}, \"13\": {\"In\": 1}, \"14\": {\"In\": 1}, \"15\": {\"In\": 1}, \"16\": {\"O\": 1}, \"17\": {\"O\": 1}, \"18\": {\"O\": 1}, \"19\": {\"O\": 1}, \"20\": {\"O\": 1}, \"21\": {\"O\": 1}, \"22\": {\"O\": 1}, \"23\": {\"O\": 1}, \"24\": {\"O\": 1}, \"25\": {\"O\": 1}, \"26\": {\"O\": 1}, \"27\": {\"O\": 1}, \"28\": {\"O\": 1}, \"29\": {\"O\": 1}, \"30\": {\"O\": 1}, \"31\": {\"O\": 1}, \"32\": {\"O\": 1}, \"33\": {\"O\": 1}, \"34\": {\"O\": 1}, \"35\": {\"O\": 1}, \"36\": {\"O\": 1}, \"37\": {\"O\": 1}, \"38\": {\"O\": 1}, \"39\": {\"O\": 1}}" n_minim_iter=2 energy=-45145.24786440549 stress="0.09868914123803482 -3.271903169928483e-14 -4.659624471862299e-14 -3.271903169928483e-14 0.098689141237859 -1.220350604372733e-13 -4.659624471862299e-14 -1.220350604372733e-13 0.09868914123786267" free_energy=-45145.24786440549 pbc="T T T"
In      -4.48563016       3.17181950       6.10428851        0      -0.00264465       0.00187005      -0.00323902
In       7.64221710       1.29226858       1.62773884        1       0.00264465      -0.00187005       0.00323902
In       1.32904320      -0.93977546       5.49375252        2       0.00264465      -0.00187005       0.00323902
In      -1.57829348      -2.23204404       3.86601368        3       0.00000000       0.00000000      -0.00000000
In      -1.32904321       4.28784152       3.56074568        4      -0.00264465       0.00187005       0.00323902
In       4.98413070      -2.99557294       5.79902052        5      -0.00264465      -0.00374010      -0.00000000
In      -1.32904321       1.46851514       5.79902052        6      -0.00264465      -0.00374010      -0.00000000
In      -1.82754375       7.45966102       1.93300684        7       0.00264465       0.00374010      -0.00000000
In       4.48563015       0.17624656       4.17128167        8       0.00264465      -0.00187005      -0.00323902
In      -1.57829348       4.46408808      -0.00000000        9      -0.00000000      -0.00000000      -0.00000000
In       4.48563015       6.87237868       0.30526799       10       0.00264465      -0.00187005      -0.00323902
In      -1.32904320      -2.40829059       7.42675937       11      -0.00264465       0.00187005       0.00323902
In       4.48563015       2.99557295       1.93300684       12       0.00264465       0.00374010       0.00000000
In       1.82754375       5.40386354       2.23827483       13      -0.00264465       0.00187005      -0.00323902
In       4.73488043       0.00000000      -0.00000000       14       0.00000000       0.00000000      -0.00000000
In       1.57829347       2.23204404       3.86601368       15      -0.00000000       0.00000000       0.00000000
O        1.07438167       4.48565289       4.15949400       16       0.02768836      -0.00755081       0.01408282
O       -2.08220528       3.59144507       5.63360469       17       0.02768836       0.01597149      -0.00050222
O       -0.44427700       2.43325487      -0.09237841       18       0.01716854       0.02341012      -0.01338631
O       -1.07438167      -0.85107820       2.06107133       19      -0.02768836       0.00842068       0.01358061
O        4.08011531       5.26183158       2.15344974       20       0.00582861      -0.01614926       0.02696691
O        2.23305859       2.99801765       1.76759101       21      -0.00582861      -0.03142866      -0.00050222
O        2.23305859       6.72790201       0.38585873       22      -0.00582861       0.01527940       0.02746913
O       -2.44218703       6.30391554       3.77363527       23      -0.01634843      -0.02399003      -0.01338631
O        3.60086395       2.03083321       7.82440577       24      -0.01716854      -0.02341012       0.01338631
O        5.59877398      -1.83982745       3.95839209       25       0.01634843       0.02399003       0.01338631
O        6.75745090       3.36866943       1.71256394       26      -0.01716854       0.00011218      -0.02696691
O        3.87098687       2.34815028       4.25187241       27      -0.01634843       0.00040213       0.02746913
O        0.71439992       4.74019842       7.43854704       28      -0.01634843       0.02358790      -0.01408282
O        2.44218703      -0.27611034       0.29348032       29       0.01634843      -0.02358790       0.01408282
O       -3.60086396       1.09541866       6.01946342       30       0.01716854      -0.00011218       0.02696691
O        5.23879223       0.87264301       2.09842267       31      -0.02768836      -0.01597149       0.00050222
O        0.92352835       1.46607043       5.96443635       32       0.00582861       0.03142866       0.00050222
O        3.60086395      -0.93541455       5.92708501       33      -0.01716854       0.02329794       0.01358061
O        2.08220528      -0.02156481       3.57253336       34      -0.02768836       0.00755081      -0.01408282
O        0.92352835      -2.26381393       7.34616863       35       0.00582861      -0.01527940      -0.02746913
O       -0.71439992       2.11593780       3.48015495       36       0.01634843      -0.00040213      -0.02746913
O       -0.92352836      -0.79774350       5.57857762       37      -0.00582861       0.01614926      -0.02696691
O       -0.44427700       5.39950263       1.80494235       38       0.01716854      -0.02329794      -0.01358061
O        4.23096862       5.31516628       5.67095603       39       0.02768836      -0.00842068      -0.01358061
40
Lattice="9.469760854354897 7.422126297188733e-10 2.133977908701001e-14 -3.1565869521513985 8.928176154858274 -1.2855949492181566e-09 -3.1565869511017692 -4.464088076686893 7.732027360426783" Properties=species:S:1:pos:R:3:spacegroup_kinds:I:1:forces:R:3 spacegroup="P 1" unit_cell=conventional occupancy="_JSON {\"0\": {\"In\": 1}, \"1\": {\"In\": 1}, \"2\": {\"In\": 1}, \"3\": {\"In\": 1}, \"4\": {\"In\": 1}, \"5\": {\"In\": 1}, \"6\": {\"In\": 1}, \"7\": {\"In\": 1}, \"8\": {\"In\": 1}, \"9\": {\"In\": 1}, \"10\": {\"In\": 1}, \"11\": {\"In\": 1}, \"12\": {\"In\": 1}, \"13\": {\"In\": 1}, \"14\": {\"In\": 1}, \"15\": {\"In\": 1}, \"16\": {\"O\": 1}, \"17\": {\"O\": 1}, \"18\": {\"O\": 1}, \"19\": {\"O\": 1}, \"20\": {\"O\": 1}, \"21\": {\"O\": 1}, \"22\": {\"O\": 1}, \"23\": {\"O\": 1}, \"24\": {\"O\": 1}, \"25\": {\"O\": 1}, \"26\": {\"O\": 1}, \"27\": {\"O\": 1}, \"28\": {\"O\": 1}, \"29\": {\"O\": 1}, \"30\": {\"O\": 1}, \"31\": {\"O\": 1}, \"32\": {\"O\": 1}, \"33\": {\"O\": 1}, \"34\": {\"O\": 1}, \"35\": {\"O\": 1}, \"36\": {\"O\": 1}, \"37\": {\"O\": 1}, \"38\": {\"O\": 1}, \"39\": {\"O\": 1}}" n_minim_iter=3 energy=-45145.252167680075 stress="0.09885280934887879 1.30480167535772e-13 5.908607185079904e-14 1.30480167535772e-13 0.09885280934889626 -1.397637691070064e-13 5.908607185079904e-14 -1.397637691070064e-13 0.09885280934928461" free_energy=-45145.252167680075 pbc="T T T"
In      -4.48638206       3.17235118       6.10336762        0       0.00829168      -0.00586310       0.01015519
In       7.64296901       1.29173690       1.62865974        1      -0.00829168       0.00586310      -0.01015519
In       1.32979511      -0.94030714       5.49467342        2      -0.00829168       0.00586310      -0.01015519
In      -1.57829348      -2.23204404       3.86601368        3       0.00000000      -0.00000000       0.00000000
In      -1.32979511       4.28837320       3.56166658        4       0.00829168      -0.00586310      -0.01015519
In       4.98337879      -2.99663630       5.79902052        5       0.00829168       0.01172620       0.00000000
In      -1.32979511       1.46745178       5.79902052        6       0.00829168       0.01172620       0.00000000
In      -1.82679184       7.46072438       1.93300684        7      -0.00829168      -0.01172620      -0.00000000
In       4.48638206       0.17571488       4.17036078        8      -0.00829168       0.00586310       0.01015519
In      -1.57829348       4.46408808      -0.00000000        9      -0.00000000       0.00000000       0.00000000
In       4.48638206       6.87184700       0.30434710       10      -0.00829168       0.00586310       0.01015519
In      -1.32979511      -2.40775892       7.42768026       11       0.00829168      -0.00586310      -0.01015519
In       4.48638206       2.99663630       1.93300684       12      -0.00829168      -0.01172620      -0.00000000
In       1.82679184       5.40439522       2.23735394       13       0.00829168      -0.00586310       0.01015519
In       4.73488043       0.00000000      -0.00000000       14      -0.00000000       0.00000000       0.00000000
In       1.57829347       2.23204404       3.86601368       15       0.00000000      -0.00000000      -0.00000000
O        1.08254351       4.48344537       4.16359034       16       0.02014090       0.01345431      -0.01721923
O       -2.07404344       3.59609636       5.63346828       17       0.02014090      -0.02163945      -0.00304216
O       -0.43925237       2.44012451      -0.09635710       18      -0.00100338      -0.00668818      -0.02893852
O       -1.08254351      -0.84863442       2.06503126       19      -0.02014090      -0.00818513      -0.02026139
O        4.08177997       5.25709070       2.16138836       20      -0.02711550      -0.00852253       0.00867713
O        2.23139392       2.98877216       1.76745460       21       0.02711550      -0.01177587      -0.00304216
O        2.23139392       6.73240662       0.39393376       22       0.02711550       0.00325335       0.01171929
O       -2.44698891       6.29688839       3.76965658       23       0.00597121       0.00317539      -0.02893852
O        3.59583932       2.02396357       7.82838446       24       0.00100338       0.00668818       0.02893852
O        5.60357586      -1.83280030       3.96237078       25      -0.00597121      -0.00317539       0.02893852
O        6.75242627       3.36865860       1.70462531       26       0.00100338      -0.02840558      -0.00867713
O        3.86618500       2.34821821       4.25994744       27       0.00597121      -0.02664919       0.01171929
O        0.70959804       4.74715764       7.43445069       28       0.00597121       0.02347379       0.01721923
O        2.44698890      -0.28306956       0.29757666       29      -0.00597121      -0.02347379      -0.01721923
O       -3.59583932       1.09542948       6.02740204       30      -0.00100338       0.02840558       0.00867713
O        5.23063039       0.86799172       2.09855908       31      -0.02014090       0.02163945       0.00304216
O        0.92519302       1.47531592       5.96457276       32      -0.02711550       0.01177587       0.00304216
O        3.59583932      -0.92853408       5.93104494       33       0.00100338       0.02171740      -0.02026139
O        2.07404344      -0.01935729       3.56843701       34      -0.02014090      -0.01345431       0.01721923
O        0.92519302      -2.26831854       7.33809359       35      -0.02711550      -0.00325335      -0.01171929
O       -0.70959805       2.11586987       3.47207991       36      -0.00597121       0.02664919      -0.01171929
O       -0.92519303      -0.79300262       5.57063899       37       0.02711550       0.00852253      -0.00867713
O       -0.43925237       5.39262217       1.80098241       38      -0.00100338      -0.02171740       0.02026139
O        4.23913046       5.31272250       5.66699609       39       0.02014090       0.00818513       0.02026139
40
Lattice="9.469760854354941 7.422126297188767e-10 2.133977908701006e-14 -3.156586952151413 8.928176154858315 -1.2855949492181624e-09 -3.156586951101784 -4.464088076686913 7.7320273604268195" Properties=species:S:1:pos:R:3:spacegroup_kinds:I:1:forces:R:3 spacegroup="P 1" unit_cell=conventional occupancy="_JSON {\"0\": {\"In\": 1}, \"1\": {\"In\": 1}, \"2\": {\"In\": 1}, \"3\": {\"In\": 1}, \"4\": {\"In\": 1}, \"5\": {\"In\": 1}, \"6\": {\"In\": 1}, \"7\": {\"In\": 1}, \"8\": {\"In\": 1}, \"9\": {\"In\": 1}, \"10\": {\"In\": 1}, \"11\": {\"In\": 1}, \"12\": {\"In\": 1}, \"13\": {\"In\": 1}, \"14\": {\"In\": 1}, \"15\": {\"In\": 1}, \"16\": {\"O\": 1}, \"17\": {\"O\": 1}, \"18\": {\"O\": 1}, \"19\": {\"O\": 1}, \"20\": {\"O\": 1}, \"21\": {\"O\": 1}, \"22\": {\"O\": 1}, \"23\": {\"O\": 1}, \"24\": {\"O\": 1}, \"25\": {\"O\": 1}, \"26\": {\"O\": 1}, \"27\": {\"O\": 1}, \"28\": {\"O\": 1}, \"29\": {\"O\": 1}, \"30\": {\"O\": 1}, \"31\": {\"O\": 1}, \"32\": {\"O\": 1}, \"33\": {\"O\": 1}, \"34\": {\"O\": 1}, \"35\": {\"O\": 1}, \"36\": {\"O\": 1}, \"37\": {\"O\": 1}, \"38\": {\"O\": 1}, \"39\": {\"O\": 1}}" n_minim_iter=4 energy=-45145.2567199055 stress="0.09782488686266601 -9.153736613831132e-14 1.994947713867277e-13 -9.153736613831132e-14 0.09782488686261998 1.4568575042540293e-13 1.994947713867277e-13 1.4568575042540293e-13 0.09782488686248912" free_energy=-45145.2567199055 pbc="T T T"
In      -4.48297789       3.16994407       6.10753686        0      -0.00705649       0.00498969      -0.00864240
In       7.63956484       1.29414402       1.62449049        1       0.00705649      -0.00498969       0.00864240
In       1.32639093      -0.93790002       5.49050417        2       0.00705649      -0.00498969       0.00864240
In      -1.57829348      -2.23204404       3.86601368        3       0.00000000      -0.00000000       0.00000000
In      -1.32639094       4.28596608       3.55749733        4      -0.00705649       0.00498969       0.00864240
In       4.98678297      -2.99182207       5.79902052        5      -0.00705649      -0.00997938      -0.00000000
In      -1.32639094       1.47226601       5.79902052        6      -0.00705649      -0.00997938      -0.00000000
In      -1.83019602       7.45591015       1.93300684        7       0.00705649       0.00997938      -0.00000000
In       4.48297788       0.17812200       4.17453002        8       0.00705649      -0.00498969      -0.00864240
In      -1.57829348       4.46408808      -0.00000000        9      -0.00000000       0.00000000      -0.00000000
In       4.48297788       6.87425411       0.30851634       10       0.00705649      -0.00498969      -0.00864240
In      -1.32639094      -2.41016603       7.42351101       11      -0.00705649       0.00498969       0.00864240
In       4.48297788       2.99182207       1.93300684       12       0.00705649       0.00997938       0.00000000
In       1.83019601       5.40198810       2.24152318       13      -0.00705649       0.00498969      -0.00864240
In       4.73488043       0.00000000      -0.00000000       14      -0.00000000      -0.00000000      -0.00000000
In       1.57829347       2.23204404       3.86601368       15       0.00000000       0.00000000      -0.00000000
O        1.10274519       4.48189256       4.16302376       16      -0.00196918       0.03362899      -0.00580084
O       -2.05384176       3.59638210       5.63509634       17      -0.00196918      -0.02183817      -0.02622314
O       -0.43371309       2.45077813      -0.11268674       18       0.01046010      -0.03062700      -0.01100045
O       -1.10274520      -0.84990150       2.06609275       19       0.00196918       0.01179082      -0.03202398
O        4.07531548       5.24892986       2.17877948       20      -0.01993283      -0.01814193      -0.02102353
O        2.23785842       2.96963059       1.76908266       21       0.01993283       0.00913595      -0.02622314
O        2.23785842       6.74338735       0.40969682       22       0.01993283      -0.02727788       0.00519961
O       -2.45518681       6.28811469       3.75332694       23       0.03236211       0.00034712      -0.01100045
O        3.59030004       2.01330995       7.84471409       24      -0.01046010       0.03062700       0.01100045
O        5.61177376      -1.82402661       3.97870041       25      -0.03236211      -0.00034712       0.01100045
O        6.74688699       3.35984353       1.68723419       26      -0.01046010      -0.02484017       0.02102353
O        3.85798709       2.33846318       4.27571050       27       0.03236211      -0.00970023       0.00519961
O        0.70140014       4.76568637       7.43501727       28       0.03236211       0.00935311       0.00580084
O        2.45518681      -0.30159828       0.29701008       29      -0.03236211      -0.00935311      -0.00580084
O       -3.59030004       1.10424455       6.04479316       30       0.01046010       0.02484017      -0.02102353
O        5.21042871       0.86770598       2.09693101       31       0.00196918       0.02183817       0.02622314
O        0.91872853       1.49445750       5.96294469       32      -0.01993283      -0.00913595       0.02622314
O        3.59030004      -0.90906540       5.93210643       33      -0.01046010      -0.00578683      -0.03202398
O        2.05384176      -0.01780448       3.56900359       34       0.00196918      -0.03362899       0.00580084
O        0.91872853      -2.27929927       7.32233054       35      -0.01993283       0.02727788      -0.00519961
O       -0.70140015       2.12562490       3.45631686       36      -0.03236211       0.00970023      -0.00519961
O       -0.91872853      -0.78484178       5.55324787       37       0.01993283       0.01814193       0.02102353
O       -0.43371309       5.37315348       1.79992093       38       0.01046010       0.00578683       0.03202398
O        4.25933214       5.31398958       5.66593461       39      -0.00196918      -0.01179082       0.03202398
40
Lattice="9.46976085435493 7.422126297188758e-10 2.1339779087009947e-14 -3.1565869521514096 8.928176154858306 -1.285594949218161e-09 -3.1565869511017803 -4.464088076686909 7.732027360426811" Properties=species:S:1:pos:R:3:spacegroup_kinds:I:1:forces:R:3 spacegroup="P 1" unit_cell=conventional occupancy="_JSON {\"0\": {\"In\": 1}, \"1\": {\"In\": 1}, \"2\": {\"In\": 1}, \"3\": {\"In\": 1}, \"4\": {\"In\": 1}, \"5\": {\"In\": 1}, \"6\": {\"In\": 1}, \"7\": {\"In\": 1}, \"8\": {\"In\": 1}, \"9\": {\"In\": 1}, \"10\": {\"In\": 1}, \"11\": {\"In\": 1}, \"12\": {\"In\": 1}, \"13\": {\"In\": 1}, \"14\": {\"In\": 1}, \"15\": {\"In\": 1}, \"16\": {\"O\": 1}, \"17\": {\"O\": 1}, \"18\": {\"O\": 1}, \"19\": {\"O\": 1}, \"20\": {\"O\": 1}, \"21\": {\"O\": 1}, \"22\": {\"O\": 1}, \"23\": {\"O\": 1}, \"24\": {\"O\": 1}, \"25\": {\"O\": 1}, \"26\": {\"O\": 1}, \"27\": {\"O\": 1}, \"28\": {\"O\": 1}, \"29\": {\"O\": 1}, \"30\": {\"O\": 1}, \"31\": {\"O\": 1}, \"32\": {\"O\": 1}, \"33\": {\"O\": 1}, \"34\": {\"O\": 1}, \"35\": {\"O\": 1}, \"36\": {\"O\": 1}, \"37\": {\"O\": 1}, \"38\": {\"O\": 1}, \"39\": {\"O\": 1}}" n_minim_iter=5 energy=-45145.25741460424 stress="0.0978508157500021 -5.599987382919622e-14 5.734429265947361e-14 -5.599987382919622e-14 0.09785081574969391 1.6901531261240505e-13 5.734429265947361e-14 1.6901531261240505e-13 0.09785081574969977" free_energy=-45145.25741460424 pbc="T T T"
In      -4.48330570       3.17017586       6.10713538        0      -0.00772980       0.00546579      -0.00946703
In       7.63989264       1.29391222       1.62489197        1       0.00772980      -0.00546579       0.00946703
In       1.32671874      -0.93813182       5.49090565        2       0.00772980      -0.00546579       0.00946703
In      -1.57829348      -2.23204404       3.86601368        3      -0.00000000      -0.00000000       0.00000000
In      -1.32671874       4.28619788       3.55789881        4      -0.00772980       0.00546579       0.00946703
In       4.98645516      -2.99228566       5.79902052        5      -0.00772980      -0.01093159       0.00000000
In      -1.32671874       1.47180242       5.79902052        6      -0.00772980      -0.01093159      -0.00000000
In      -1.82986821       7.45637374       1.93300684        7       0.00772980       0.01093159      -0.00000000
In       4.48330569       0.17789020       4.17412854        8       0.00772980      -0.00546579      -0.00946703
In      -1.57829348       4.46408808      -0.00000000        9      -0.00000000       0.00000000      -0.00000000
In       4.48330569       6.87402232       0.30811486       10       0.00772980      -0.00546579      -0.00946703
In      -1.32671874      -2.40993424       7.42391249       11      -0.00772980       0.00546579       0.00946703
In       4.48330569       2.99228566       1.93300684       12       0.00772980       0.01093159       0.00000000
In       1.82986821       5.40221990       2.24112170       13      -0.00772980       0.00546579      -0.00946703
In       4.73488043       0.00000000      -0.00000000       14       0.00000000       0.00000000      -0.00000000
In       1.57829347       2.23204404       3.86601368       15      -0.00000000      -0.00000000       0.00000000
O        1.09793734       4.48302745       4.16197293       16       0.00519306       0.01976858       0.00063128
O       -2.05864961       3.59490461       5.63463892       17       0.00519306      -0.00933759      -0.01743573
O       -0.43563872       2.44726260      -0.10961418       18       0.01156545      -0.01384355      -0.00963118
O       -1.09793735      -0.85024410       2.06458449       19      -0.00519306       0.01043099      -0.01680446
O        4.07552510       5.25104641       2.17419866       20      -0.01053458      -0.01599155      -0.00717328
O        2.23764880       2.97465597       1.76862524       21       0.01053458      -0.00178354      -0.01743573
O        2.23764880       6.74047852       0.40557342       22       0.01053458      -0.01420802       0.01026245
O       -2.45251421       6.29110204       3.75639950       23       0.01690698      -0.00628950      -0.00963118
O        3.59222567       2.01682548       7.84164153       24      -0.01156545       0.01384355       0.00963118
O        5.60910116      -1.82701396       3.97562785       25      -0.01690698       0.00628950       0.00963118
O        6.74881262       3.36074668       1.69181501       26      -0.01156545      -0.01526262       0.00717328
O        3.86065969       2.33963042       4.27158710       27       0.01690698      -0.00519610       0.01026245
O        0.70407274       4.76153178       7.43606811       28       0.01690698       0.01148559      -0.00063128
O        2.45251421      -0.29744370       0.29595925       29      -0.01690698      -0.01148559       0.00063128
O       -3.59222567       1.10334140       6.04021234       30       0.01156545       0.01526262      -0.00717328
O        5.21523656       0.86918348       2.09738844       31      -0.00519306       0.00933759       0.01743573
O        0.91893815       1.48943211       5.96340212       32      -0.01053458       0.00178354       0.01743573
O        3.59222567      -0.91348408       5.93059817       33      -0.01156545       0.00141907      -0.01680446
O        2.05864960      -0.01893937       3.57005443       34      -0.00519306      -0.01976858      -0.00063128
O        0.91893815      -2.27639044       7.32645393       35      -0.01053458       0.01420802      -0.01026245
O       -0.70407274       2.12445766       3.46044025       36      -0.01690698       0.00519610      -0.01026245
O       -0.91893815      -0.78695833       5.55782869       37       0.01053458       0.01599155       0.00717328
O       -0.43563872       5.37757216       1.80142918       38       0.01156545      -0.00141907       0.01680446
O        4.25452429       5.31433219       5.66744286       39       0.00519306      -0.01043099       0.01680446
40