40
Lattice="9.268215084580383 7.264174618973564e-10 8.874107980912625e-15 -3.0894050288783346 8.738156980827513 -1.258212637507005e-09 -3.0894050278510337 -4.369078489687323 7.56746592849176" Properties=species:S:1:pos:R:3:spacegroup_kinds:I:1:forces:R:3 spacegroup="P 1" unit_cell=conventional occupancy="_JSON {\"0\": {\"In\": 1}, \"1\": {\"In\": 1}, \"2\": {\"In\": 1}, \"3\": {\"In\": 1}, \"4\": {\"In\": 1}, \"5\": {\"In\": 1}, \"6\": {\"In\": 1}, \"7\": {\"In\": 1}, \"8\": {\"In\": 1}, \"9\": {\"In\": 1}, \"10\": {\"In\": 1}, \"11\": {\"In\": 1}, \"12\": {\"In\": 1}, \"13\": {\"In\": 1}, \"14\": {\"In\": 1}, \"15\": {\"In\": 1}, \"16\": {\"O\": 1}, \"17\": {\"O\": 1}, \"18\": {\"O\": 1}, \"19\": {\"O\": 1}, \"20\": {\"O\": 1}, \"21\": {\"O\": 1}, \"22\": {\"O\": 1}, \"23\": {\"O\": 1}, \"24\": {\"O\": 1}, \"25\": {\"O\": 1}, \"26\": {\"O\": 1}, \"27\": {\"O\": 1}, \"28\": {\"O\": 1}, \"29\": {\"O\": 1}, \"30\": {\"O\": 1}, \"31\": {\"O\": 1}, \"32\": {\"O\": 1}, \"33\": {\"O\": 1}, \"34\": {\"O\": 1}, \"35\": {\"O\": 1}, \"36\": {\"O\": 1}, \"37\": {\"O\": 1}, \"38\": {\"O\": 1}, \"39\": {\"O\": 1}}" n_minim_iter=1 energy=-45148.881112380994 stress="0.07964949151017678 1.6226194846359454e-14 -6.977768519480257e-14 1.6226194846359454e-14 0.07964949151019819 -1.5170473312980076e-13 -6.977768519480257e-14 -1.5170473312980076e-13 0.07964949151024325" free_energy=-45148.881112380994 pbc="T T T"
In      -4.40510844       3.11488205       5.95606492        0       0.01129069      -0.00798372       0.01382822
In       7.49451346       1.25419644       1.61140100        1      -0.01129069       0.00798372      -0.01382822
In       1.31570341      -0.93034280       5.39513396        2      -0.01129069       0.00798372      -0.01382822
In      -1.54470252      -2.18453924       3.78373296        3       0.00000000      -0.00000000      -0.00000000
In      -1.31570341       4.20715167       3.50326748        4       0.01129069      -0.00798372      -0.01382822
In       4.86310665      -2.95295523       5.67559944        5       0.01129069       0.01596745       0.00000000
In      -1.31570341       1.41612326       5.67559944        6       0.01129069       0.01596745      -0.00000000
In      -1.77370162       7.32203372       1.89186648        7      -0.01129069      -0.01596745       0.00000000
In       4.40510844       0.16192682       4.06419844        8      -0.01129069       0.00798372       0.01382822
In      -1.54470252       4.36907849      -0.00000000        9      -0.00000000      -0.00000000       0.00000000
In       4.40510844       6.71554456       0.28046548       10      -0.01129069       0.00798372       0.01382822
In      -1.31570341      -2.34646606       7.28700045       11       0.01129069      -0.00798372      -0.01382822
In       4.40510844       2.95295523       1.89186648       12      -0.01129069      -0.01596745       0.00000000
In       1.77370162       5.29942130       2.17233196       13       0.01129069      -0.00798372       0.01382822
In       4.63410754       0.00000000      -0.00000000       14      -0.00000000       0.00000000      -0.00000000
In       1.54470251       2.18453925       3.78373296       15       0.00000000       0.00000000      -0.00000000
O        0.97589522       4.38011812       4.10121935       16       0.02207682       0.01573913      -0.06004150
O       -2.11350981       3.54624034       5.50729565       17       0.02207682      -0.05986703       0.01639026
O       -0.44007259       2.36294153      -0.01063662       18      -0.03424524      -0.02004131      -0.05258989
O       -0.97589522      -0.81179852       2.04104908       19      -0.02207682      -0.04412790      -0.04365123
O        4.04793072       5.17473596       2.05168569       20      -0.06380211       0.01376511       0.00893866
O        2.13087933       2.99509529       1.72356268       21       0.06380211      -0.00085855       0.01639026
O        2.13087933       6.54871916       0.32812301       22       0.06380211       0.01462366      -0.00745160
O       -2.37449350       6.18087497       3.77309634       23       0.00748005       0.03896716      -0.05258989
O        3.52947761       2.00613697       7.57810254       24       0.03424524       0.02004131       0.05258989
O        5.46389852      -1.81179648       3.79436958       25      -0.00748005      -0.03896716       0.05258989
O        6.61888264       3.35679843       1.73204726       26       0.03424524      -0.05556484      -0.00893866
O        3.80431656       2.36169905       4.11185597       27       0.00748005      -0.06502776      -0.00745160
O        0.71491153       4.56466146       7.24997953       28       0.00748005       0.02606060       0.06004150
O        2.37449350      -0.19558296       0.31748639       29      -0.00748005      -0.02606060      -0.06004150
O       -3.52947761       1.01228007       5.83541866       30      -0.03424524       0.05556484       0.00893866
O        5.20291484       0.82283816       2.06017027       31      -0.02207682       0.05986703      -0.01639026
O        0.95852569       1.37398320       5.84390324       32      -0.06380211       0.00085855      -0.01639026
O        3.52947761      -0.99385690       5.82478204       33       0.03424524       0.03552353      -0.04365123
O        2.11350981      -0.01103963       3.46624657       34      -0.02207682      -0.01573913       0.06004150
O        0.95852569      -2.17964067       7.23934291       35      -0.06380211      -0.01462366       0.00745160
O       -0.71491153       2.00737945       3.45560995       36      -0.00748005       0.06502776       0.00745160
O       -0.95852570      -0.80565747       5.51578023       37       0.06380211      -0.01376511      -0.00893866
O       -0.44007259       5.36293539       1.74268388       38      -0.03424524      -0.03552353       0.04365123
O        4.06530024       5.18087702       5.52641684       39       0.02207682       0.04412790       0.04365123
40
Lattice="9.26821508458038 7.264174618973563e-10 8.874107980912623e-15 -3.089405028878334 8.73815698082751 -1.2582126375070047e-09 -3.089405027851033 -4.369078489687321 7.56746592849176" Properties=species:S:1:pos:R:3:spacegroup_kinds:I:1:forces:R:3 spacegroup="P 1" unit_cell=conventional occupancy="_JSON {\"0\": {\"In\": 1}, \"1\": {\"In\": 1}, \"2\": {\"In\": 1}, \"3\": {\"In\": 1}, \"4\": {\"In\": 1}, \"5\": {\"In\": 1}, \"6\": {\"In\": 1}, \"7\": {\"In\": 1}, \"8\": {\"In\": 1}, \"9\": {\"In\": 1}, \"10\": {\"In\": 1}, \"11\": {\"In\": 1}, \"12\": {\"In\": 1}, \"13\": {\"In\": 1}, \"14\": {\"In\": 1}, \"15\": {\"In\": 1}, \"16\": {\"O\": 1}, \"17\": {\"O\": 1}, \"18\": {\"O\": 1}, \"19\": {\"O\": 1}, \"20\": {\"O\": 1}, \"21\": {\"O\": 1}, \"22\": {\"O\": 1}, \"23\": {\"O\": 1}, \"24\": {\"O\": 1}, \"25\": {\"O\": 1}, \"26\": {\"O\": 1}, \"27\": {\"O\": 1}, \"28\": {\"O\": 1}, \"29\": {\"O\": 1}, \"30\": {\"O\": 1}, \"31\": {\"O\": 1}, \"32\": {\"O\": 1}, \"33\": {\"O\": 1}, \"34\": {\"O\": 1}, \"35\": {\"O\": 1}, \"36\": {\"O\": 1}, \"37\": {\"O\": 1}, \"38\": {\"O\": 1}, \"39\": {\"O\": 1}}" n_minim_iter=2 energy=-45148.88858782566 stress="0.0784979632768688 -1.8964162137991475e-13 -3.136678935482896e-14 -1.8964162137991475e-13 0.07849796327699397 1.1413929763390535e-14 -3.136678935482896e-14 1.1413929763390535e-14 0.07849796327700546" free_energy=-45148.88858782566 pbc="T T T"
In      -4.40355202       3.11378149       5.95797114        0      -0.00604265       0.00427280      -0.00740070
In       7.49295704       1.25529700       1.60949478        1       0.00604265      -0.00427280       0.00740070
In       1.31414699      -0.92924224       5.39322775        2       0.00604265      -0.00427280       0.00740070
In      -1.54470252      -2.18453924       3.78373296        3       0.00000000      -0.00000000       0.00000000
In      -1.31414699       4.20605112       3.50136126        4      -0.00604265       0.00427280       0.00740070
In       4.86466307      -2.95075411       5.67559944        5      -0.00604265      -0.00854560       0.00000000
In      -1.31414699       1.41832438       5.67559944        6      -0.00604265      -0.00854560      -0.00000000
In      -1.77525804       7.31983261       1.89186648        7       0.00604265       0.00854560      -0.00000000
In       4.40355201       0.16302738       4.06610466        8       0.00604265      -0.00427280      -0.00740070
In      -1.54470252       4.36907849      -0.00000000        9      -0.00000000      -0.00000000      -0.00000000
In       4.40355201       6.71664511       0.28237169       10       0.00604265      -0.00427280      -0.00740070
In      -1.31414699      -2.34756662       7.28509423       11      -0.00604265       0.00427280       0.00740070
In       4.40355201       2.95075412       1.89186648       12       0.00604265       0.00854560       0.00000000
In       1.77525804       5.29832074       2.17423818       13      -0.00604265       0.00427280      -0.00740070
In       4.63410754       0.00000000      -0.00000000       14       0.00000000      -0.00000000       0.00000000
In       1.54470251       2.18453925       3.78373296       15       0.00000000      -0.00000000      -0.00000000
O        0.97893851       4.38228776       4.09294264       16       0.02143822       0.00073662       0.00708639
O       -2.11046652       3.53798767       5.50955504       17       0.02143822       0.00576868      -0.00418113
O       -0.44479329       2.36017883      -0.01788613       18       0.01327933       0.01153789      -0.01417368
O       -0.97893851      -0.81788155       2.03503176       19      -0.02143822       0.00650530       0.00290526
O        4.03913560       5.17663348       2.05291789       20      -0.00170730      -0.01468848       0.01707894
O        2.13967445       2.99497694       1.72582208       21       0.00170730      -0.02213504      -0.00418113
O        2.13967445       6.55073503       0.32709581       22       0.00170730       0.00744656       0.02126007
O       -2.37346237       6.18624659       3.76584683       23      -0.00645158      -0.01636584      -0.01417368
O        3.53419832       2.00889966       7.58535206       24      -0.01327933      -0.01153789       0.01417368
O        5.46286740      -1.81716810       3.80161909       25       0.00645158       0.01636584       0.01417368
O        6.62360334       3.34913882       1.73081507       26      -0.01327933      -0.00650582      -0.01707894
O        3.80534768       2.35273497       4.11082877       27      -0.00645158      -0.00409185       0.02126007
O        0.71594265       4.56825391       7.25825625       28      -0.00645158       0.02045769      -0.00708639
O        2.37346237      -0.19917541       0.30920967       29       0.00645158      -0.02045769       0.00708639
O       -3.53419832       1.01993968       5.83665085       30       0.01327933       0.00650582       0.01707894
O        5.19987155       0.83109082       2.05791088       31      -0.02143822      -0.00576868       0.00418113
O        0.94973057       1.37410155       5.84164384       32      -0.00170730       0.02213504       0.00418113
O        3.53419832      -0.98895998       5.81876472       33      -0.01327933       0.01804371       0.00290526
O        2.11046652      -0.01320926       3.47452329       34      -0.02143822      -0.00073662      -0.00708639
O        0.94973057      -2.18165654       7.24037012       35      -0.00170730      -0.00744656      -0.02126007
O       -0.71594266       2.01634352       3.45663715       36       0.00645158       0.00409185      -0.02126007
O       -0.94973058      -0.80755499       5.51454803       37       0.00170730       0.01468848      -0.01707894
O       -0.44479329       5.35803848       1.74870120       38       0.01327933      -0.01804371      -0.00290526
O        4.06834353       5.18696005       5.53243416       39       0.02143822      -0.00650530      -0.00290526
40
Lattice="9.268215084580378 7.264174618973565e-10 8.874107980912622e-15 -3.089405028878335 8.738156980827508 -1.2582126375070053e-09 -3.089405027851034 -4.36907848968732 7.567465928491763" Properties=species:S:1:pos:R:3:spacegroup_kinds:I:1:forces:R:3 spacegroup="P 1" unit_cell=conventional occupancy="_JSON {\"0\": {\"In\": 1}, \"1\": {\"In\": 1}, \"2\": {\"In\": 1}, \"3\": {\"In\": 1}, \"4\": {\"In\": 1}, \"5\": {\"In\": 1}, \"6\": {\"In\": 1}, \"7\": {\"In\": 1}, \"8\": {\"In\": 1}, \"9\": {\"In\": 1}, \"10\": {\"In\": 1}, \"11\": {\"In\": 1}, \"12\": {\"In\": 1}, \"13\": {\"In\": 1}, \"14\": {\"In\": 1}, \"15\": {\"In\": 1}, \"16\": {\"O\": 1}, \"17\": {\"O\": 1}, \"18\": {\"O\": 1}, \"19\": {\"O\": 1}, \"20\": {\"O\": 1}, \"21\": {\"O\": 1}, \"22\": {\"O\": 1}, \"23\": {\"O\": 1}, \"24\": {\"O\": 1}, \"25\": {\"O\": 1}, \"26\": {\"O\": 1}, \"27\": {\"O\": 1}, \"28\": {\"O\": 1}, \"29\": {\"O\": 1}, \"30\": {\"O\": 1}, \"31\": {\"O\": 1}, \"32\": {\"O\": 1}, \"33\": {\"O\": 1}, \"34\": {\"O\": 1}, \"35\": {\"O\": 1}, \"36\": {\"O\": 1}, \"37\": {\"O\": 1}, \"38\": {\"O\": 1}, \"39\": {\"O\": 1}}" n_minim_iter=3 energy=-45148.890828213436 stress="0.07844069401627837 -2.6160948295203557e-14 -2.2204831540950193e-14 -2.6160948295203557e-14 0.07844069401608929 -2.459883593715548e-13 -2.2204831540950193e-14 -2.459883593715548e-13 0.07844069401600876" free_energy=-45148.890828213436 pbc="T T T"
In      -4.40520854       3.11495283       5.95594232        0       0.01148605      -0.00812186       0.01406748
In       7.49461357       1.25412566       1.61152360        1      -0.01148605       0.00812186      -0.01406748
In       1.31580351      -0.93041358       5.39525657        2      -0.01148605       0.00812186      -0.01406748
In      -1.54470252      -2.18453924       3.78373296        3      -0.00000000      -0.00000000       0.00000000
In      -1.31580351       4.20722246       3.50339008        4       0.01148605      -0.00812186      -0.01406748
In       4.86300654      -2.95309679       5.67559944        5       0.01148605       0.01624373       0.00000000
In      -1.31580351       1.41598170       5.67559944        6       0.01148605       0.01624373       0.00000000
In      -1.77360152       7.32217529       1.89186648        7      -0.01148605      -0.01624373      -0.00000000
In       4.40520854       0.16185604       4.06407584        8      -0.01148605       0.00812186       0.01406748
In      -1.54470252       4.36907849      -0.00000000        9       0.00000000      -0.00000000      -0.00000000
In       4.40520854       6.71547377       0.28034287       10      -0.01148605       0.00812186       0.01406748
In      -1.31580351      -2.34639528       7.28712305       11       0.01148605      -0.00812186      -0.01406748
In       4.40520854       2.95309680       1.89186648       12      -0.01148605      -0.01624373      -0.00000000
In       1.77360151       5.29949208       2.17220936       13       0.01148605      -0.00812186       0.01406748
In       4.63410754       0.00000000      -0.00000000       14      -0.00000000      -0.00000000      -0.00000000
In       1.54470251       2.18453925       3.78373296       15       0.00000000       0.00000000       0.00000000
O        0.98558189       4.38270079       4.09430807       16       0.00910325      -0.00321566      -0.00850127
O       -2.10382314       3.53896365       5.50851463       17       0.00910325      -0.00575448       0.00703548
O       -0.44126925       2.36336053      -0.02274695       18      -0.00542272       0.00451692      -0.01075512
O       -0.98558190      -0.81649254       2.03535678       19      -0.00910325      -0.00897014      -0.00146579
O        4.03784130       5.17243807       2.05810373       20      -0.00845979       0.00276067       0.00928933
O        2.14096875       2.98838817       1.72478167       21       0.00845979      -0.00666446       0.00703548
O        2.14096875       6.55312840       0.33332206       22       0.00845979       0.00942513       0.00225386
O       -2.37528743       6.18186354       3.76098601       23      -0.00606617       0.00360694      -0.01075512
O        3.53067428       2.00571797       7.59021288       24       0.00542272      -0.00451692       0.01075512
O        5.46469245      -1.81278504       3.80647991       25       0.00606617      -0.00360694       0.01075512
O        6.62007931       3.34652007       1.72562923       26       0.00542272      -0.00705575      -0.00928933
O        3.80352263       2.35071691       4.11705502       27      -0.00606617      -0.01111768       0.00225386
O        0.71411760       4.57465503       7.25689082       28      -0.00606617       0.00751074       0.00850127
O        2.37528742      -0.20557654       0.31057511       29       0.00606617      -0.00751074      -0.00850127
O       -3.53067428       1.02255842       5.84183669       30      -0.00542272       0.00705575       0.00928933
O        5.19322816       0.83011484       2.05895129       31      -0.00910325       0.00575448      -0.00703548
O        0.94843628       1.38069033       5.84268425       32      -0.00845979       0.00666446      -0.00703548
O        3.53067428      -0.98315954       5.81908974       33       0.00542272       0.01157267      -0.00146579
O        2.10382313      -0.01362230       3.47315785       34      -0.00910325       0.00321566       0.00850127
O        0.94843628      -2.18404990       7.23414387       35      -0.00845979      -0.00942513      -0.00225386
O       -0.71411761       2.01836158       3.45041090       36       0.00606617       0.01111768      -0.00225386
O       -0.94843628      -0.80335958       5.50936220       37       0.00845979      -0.00276067      -0.00928933
O       -0.44126925       5.35223804       1.74837618       38      -0.00542272      -0.01157267       0.00146579
O        4.07498692       5.18557103       5.53210915       39       0.00910325       0.00897014       0.00146579
40
Lattice="9.268215084580378 7.264174618973566e-10 8.874107980912617e-15 -3.0894050288783355 8.738156980827508 -1.2582126375070053e-09 -3.0894050278510345 -4.36907848968732 7.567465928491764" Properties=species:S:1:pos:R:3:spacegroup_kinds:I:1:forces:R:3 spacegroup="P 1" unit_cell=conventional occupancy="_JSON {\"0\": {\"In\": 1}, \"1\": {\"In\": 1}, \"2\": {\"In\": 1}, \"3\": {\"In\": 1}, \"4\": {\"In\": 1}, \"5\": {\"In\": 1}, \"6\": {\"In\": 1}, \"7\": {\"In\": 1}, \"8\": {\"In\": 1}, \"9\": {\"In\": 1}, \"10\": {\"In\": 1}, \"11\": {\"In\": 1}, \"12\": {\"In\": 1}, \"13\": {\"In\": 1}, \"14\": {\"In\": 1}, \"15\": {\"In\": 1}, \"16\": {\"O\": 1}, \"17\": {\"O\": 1}, \"18\": {\"O\": 1}, \"19\": {\"O\": 1}, \"20\": {\"O\": 1}, \"21\": {\"O\": 1}, \"22\": {\"O\": 1}, \"23\": {\"O\": 1}, \"24\": {\"O\": 1}, \"25\": {\"O\": 1}, \"26\": {\"O\": 1}, \"27\": {\"O\": 1}, \"28\": {\"O\": 1}, \"29\": {\"O\": 1}, \"30\": {\"O\": 1}, \"31\": {\"O\": 1}, \"32\": {\"O\": 1}, \"33\": {\"O\": 1}, \"34\": {\"O\": 1}, \"35\": {\"O\": 1}, \"36\": {\"O\": 1}, \"37\": {\"O\": 1}, \"38\": {\"O\": 1}, \"39\": {\"O\": 1}}" n_minim_iter=4 energy=-45148.891346231576 stress="0.07815408129499743 2.23951320131797e-13 2.0553519799250705e-13 2.23951320131797e-13 0.07815408129492571 7.27400231740992e-14 2.0553519799250705e-13 7.27400231740992e-14 0.07815408129497771" free_energy=-45148.891346231576 pbc="T T T"
In      -4.40526231       3.11499085       5.95587647        0       0.01238220      -0.00875554       0.01516504
In       7.49466733       1.25408764       1.61158945        1      -0.01238220       0.00875554      -0.01516504
In       1.31585728      -0.93045160       5.39532241        2      -0.01238220       0.00875554      -0.01516504
In      -1.54470252      -2.18453924       3.78373296        3      -0.00000000       0.00000000      -0.00000000
In      -1.31585728       4.20726047       3.50345593        4       0.01238220      -0.00875554      -0.01516504
In       4.86295278      -2.95317283       5.67559944        5       0.01238220       0.01751108       0.00000000
In      -1.31585728       1.41590566       5.67559944        6       0.01238220       0.01751108       0.00000000
In      -1.77354775       7.32225132       1.89186648        7      -0.01238220      -0.01751108       0.00000000
In       4.40526231       0.16181802       4.06400999        8      -0.01238220       0.00875554       0.01516504
In      -1.54470252       4.36907849      -0.00000000        9      -0.00000000      -0.00000000       0.00000000
In       4.40526230       6.71543576       0.28027703       10      -0.01238220       0.00875554       0.01516504
In      -1.31585728      -2.34635726       7.28718890       11       0.01238220      -0.00875554      -0.01516504
In       4.40526230       2.95317283       1.89186648       12      -0.01238220      -0.01751108       0.00000000
In       1.77354775       5.29953010       2.17214351       13       0.01238220      -0.00875554       0.01516504
In       4.63410754       0.00000000      -0.00000000       14      -0.00000000       0.00000000       0.00000000
In       1.54470251       2.18453925       3.78373296       15      -0.00000000       0.00000000      -0.00000000
O        0.98846732       4.38319907       4.09302662       16       0.00493165      -0.00698792       0.00096142
O       -2.10093771       3.53760475       5.50872383       17       0.00493165       0.00432657       0.00557101
O       -0.44111885       2.36393558      -0.02588746       18      -0.00086526       0.00842561      -0.00152873
O       -0.98846732      -0.81735316       2.03428453       19      -0.00493165      -0.00266135       0.00653242
O        4.03559831       5.17148553       2.06017199       20       0.00243525       0.00177874       0.00806116
O        2.14321174       2.98612073       1.72499087       21      -0.00243525      -0.00609180       0.00557101
O        2.14321174       6.55444329       0.33518112       22      -0.00243525       0.00787053       0.00249015
O       -2.37577945       6.18153005       3.75784550       23      -0.00823216      -0.00199276      -0.00152873
O        3.53052387       2.00514292       7.59335338       24       0.00086526      -0.00842561       0.00152873
O        5.46518448      -1.81245155       3.80962042       25       0.00823216       0.00199276       0.00152873
O        6.61992890       3.34408784       1.72356097       26       0.00086526       0.00288888      -0.00806116
O        3.80303060       2.34816390       4.11891408       27      -0.00823216      -0.00032754       0.00249015
O        0.71362558       4.57754153       7.25817226       28      -0.00823216       0.00232030      -0.00096142
O        2.37577945      -0.20846304       0.30929366       29       0.00823216      -0.00232030       0.00096142
O       -3.53052388       1.02499065       5.84390495       30      -0.00086526      -0.00288888       0.00806116
O        5.19034273       0.83147375       2.05874209       31      -0.00493165      -0.00432657      -0.00557101
O        0.94619328       1.38295776       5.84247505       32       0.00243525       0.00609180      -0.00557101
O        3.53052387      -0.98015226       5.81801749       33       0.00086526       0.00553672       0.00653242
O        2.10093770      -0.01412058       3.47443930       34      -0.00493165       0.00698792      -0.00096142
O        0.94619328      -2.18536479       7.23228481       35       0.00243525      -0.00787053      -0.00249015
O       -0.71362558       2.02091460       3.44855184       36       0.00823216       0.00032754      -0.00249015
O       -0.94619328      -0.80240703       5.50729394       37      -0.00243525      -0.00177874      -0.00806116
O       -0.44111885       5.34923075       1.74944843       38      -0.00086526      -0.00553672      -0.00653242
O        4.07787235       5.18643166       5.53318139       39       0.00493165       0.00266135      -0.00653242
40
Lattice="9.26821508458038 7.26417461897357e-10 8.874107980912625e-15 -3.0894050288783372 8.73815698082751 -1.2582126375070056e-09 -3.0894050278510363 -4.369078489687321 7.5674659284917665" Properties=species:S:1:pos:R:3:spacegroup_kinds:I:1:forces:R:3 spacegroup="P 1" unit_cell=conventional occupancy="_JSON {\"0\": {\"In\": 1}, \"1\": {\"In\": 1}, \"2\": {\"In\": 1}, \"3\": {\"In\": 1}, \"4\": {\"In\": 1}, \"5\": {\"In\": 1}, \"6\": {\"In\": 1}, \"7\": {\"In\": 1}, \"8\": {\"In\": 1}, \"9\": {\"In\": 1}, \"10\": {\"In\": 1}, \"11\": {\"In\": 1}, \"12\": {\"In\": 1}, \"13\": {\"In\": 1}, \"14\": {\"In\": 1}, \"15\": {\"In\": 1}, \"16\": {\"O\": 1}, \"17\": {\"O\": 1}, \"18\": {\"O\": 1}, \"19\": {\"O\": 1}, \"20\": {\"O\": 1}, \"21\": {\"O\": 1}, \"22\": {\"O\": 1}, \"23\": {\"O\": 1}, \"24\": {\"O\": 1}, \"25\": {\"O\": 1}, \"26\": {\"O\": 1}, \"27\": {\"O\": 1}, \"28\": {\"O\": 1}, \"29\": {\"O\": 1}, \"30\": {\"O\": 1}, \"31\": {\"O\": 1}, \"32\": {\"O\": 1}, \"33\": {\"O\": 1}, \"34\": {\"O\": 1}, \"35\": {\"O\": 1}, \"36\": {\"O\": 1}, \"37\": {\"O\": 1}, \"38\": {\"O\": 1}, \"39\": {\"O\": 1}}" n_minim_iter=5 energy=-45148.89157930522 stress="0.07789608627818279 -5.384479853701866e-15 -9.55837335255543e-14 -5.384479853701866e-15 0.077896086278287 6.268138420840983e-14 -9.55837335255543e-14 6.268138420840983e-14 0.07789608627804796" free_energy=-45148.89157930522 pbc="T T T"
In      -4.40484584       3.11469636       5.95638654        0       0.01048164      -0.00741164       0.01283734
In       7.49425086       1.25438213       1.61107938        1      -0.01048164       0.00741164      -0.01283734
In       1.31544081      -0.93015711       5.39481235        2      -0.01048164       0.00741164      -0.01283734
In      -1.54470252      -2.18453924       3.78373296        3       0.00000000       0.00000000       0.00000000
In      -1.31544081       4.20696599       3.50294586        4       0.01048164      -0.00741164      -0.01283734
In       4.86336925      -2.95258385       5.67559944        5       0.01048164       0.01482328      -0.00000000
In      -1.31544081       1.41649464       5.67559944        6       0.01048164       0.01482328      -0.00000000
In      -1.77396422       7.32166235       1.89186648        7      -0.01048164      -0.01482328       0.00000000
In       4.40484584       0.16211251       4.06452006        8      -0.01048164       0.00741164       0.01283734
In      -1.54470252       4.36907849      -0.00000000        9       0.00000000      -0.00000000      -0.00000000
In       4.40484583       6.71573024       0.28078709       10      -0.01048164       0.00741164       0.01283734
In      -1.31544081      -2.34665175       7.28667883       11       0.01048164      -0.00741164      -0.01283734
In       4.40484584       2.95258386       1.89186648       12      -0.01048164      -0.01482328       0.00000000
In       1.77396422       5.29923561       2.17265358       13       0.01048164      -0.00741164       0.01283734
In       4.63410754       0.00000000      -0.00000000       14      -0.00000000       0.00000000      -0.00000000
In       1.54470251       2.18453925       3.78373296       15       0.00000000       0.00000000      -0.00000000
O        0.99124022       4.38334245       4.09203080       16       0.00137891      -0.00741114       0.00941244
O       -2.09816481       3.53667065       5.50909758       17       0.00137891       0.01185698       0.00171201
O       -0.44094005       2.36483579      -0.02869083       18       0.00465122       0.00954311       0.00571975
O       -0.99124023      -0.81814389       2.03366245       19      -0.00137891       0.00444585       0.01112445
O        4.03379333       5.17065773       2.06235327       20       0.01071923      -0.00114354       0.00540470
O        2.14501672       2.98381778       1.72536462       21      -0.01071923      -0.00525238       0.00171201
O        2.14501672       6.55591844       0.33698866       22      -0.01071923       0.00410884       0.00369269
O       -2.37656858       6.18106141       3.75504214       23      -0.00744693      -0.00756625       0.00571975
O        3.53034507       2.00424271       7.59615675       24      -0.00465122      -0.00954311      -0.00571975
O        5.46597360      -1.81198291       3.81242379       25       0.00744693       0.00756625      -0.00571975
O        6.61975010       3.34211016       1.72137968       26      -0.00465122       0.00972501      -0.00540470
O        3.80224148       2.34597043       4.12072162       27      -0.00744693       0.00873658       0.00369269
O        0.71283645       4.58020364       7.25916809       28      -0.00744693      -0.00117033      -0.00941244
O        2.37656857      -0.21112515       0.30829783       29       0.00744693       0.00117033       0.00941244
O       -3.53034508       1.02696834       5.84608624       30       0.00465122      -0.00972501       0.00540470
O        5.18756983       0.83240784       2.05836834       31      -0.00137891      -0.01185698      -0.00171201
O        0.94438830       1.38526072       5.84210131       32       0.01071923       0.00525238      -0.00171201
O        3.53034507      -0.97727437       5.81739542       33      -0.00465122      -0.00018190       0.01112445
O        2.09816480      -0.01426395       3.47543513       34      -0.00137891       0.00741114      -0.00941244
O        0.94438830      -2.18683994       7.23047727       35       0.01071923      -0.00410884      -0.00369269
O       -0.71283645       2.02310806       3.44674430       36       0.00744693      -0.00873658      -0.00369269
O       -0.94438831      -0.80157923       5.50511265       37      -0.01071923       0.00114354      -0.00540470
O       -0.44094005       5.34635286       1.75007051       38       0.00465122       0.00018189      -0.01112445
O        4.08064525       5.18722238       5.53380347       39       0.00137891      -0.00444585      -0.01112445
40