40
Lattice="9.599499727660014 7.523810564712401e-10 2.876848263196524e-14 -3.19983324326269 9.050495137651623 -1.3032125515905294e-09 -3.1998332421986873 -4.525247568073397 7.837958706902631" Properties=species:S:1:pos:R:3:spacegroup_kinds:I:1:forces:R:3 spacegroup="P 1" unit_cell=conventional occupancy="_JSON {\"0\": {\"In\": 1}, \"1\": {\"In\": 1}, \"2\": {\"In\": 1}, \"3\": {\"In\": 1}, \"4\": {\"In\": 1}, \"5\": {\"In\": 1}, \"6\": {\"In\": 1}, \"7\": {\"In\": 1}, \"8\": {\"In\": 1}, \"9\": {\"In\": 1}, \"10\": {\"In\": 1}, \"11\": {\"In\": 1}, \"12\": {\"In\": 1}, \"13\": {\"In\": 1}, \"14\": {\"In\": 1}, \"15\": {\"In\": 1}, \"16\": {\"O\": 1}, \"17\": {\"O\": 1}, \"18\": {\"O\": 1}, \"19\": {\"O\": 1}, \"20\": {\"O\": 1}, \"21\": {\"O\": 1}, \"22\": {\"O\": 1}, \"23\": {\"O\": 1}, \"24\": {\"O\": 1}, \"25\": {\"O\": 1}, \"26\": {\"O\": 1}, \"27\": {\"O\": 1}, \"28\": {\"O\": 1}, \"29\": {\"O\": 1}, \"30\": {\"O\": 1}, \"31\": {\"O\": 1}, \"32\": {\"O\": 1}, \"33\": {\"O\": 1}, \"34\": {\"O\": 1}, \"35\": {\"O\": 1}, \"36\": {\"O\": 1}, \"37\": {\"O\": 1}, \"38\": {\"O\": 1}, \"39\": {\"O\": 1}}" n_minim_iter=1 energy=-45142.44706524647 stress="0.1091842030798921 -1.3288294309903171e-14 2.8250082458435393e-14 -1.3288294309903171e-14 0.10918420307998425 1.0499215354788638e-13 2.8250082458435393e-14 1.0499215354788638e-13 0.10918420307986403" free_energy=-45142.44706524647 pbc="T T T"
In      -4.54386217       3.21299575       6.19186617        0       0.03089206      -0.02184399       0.03783489
In       7.74369541       1.31225182       1.64609253        1      -0.03089206       0.02184399      -0.03783489
In       1.34402892      -0.95037196       5.56507188        2      -0.03089206       0.02184399      -0.03783489
In      -1.59991662      -2.26262378       3.91897935        3      -0.00000000      -0.00000000      -0.00000000
In      -1.34402892       4.34430764       3.60558220        4       0.03089206      -0.02184399      -0.03783489
In       5.05563756      -3.03205582       5.87846903        5       0.03089206       0.04368797      -0.00000000
In      -1.34402892       1.49319175       5.87846903        6       0.03089206       0.04368797      -0.00000000
In      -1.85580432       7.55730339       1.95948967        7      -0.03089206      -0.04368797       0.00000000
In       4.54386216       0.18093993       4.23237650        8      -0.03089206       0.02184399       0.03783489
In      -1.59991662       4.52524757      -0.00000000        9       0.00000000       0.00000000       0.00000000
In       4.54386216       6.96881128       0.31339714       10      -0.03089206       0.02184399       0.03783489
In      -1.34402892      -2.44356371       7.52456156       11       0.03089206      -0.02184399      -0.03783489
In       4.54386216       3.03205582       1.95948967       12      -0.03089206      -0.04368797      -0.00000000
In       1.85580432       5.47561954       2.27288682       13       0.03089206      -0.02184399       0.03783489
In       4.79974986       0.00000000      -0.00000000       14       0.00000000      -0.00000000      -0.00000000
In       1.59991662       2.26262379       3.91897935       15       0.00000000       0.00000000      -0.00000000
O        1.13875984       4.55084594       4.21287727       16       0.02133236       0.02381666      -0.06037175
O       -2.06107340       3.63565956       5.70935123       17       0.02133236      -0.06419180       0.00956004
O       -0.43499063       2.48584540      -0.13707095       18      -0.03095526      -0.02721887      -0.05447896
O       -1.13875984      -0.86398964       2.08426979       19      -0.02133236      -0.04037514      -0.05081171
O        4.11475717       5.31009927       2.22134074       20      -0.06763140       0.00892170       0.00366724
O        2.28490931       2.99393591       1.79037187       21       0.06763140       0.00128492       0.00956004
O        2.28490931       6.84141093       0.43096886       22       0.06763140       0.00763678      -0.00589280
O       -2.48867440       6.36936932       3.78190841       23       0.01534378       0.03825785      -0.05447896
O        3.63482387       2.03940217       7.97502965       24       0.03095526       0.02721887       0.05447896
O        5.68850764      -1.84412175       4.05605029       25      -0.01534378      -0.03825785       0.05447896
O        6.83465711       3.38683957       1.69763861       26       0.03095526      -0.06078960      -0.00366724
O        3.91099208       2.35316788       4.34994821       27       0.01534378      -0.06630909      -0.00589280
O        0.71115884       4.85320551       7.54406078       28       0.01534378       0.02805123       0.06037175
O        2.48867440      -0.32795793       0.29389792       29      -0.01534378      -0.02805123      -0.06037175
O       -3.63482388       1.13840800       6.14032009       30      -0.03095526       0.06078960       0.00366724
O        5.26090664       0.88958801       2.12860747       31      -0.02133236       0.06419180      -0.00956004
O        0.91492393       1.53131167       6.04758683       32      -0.06763140      -0.00128492      -0.00956004
O        3.63482387      -0.90099416       6.00324915       33       0.03095526       0.03357072      -0.05081171
O        2.06107340      -0.02559837       3.62508143       34      -0.02133236      -0.02381666       0.06037175
O        0.91492393      -2.31616336       7.40698984       35      -0.06763140      -0.00763678       0.00589280
O       -0.71115885       2.17207969       3.48801049       36      -0.01534378       0.06630909       0.00589280
O       -0.91492393      -0.78485169       5.61661796       37       0.06763140      -0.00892170      -0.00366724
O       -0.43499063       5.42624173       1.83470955       38      -0.03095526      -0.03357072       0.05081171
O        4.33859308       5.38923721       5.75368891       39       0.02133236       0.04037514       0.05081171
40
Lattice="9.599499727659996 7.52381056471239e-10 2.876848263196519e-14 -3.199833243262686 9.050495137651613 -1.303212551590528e-09 -3.1998332421986833 -4.525247568073391 7.837958706902622" Properties=species:S:1:pos:R:3:spacegroup_kinds:I:1:forces:R:3 spacegroup="P 1" unit_cell=conventional occupancy="_JSON {\"0\": {\"In\": 1}, \"1\": {\"In\": 1}, \"2\": {\"In\": 1}, \"3\": {\"In\": 1}, \"4\": {\"In\": 1}, \"5\": {\"In\": 1}, \"6\": {\"In\": 1}, \"7\": {\"In\": 1}, \"8\": {\"In\": 1}, \"9\": {\"In\": 1}, \"10\": {\"In\": 1}, \"11\": {\"In\": 1}, \"12\": {\"In\": 1}, \"13\": {\"In\": 1}, \"14\": {\"In\": 1}, \"15\": {\"In\": 1}, \"16\": {\"O\": 1}, \"17\": {\"O\": 1}, \"18\": {\"O\": 1}, \"19\": {\"O\": 1}, \"20\": {\"O\": 1}, \"21\": {\"O\": 1}, \"22\": {\"O\": 1}, \"23\": {\"O\": 1}, \"24\": {\"O\": 1}, \"25\": {\"O\": 1}, \"26\": {\"O\": 1}, \"27\": {\"O\": 1}, \"28\": {\"O\": 1}, \"29\": {\"O\": 1}, \"30\": {\"O\": 1}, \"31\": {\"O\": 1}, \"32\": {\"O\": 1}, \"33\": {\"O\": 1}, \"34\": {\"O\": 1}, \"35\": {\"O\": 1}, \"36\": {\"O\": 1}, \"37\": {\"O\": 1}, \"38\": {\"O\": 1}, \"39\": {\"O\": 1}}" n_minim_iter=2 energy=-45142.45711394451 stress="0.10767169917992599 9.880925859773921e-14 -1.1085830826178345e-13 9.880925859773921e-14 0.10767169918009038 -1.3224726162630436e-13 -1.1085830826178345e-13 -1.3224726162630436e-13 0.1076716991801019" free_energy=-45142.45711394451 pbc="T T T"
In      -4.53960573       3.20998599       6.19707923        0       0.00042710      -0.00030201       0.00052309
In       7.73943896       1.31526158       1.64087947        1      -0.00042710       0.00030201      -0.00052309
In       1.33977248      -0.94736220       5.55985883        2      -0.00042710       0.00030201      -0.00052309
In      -1.59991662      -2.26262378       3.91897935        3       0.00000000      -0.00000000      -0.00000000
In      -1.33977248       4.34129789       3.60036915        4       0.00042710      -0.00030201      -0.00052309
In       5.05989400      -3.02603630       5.87846903        5       0.00042710       0.00060401       0.00000000
In      -1.33977248       1.49921127       5.87846903        6       0.00042710       0.00060401       0.00000000
In      -1.86006076       7.55128388       1.95948967        7      -0.00042710      -0.00060401      -0.00000000
In       4.53960572       0.18394969       4.23758955        8      -0.00042710       0.00030201       0.00052309
In      -1.59991662       4.52524757      -0.00000000        9      -0.00000000       0.00000000       0.00000000
In       4.53960572       6.97182104       0.31861020       10      -0.00042710       0.00030201       0.00052309
In      -1.33977248      -2.44657347       7.51934850       11       0.00042710      -0.00030201      -0.00052309
In       4.53960572       3.02603631       1.95948967       12      -0.00042710      -0.00060401       0.00000000
In       1.86006076       5.47260978       2.27809987       13       0.00042710      -0.00030201       0.00052309
In       4.79974986       0.00000000      -0.00000000       14      -0.00000000      -0.00000000       0.00000000
In       1.59991662       2.26262379       3.91897935       15      -0.00000000      -0.00000000       0.00000000
O        1.14169910       4.55412750       4.20455899       16       0.01935863      -0.01199308       0.00394064
O       -2.05813414       3.62681494       5.71066845       17       0.01935863       0.00940924       0.00841599
O       -0.43925578       2.48209507      -0.14457729       18       0.00401680       0.02025755      -0.01037383
O       -1.14169911      -0.86955270       2.07726874       19      -0.01935863      -0.00258385       0.01235664
O        4.10543862       5.31132854       2.22184603       20       0.00241824      -0.00340549       0.02273047
O        2.29422786       2.99411295       1.79168910       21      -0.00241824      -0.02138791       0.00841599
O        2.29422786       6.84246316       0.43015693       22      -0.00241824       0.01798242       0.01431447
O       -2.48656027       6.37464065       3.77440206       23      -0.01776007      -0.01053960      -0.01037383
O        3.63908902       2.04315250       7.98253599       24      -0.00401680      -0.02025755       0.01037383
O        5.68639351      -1.84939308       4.06355664       25       0.01776007       0.01053960       0.01037383
O        6.83892226       3.37846372       1.69713332       26      -0.00401680       0.00114477      -0.02273047
O        3.91310622       2.34403153       4.34913628       27      -0.01776007      -0.00371421       0.01431447
O        0.71327297       4.85707053       7.55237906       28      -0.01776007       0.01425380      -0.00394064
O        2.48656027      -0.33182295       0.28557964       29       0.01776007      -0.01425380       0.00394064
O       -3.63908902       1.14678386       6.14082538       30       0.00401680      -0.00114477       0.02273047
O        5.25796738       0.89843264       2.12729025       31      -0.01935863      -0.00940924      -0.00841599
O        0.90560538       1.53113462       6.04626960       32       0.00241824       0.02138791      -0.00841599
O        3.63908902      -0.89636864       5.99624809       33      -0.00401680       0.01911278       0.01235664
O        2.05813414      -0.02887993       3.63339971       34      -0.01935863       0.01199308      -0.00394064
O        0.90560538      -2.31721558       7.40780177       35       0.00241824      -0.01798242      -0.01431447
O       -0.71327298       2.18121604       3.48882242       36       0.01776007       0.00371421      -0.01431447
O       -0.90560538      -0.78608096       5.61611267       37      -0.00241824       0.00340549      -0.02273047
O       -0.43925578       5.42161622       1.84171061       38       0.00401680      -0.01911278      -0.01235664
O        4.34153235       5.39480027       5.76068996       39       0.01935863       0.00258385      -0.01235664
40
Lattice="9.599499727659996 7.52381056471239e-10 2.8768482631965195e-14 -3.1998332432626864 9.050495137651614 -1.3032125515905278e-09 -3.1998332421986837 -4.525247568073392 7.837958706902622" Properties=species:S:1:pos:R:3:spacegroup_kinds:I:1:forces:R:3 spacegroup="P 1" unit_cell=conventional occupancy="_JSON {\"0\": {\"In\": 1}, \"1\": {\"In\": 1}, \"2\": {\"In\": 1}, \"3\": {\"In\": 1}, \"4\": {\"In\": 1}, \"5\": {\"In\": 1}, \"6\": {\"In\": 1}, \"7\": {\"In\": 1}, \"8\": {\"In\": 1}, \"9\": {\"In\": 1}, \"10\": {\"In\": 1}, \"11\": {\"In\": 1}, \"12\": {\"In\": 1}, \"13\": {\"In\": 1}, \"14\": {\"In\": 1}, \"15\": {\"In\": 1}, \"16\": {\"O\": 1}, \"17\": {\"O\": 1}, \"18\": {\"O\": 1}, \"19\": {\"O\": 1}, \"20\": {\"O\": 1}, \"21\": {\"O\": 1}, \"22\": {\"O\": 1}, \"23\": {\"O\": 1}, \"24\": {\"O\": 1}, \"25\": {\"O\": 1}, \"26\": {\"O\": 1}, \"27\": {\"O\": 1}, \"28\": {\"O\": 1}, \"29\": {\"O\": 1}, \"30\": {\"O\": 1}, \"31\": {\"O\": 1}, \"32\": {\"O\": 1}, \"33\": {\"O\": 1}, \"34\": {\"O\": 1}, \"35\": {\"O\": 1}, \"36\": {\"O\": 1}, \"37\": {\"O\": 1}, \"38\": {\"O\": 1}, \"39\": {\"O\": 1}}" n_minim_iter=3 energy=-45142.458632875445 stress="0.10777847137875499 -9.529964145932542e-14 -9.839767155544596e-14 -9.529964145932542e-14 0.10777847137896757 1.1145661348992988e-14 -9.839767155544596e-14 1.1145661348992988e-14 0.10777847137878001" free_energy=-45142.458632875445 pbc="T T T"
In      -4.53981464       3.21013372       6.19682336        0       0.00429870      -0.00303964       0.00526482
In       7.73964788       1.31511385       1.64113534        1      -0.00429870       0.00303964      -0.00526482
In       1.33998139      -0.94750993       5.56011469        2      -0.00429870       0.00303964      -0.00526482
In      -1.59991662      -2.26262378       3.91897935        3      -0.00000000       0.00000000      -0.00000000
In      -1.33998140       4.34144561       3.60062502        4       0.00429870      -0.00303964      -0.00526482
In       5.05968509      -3.02633175       5.87846903        5       0.00429870       0.00607929      -0.00000000
In      -1.33998140       1.49891582       5.87846903        6       0.00429870       0.00607929      -0.00000000
In      -1.85985185       7.55157933       1.95948967        7      -0.00429870      -0.00607929       0.00000000
In       4.53981464       0.18380196       4.23733368        8      -0.00429870       0.00303964       0.00526482
In      -1.59991662       4.52524757      -0.00000000        9      -0.00000000       0.00000000       0.00000000
In       4.53981464       6.97167332       0.31835433       10      -0.00429870       0.00303964       0.00526482
In      -1.33998140      -2.44642574       7.51960437       11       0.00429870      -0.00303964      -0.00526482
In       4.53981464       3.02633176       1.95948967       12      -0.00429870      -0.00607929       0.00000000
In       1.85985184       5.47275750       2.27784401       13       0.00429870      -0.00303964       0.00526482
In       4.79974986       0.00000000      -0.00000000       14       0.00000000       0.00000000      -0.00000000
In       1.59991662       2.26262379       3.91897935       15       0.00000000       0.00000000      -0.00000000
O        1.14604088       4.55106676       4.20609099       16       0.01484061       0.01605689      -0.00911238
O       -2.05379237       3.62967206       5.71255313       17       0.01484061      -0.01592000      -0.00934948
O       -0.43800050       2.48713467      -0.14647277       18       0.00507593      -0.00901533      -0.02130872
O       -1.14604088      -0.86975632       2.08068542       19      -0.01484061       0.00013689      -0.01846187
O        4.10668509       5.31043780       2.22715819       20      -0.01995639      -0.01243949       0.00284685
O        2.29298140       2.98906711       1.79357378       21       0.01995639      -0.00868519      -0.00934948
O        2.29298140       6.84661826       0.43358441       22       0.01995639      -0.00375430       0.01219634
O       -2.49089322       6.37177730       3.77250658       23       0.01019171      -0.00178052      -0.02130872
O        3.63783374       2.03811290       7.98443147       24      -0.00507593       0.00901533       0.02130872
O        5.69072646      -1.84652972       4.06545212       25      -0.01019171       0.00178052       0.02130872
O        6.83766698       3.37934198       1.69182116       26      -0.00507593      -0.02296156      -0.00284685
O        3.90877326       2.34382168       4.35256376       27       0.01019171      -0.01756363       0.01219634
O        0.70894002       4.86014374       7.55084706       28       0.01019171       0.01934416       0.00911238
O        2.49089322      -0.33489617       0.28711164       29      -0.01019171      -0.01934416      -0.00911238
O       -3.63783374       1.14590559       6.14613754       30       0.00507593       0.02296156       0.00284685
O        5.25362561       0.89557552       2.12540557       31      -0.01484061       0.01592000       0.00934948
O        0.90685184       1.53618046       6.04438492       32      -0.01995639       0.00868519       0.00934948
O        3.63783374      -0.89220731       5.99966477       33      -0.00507593       0.01394623      -0.01846187
O        2.05379236      -0.02581919       3.63186771       34      -0.01484061      -0.01605689       0.00911238
O        0.90685184      -2.32137069       7.40437429       35      -0.01995639       0.00375430      -0.01219634
O       -0.70894002       2.18142590       3.48539494       36      -0.01019171       0.01756363      -0.01219634
O       -0.90685185      -0.78519023       5.61080051       37       0.01995639       0.01243949      -0.00284685
O       -0.43800050       5.41745488       1.83829393       38       0.00507593      -0.01394623       0.01846187
O        4.34587412       5.39500389       5.75727328       39       0.01484061      -0.00013689       0.01846187
40
Lattice="9.599499727659996 7.52381056471239e-10 2.8768482631965176e-14 -3.1998332432626864 9.050495137651614 -1.3032125515905278e-09 -3.1998332421986837 -4.525247568073392 7.837958706902622" Properties=species:S:1:pos:R:3:spacegroup_kinds:I:1:forces:R:3 spacegroup="P 1" unit_cell=conventional occupancy="_JSON {\"0\": {\"In\": 1}, \"1\": {\"In\": 1}, \"2\": {\"In\": 1}, \"3\": {\"In\": 1}, \"4\": {\"In\": 1}, \"5\": {\"In\": 1}, \"6\": {\"In\": 1}, \"7\": {\"In\": 1}, \"8\": {\"In\": 1}, \"9\": {\"In\": 1}, \"10\": {\"In\": 1}, \"11\": {\"In\": 1}, \"12\": {\"In\": 1}, \"13\": {\"In\": 1}, \"14\": {\"In\": 1}, \"15\": {\"In\": 1}, \"16\": {\"O\": 1}, \"17\": {\"O\": 1}, \"18\": {\"O\": 1}, \"19\": {\"O\": 1}, \"20\": {\"O\": 1}, \"21\": {\"O\": 1}, \"22\": {\"O\": 1}, \"23\": {\"O\": 1}, \"24\": {\"O\": 1}, \"25\": {\"O\": 1}, \"26\": {\"O\": 1}, \"27\": {\"O\": 1}, \"28\": {\"O\": 1}, \"29\": {\"O\": 1}, \"30\": {\"O\": 1}, \"31\": {\"O\": 1}, \"32\": {\"O\": 1}, \"33\": {\"O\": 1}, \"34\": {\"O\": 1}, \"35\": {\"O\": 1}, \"36\": {\"O\": 1}, \"37\": {\"O\": 1}, \"38\": {\"O\": 1}, \"39\": {\"O\": 1}}" n_minim_iter=4 energy=-45142.459528959844 stress="0.10743519907235542 4.0770105411616046e-14 4.0373313981954257e-14 4.0770105411616046e-14 0.10743519907237493 2.67751269920594e-14 4.0373313981954257e-14 2.67751269920594e-14 0.10743519907231576" free_energy=-45142.459528959844 pbc="T T T"
In      -4.53892871       3.20950727       6.19790840        0      -0.00154756       0.00109429      -0.00189537
In       7.73876195       1.31574030       1.64005030        1       0.00154756      -0.00109429       0.00189537
In       1.33909546      -0.94688348       5.55902965        2       0.00154756      -0.00109429       0.00189537
In      -1.59991662      -2.26262378       3.91897935        3      -0.00000000      -0.00000000       0.00000000
In      -1.33909547       4.34081916       3.59953998        4      -0.00154756       0.00109429       0.00189537
In       5.06057102      -3.02507886       5.87846903        5      -0.00154756      -0.00218858      -0.00000000
In      -1.33909547       1.50016871       5.87846903        6      -0.00154756      -0.00218858      -0.00000000
In      -1.86073778       7.55032643       1.95948967        7       0.00154756       0.00218858      -0.00000000
In       4.53892871       0.18442841       4.23841873        8       0.00154756      -0.00109429      -0.00189537
In      -1.59991662       4.52524757      -0.00000000        9       0.00000000       0.00000000      -0.00000000
In       4.53892870       6.97229976       0.31943937       10       0.00154756      -0.00109429      -0.00189537
In      -1.33909547      -2.44705219       7.51851933       11      -0.00154756       0.00109429       0.00189537
In       4.53892870       3.02507886       1.95948967       12       0.00154756       0.00218858       0.00000000
In       1.86073778       5.47213105       2.27892905       13      -0.00154756       0.00109429      -0.00189537
In       4.79974986       0.00000000      -0.00000000       14       0.00000000       0.00000000       0.00000000
In       1.59991662       2.26262379       3.91897935       15      -0.00000000      -0.00000000      -0.00000000
O        1.14869704       4.55071996       4.20481909       16       0.01225639       0.01778486       0.00068933
O       -2.05113621       3.62874396       5.71348942       17       0.01225639      -0.00829545      -0.01574681
O       -0.43831710       2.48830863      -0.14917736       18       0.01303216      -0.00884401      -0.01479668
O       -1.14869704      -0.87103122       2.08034981       19      -0.01225639       0.00948941      -0.01505748
O        4.10492468       5.31015121       2.22952716       20      -0.01190649      -0.01803228      -0.00026079
O        2.29474180       2.98687223       1.79451007       21       0.01190649      -0.00879028      -0.01574681
O        2.29474180       6.84852655       0.43501709       22       0.01190649      -0.00924199       0.01548601
O       -2.49210558       6.37168447       3.76980200       23       0.01268226      -0.00933884      -0.01479668
O        3.63815034       2.03693894       7.98713606       24      -0.01303216       0.00884401       0.01479668
O        5.69193882      -1.84643689       4.06815670       25      -0.01268226       0.00933884       0.01479668
O        6.83798358       3.37758673       1.68945219       26      -0.01303216      -0.01723631       0.00026079
O        3.90756091       2.34152585       4.35399645       27       0.01268226      -0.00814488       0.01548601
O        0.70772767       4.86253239       7.55211896       28       0.01268226       0.01748372      -0.00068933
O        2.49210557      -0.33728482       0.28583974       29      -0.01268226      -0.01748372       0.00068933
O       -3.63815034       1.14766085       6.14850651       30       0.01303216       0.01723631      -0.00026079
O        5.25096945       0.89650361       2.12446928       31      -0.01225639       0.00829545       0.01574681
O        0.90509144       1.53837535       6.04344863       32      -0.01190649       0.00879028       0.01574681
O        3.63815034      -0.88927809       5.99932916       33      -0.01303216       0.00839230      -0.01505748
O        2.05113620      -0.02547239       3.63313961       34      -0.01225639      -0.01778486      -0.00068933
O        0.90509144      -2.32327898       7.40294161       35      -0.01190649       0.00924199      -0.01548601
O       -0.70772767       2.18372172       3.48396225       36      -0.01268226       0.00814488      -0.01548601
O       -0.90509144      -0.78490363       5.60843154       37       0.01190649       0.01803228       0.00026079
O       -0.43831710       5.41452566       1.83862954       38       0.01303216      -0.00839230       0.01505748
O        4.34853028       5.39627879       5.75760889       39       0.01225639      -0.00948941       0.01505748
40
Lattice="9.59949972766 7.523810564712392e-10 2.8768482631965195e-14 -3.1998332432626873 9.050495137651618 -1.3032125515905284e-09 -3.1998332421986846 -4.525247568073394 7.837958706902625" Properties=species:S:1:pos:R:3:spacegroup_kinds:I:1:forces:R:3 spacegroup="P 1" unit_cell=conventional occupancy="_JSON {\"0\": {\"In\": 1}, \"1\": {\"In\": 1}, \"2\": {\"In\": 1}, \"3\": {\"In\": 1}, \"4\": {\"In\": 1}, \"5\": {\"In\": 1}, \"6\": {\"In\": 1}, \"7\": {\"In\": 1}, \"8\": {\"In\": 1}, \"9\": {\"In\": 1}, \"10\": {\"In\": 1}, \"11\": {\"In\": 1}, \"12\": {\"In\": 1}, \"13\": {\"In\": 1}, \"14\": {\"In\": 1}, \"15\": {\"In\": 1}, \"16\": {\"O\": 1}, \"17\": {\"O\": 1}, \"18\": {\"O\": 1}, \"19\": {\"O\": 1}, \"20\": {\"O\": 1}, \"21\": {\"O\": 1}, \"22\": {\"O\": 1}, \"23\": {\"O\": 1}, \"24\": {\"O\": 1}, \"25\": {\"O\": 1}, \"26\": {\"O\": 1}, \"27\": {\"O\": 1}, \"28\": {\"O\": 1}, \"29\": {\"O\": 1}, \"30\": {\"O\": 1}, \"31\": {\"O\": 1}, \"32\": {\"O\": 1}, \"33\": {\"O\": 1}, \"34\": {\"O\": 1}, \"35\": {\"O\": 1}, \"36\": {\"O\": 1}, \"37\": {\"O\": 1}, \"38\": {\"O\": 1}, \"39\": {\"O\": 1}}" n_minim_iter=5 energy=-45142.45998525159 stress="0.10711715073049853 -3.146619214076356e-14 -5.5955335842367734e-14 -3.146619214076356e-14 0.10711715073103856 5.742963916052866e-14 -5.5955335842367734e-14 5.742963916052866e-14 0.10711715073083658" free_energy=-45142.45998525159 pbc="T T T"
In      -4.53821187       3.20900039       6.19878635        0      -0.00661370       0.00467659      -0.00810009
In       7.73804511       1.31624719       1.63917235        1       0.00661370      -0.00467659       0.00810009
In       1.33837862      -0.94637660       5.55815171        2       0.00661370      -0.00467659       0.00810009
In      -1.59991662      -2.26262378       3.91897935        3      -0.00000000       0.00000000       0.00000000
In      -1.33837863       4.34031228       3.59866203        4      -0.00661370       0.00467659       0.00810009
In       5.06128786      -3.02406509       5.87846903        5      -0.00661370      -0.00935318       0.00000000
In      -1.33837863       1.50118248       5.87846903        6      -0.00661370      -0.00935318      -0.00000000
In      -1.86145462       7.54931267       1.95948967        7       0.00661370       0.00935318      -0.00000000
In       4.53821187       0.18493529       4.23929667        8       0.00661370      -0.00467659      -0.00810009
In      -1.59991662       4.52524757      -0.00000000        9       0.00000000       0.00000000       0.00000000
In       4.53821187       6.97280665       0.32031732       10       0.00661370      -0.00467659      -0.00810009
In      -1.33837863      -2.44755907       7.51764139       11      -0.00661370       0.00467659       0.00810009
In       4.53821187       3.02406510       1.95948967       12       0.00661370       0.00935318      -0.00000000
In       1.86145462       5.47162417       2.27980699       13      -0.00661370       0.00467659      -0.00810009
In       4.79974986       0.00000000      -0.00000000       14       0.00000000       0.00000000      -0.00000000
In       1.59991662       2.26262379       3.91897935       15      -0.00000000       0.00000000      -0.00000000
O        1.15152025       4.55055053       4.20384181       16       0.00966624       0.01851321       0.00851716
O       -2.04831299       3.62798233       5.71412479       17       0.00966624      -0.00188053      -0.02029149
O       -0.43825384       2.48949859      -0.15192223       18       0.01890353      -0.00841227      -0.00897818
O       -1.15152026      -0.87196228       2.08000790       19      -0.00966624       0.01663269      -0.01177433
O        4.10326554       5.30949752       2.23193013       20      -0.00499506      -0.02181624      -0.00279615
O        2.29640094       2.98446435       1.79514544       21       0.00499506      -0.00848658      -0.02029149
O        2.29640094       6.85028074       0.43678469       22       0.00499506      -0.01332966       0.01749534
O       -2.49320639       6.37122818       3.76705712       23       0.01423234      -0.01501833      -0.00897818
O        3.63808708       2.03574898       7.98988093       24      -0.01890353       0.00841227       0.00897818
O        5.69303963      -1.84598060       4.07090158       25      -0.01423234       0.01501833       0.00897818
O        6.83792032       3.37580457       1.68704922       26      -0.01890353      -0.01198147       0.00279615
O        3.90646009       2.33937687       4.35576404       27       0.01423234      -0.00026617       0.01749534
O        0.70662685       4.86513767       7.55309624       28       0.01423234       0.01528449      -0.00851716
O        2.49320639      -0.33989010       0.28486246       29      -0.01423234      -0.01528449       0.00851716
O       -3.63808708       1.14944300       6.15090948       30       0.01890353       0.01198147      -0.00279615
O        5.24814623       0.89726524       2.12383391       31      -0.00966624       0.00188053       0.02029149
O        0.90343230       1.54078322       6.04281326       32      -0.00499506       0.00848658       0.02029149
O        3.63808708      -0.88630598       5.99898726       33      -0.01890353       0.00356919      -0.01177433
O        2.04831299      -0.02530295       3.63411689       34      -0.00966624      -0.01851321      -0.00851716
O        0.90343230      -2.32503316       7.40117401       35      -0.00499506       0.01332966      -0.01749534
O       -0.70662685       2.18587070       3.48219466       36      -0.01423234       0.00026617      -0.01749534
O       -0.90343230      -0.78424994       5.60602857       37       0.00499506       0.02181624       0.00279615
O       -0.43825384       5.41155355       1.83897144       38       0.01890353      -0.00356919       0.01177433
O        4.35135349       5.39720986       5.75795080       39       0.00966624      -0.01663269       0.01177433
40