40
Lattice="9.599499727659992 7.523810564712387e-10 2.876848263196517e-14 -3.1998332432626855 9.05049513765162 -1.3032125515905282e-09 -3.199833242198683 -4.525247568073395 7.837958706902621" Properties=species:S:1:pos:R:3:spacegroup_kinds:I:1:forces:R:3 spacegroup="P 1" unit_cell=conventional occupancy="_JSON {\"0\": {\"In\": 1}, \"1\": {\"In\": 1}, \"2\": {\"In\": 1}, \"3\": {\"In\": 1}, \"4\": {\"In\": 1}, \"5\": {\"In\": 1}, \"6\": {\"In\": 1}, \"7\": {\"In\": 1}, \"8\": {\"In\": 1}, \"9\": {\"In\": 1}, \"10\": {\"In\": 1}, \"11\": {\"In\": 1}, \"12\": {\"In\": 1}, \"13\": {\"In\": 1}, \"14\": {\"In\": 1}, \"15\": {\"In\": 1}, \"16\": {\"O\": 1}, \"17\": {\"O\": 1}, \"18\": {\"O\": 1}, \"19\": {\"O\": 1}, \"20\": {\"O\": 1}, \"21\": {\"O\": 1}, \"22\": {\"O\": 1}, \"23\": {\"O\": 1}, \"24\": {\"O\": 1}, \"25\": {\"O\": 1}, \"26\": {\"O\": 1}, \"27\": {\"O\": 1}, \"28\": {\"O\": 1}, \"29\": {\"O\": 1}, \"30\": {\"O\": 1}, \"31\": {\"O\": 1}, \"32\": {\"O\": 1}, \"33\": {\"O\": 1}, \"34\": {\"O\": 1}, \"35\": {\"O\": 1}, \"36\": {\"O\": 1}, \"37\": {\"O\": 1}, \"38\": {\"O\": 1}, \"39\": {\"O\": 1}}" n_minim_iter=8 energy=-45142.46302031145 stress="0.10647906626409485 1.0674508719097505e-13 1.695642422386449e-13 1.0674508719097505e-13 0.10647906626419898 -2.474935083945326e-14 1.695642422386449e-13 -2.474935083945326e-14 0.10647906626419577" free_energy=-45142.46302031145 pbc="T T T"
In      -4.53964871       3.21001639       6.19702658        0      -0.00572047       0.00404498      -0.00700612
In       7.73948195       1.31523118       1.64093212        1       0.00572047      -0.00404498       0.00700612
In       1.33981547      -0.94739260       5.55991148        2       0.00572047      -0.00404498       0.00700612
In      -1.59991662      -2.26262378       3.91897935        3       0.00000000      -0.00000000       0.00000000
In      -1.33981547       4.34132828       3.60042180        4      -0.00572047       0.00404498       0.00700612
In       5.05985101      -3.02609710       5.87846903        5      -0.00572047      -0.00808997       0.00000000
In      -1.33981547       1.49915047       5.87846903        6      -0.00572047      -0.00808997      -0.00000000
In      -1.86001778       7.55134467       1.95948967        7       0.00572047       0.00808997      -0.00000000
In       4.53964871       0.18391929       4.23753690        8       0.00572047      -0.00404498      -0.00700612
In      -1.59991662       4.52524757      -0.00000000        9      -0.00000000      -0.00000000       0.00000000
In       4.53964871       6.97179064       0.31855755       10       0.00572047      -0.00404498      -0.00700612
In      -1.33981547      -2.44654307       7.51940115       11      -0.00572047       0.00404498       0.00700612
In       4.53964871       3.02609710       1.95948967       12       0.00572047       0.00808997       0.00000000
In       1.86001777       5.47264017       2.27804723       13      -0.00572047       0.00404498      -0.00700612
In       4.79974986       0.00000000      -0.00000000       14       0.00000000       0.00000000       0.00000000
In       1.59991662       2.26262379       3.91897935       15      -0.00000000       0.00000000       0.00000000
O        1.16739502       4.55469840       4.20625336       16       0.00008743      -0.00368208      -0.00537377
O       -2.03243822       3.62799686       5.70932686       17       0.00008743      -0.00281278       0.00587565
O       -0.42903790       2.49422162      -0.16487554       18      -0.00609427       0.00155834      -0.00169535
O       -1.16739502      -0.86779988       2.07762152       19      -0.00008743      -0.00649486       0.00050189
O        4.09798765       5.29785652       2.24249705       20      -0.00268106       0.00551605       0.00219724
O        2.30167884       2.96949263       1.79034750       21       0.00268106       0.00085516       0.00587565
O        2.30167884       6.85361146       0.45214954       22       0.00268106       0.00466089      -0.00367842
O       -2.49458733       6.36096496       3.75410382       23      -0.00350064       0.00522628      -0.00169535
O        3.62887114       2.03102595       8.00283424       24       0.00609427      -0.00155834       0.00169535
O        5.69442057      -1.83571739       4.08385488       25       0.00350064      -0.00522628       0.00169535
O        6.82870439       3.36694820       1.67648230       26       0.00609427      -0.00068904      -0.00219724
O        3.90507915       2.33329058       4.37112890       27      -0.00350064      -0.00408135      -0.00367842
O        0.70524591       4.88148717       7.55068469       28      -0.00350064      -0.00114493       0.00537377
O        2.49458733      -0.35623959       0.28727401       29       0.00350064       0.00114493      -0.00537377
O       -3.62887115       1.15829938       6.16147640       30      -0.00609427       0.00068904       0.00219724
O        5.23227146       0.89725071       2.12863185       31      -0.00008743       0.00281278      -0.00587565
O        0.89815440       1.55575494       6.04761120       32      -0.00268106      -0.00085516      -0.00587565
O        3.62887114      -0.87272657       5.99660087       33       0.00609427       0.00224738       0.00050189
O        2.03243822      -0.02945082       3.63170534       34      -0.00008743       0.00368208       0.00537377
O        0.89815440      -2.32836389       7.38580916       35      -0.00268106      -0.00466089       0.00367842
O       -0.70524591       2.19195699       3.46682980       36       0.00350064       0.00408135       0.00367842
O       -0.89815441      -0.77260895       5.59546165       37       0.00268106      -0.00551605      -0.00219724
O       -0.42903790       5.39797414       1.84135783       38      -0.00609427      -0.00224738      -0.00050189
O        4.36722826       5.39304746       5.76033718       39       0.00008743       0.00649486      -0.00050189
