40
Lattice="8.603848728821957 6.743444156220778e-10 7.919571872668556e-15 -2.8679495769097647 8.111786373712901 -1.1680118353798302e-09 -2.8679495759561013 -4.0558931861820975 7.025013070486497" Properties=species:S:1:pos:R:3:spacegroup_kinds:I:1:forces:R:3 spacegroup="P 1" unit_cell=conventional occupancy="_JSON {\"0\": {\"In\": 1}, \"1\": {\"In\": 1}, \"2\": {\"In\": 1}, \"3\": {\"In\": 1}, \"4\": {\"In\": 1}, \"5\": {\"In\": 1}, \"6\": {\"In\": 1}, \"7\": {\"In\": 1}, \"8\": {\"In\": 1}, \"9\": {\"In\": 1}, \"10\": {\"In\": 1}, \"11\": {\"In\": 1}, \"12\": {\"In\": 1}, \"13\": {\"In\": 1}, \"14\": {\"In\": 1}, \"15\": {\"In\": 1}, \"16\": {\"O\": 1}, \"17\": {\"O\": 1}, \"18\": {\"O\": 1}, \"19\": {\"O\": 1}, \"20\": {\"O\": 1}, \"21\": {\"O\": 1}, \"22\": {\"O\": 1}, \"23\": {\"O\": 1}, \"24\": {\"O\": 1}, \"25\": {\"O\": 1}, \"26\": {\"O\": 1}, \"27\": {\"O\": 1}, \"28\": {\"O\": 1}, \"29\": {\"O\": 1}, \"30\": {\"O\": 1}, \"31\": {\"O\": 1}, \"32\": {\"O\": 1}, \"33\": {\"O\": 1}, \"34\": {\"O\": 1}, \"35\": {\"O\": 1}, \"36\": {\"O\": 1}, \"37\": {\"O\": 1}, \"38\": {\"O\": 1}, \"39\": {\"O\": 1}}" n_minim_iter=4 energy=-45148.90819725265 stress="-0.12186804798105982 2.2129653343924769e-13 1.9494725470288122e-13 2.2129653343924769e-13 -0.12186804798086374 -1.8159565219922992e-13 1.9494725470288122e-13 -1.8159565219922992e-13 -0.12186804798131219" free_energy=-45148.90819725265 pbc="T T T"
In      -4.10321962       2.90141442       5.51212242        0      -0.00286232       0.00202397      -0.00350562
In       6.97116919       1.15447877       1.51289065        1       0.00286232      -0.00202397       0.00350562
In       1.23527004      -0.87346782       5.02539718        2       0.00286232      -0.00202397       0.00350562
In      -1.43397479      -2.02794659       3.51250653        3      -0.00000000      -0.00000000      -0.00000000
In      -1.23527004       3.91538771       3.26914391        4      -0.00286232       0.00202397       0.00350562
In       4.50062911      -2.76090894       5.26875980        5      -0.00286232      -0.00404794       0.00000000
In      -1.23527004       1.29498425       5.26875980        6      -0.00286232      -0.00404794       0.00000000
In      -1.63267954       6.81680213       1.75625326        7       0.00286232       0.00404794      -0.00000000
In       4.10321962       0.14050548       3.75586915        8       0.00286232      -0.00202397      -0.00350562
In      -1.43397479       4.05589319      -0.00000000        9      -0.00000000      -0.00000000       0.00000000
In       4.10321962       6.22434526       0.24336262       10       0.00286232      -0.00202397      -0.00350562
In      -1.23527004      -2.16845207       6.78165045       11      -0.00286232       0.00202397       0.00350562
In       4.10321962       2.76090894       1.75625326       12       0.00286232       0.00404794       0.00000000
In       1.63267953       4.92936101       1.99961588       13      -0.00286232       0.00202397      -0.00350562
In       4.30192436       0.00000000      -0.00000000       14       0.00000000      -0.00000000       0.00000000
In       1.43397479       2.02794660       3.51250653       15      -0.00000000      -0.00000000       0.00000000
O        0.82584939       4.05014469       3.84839419       16      -0.00253575      -0.00213169      -0.00220584
O       -2.04210018       3.33568138       5.10579432       17      -0.00253575      -0.00084446       0.00294902
O       -0.40915881       2.18101746       0.08071782       18      -0.00365120      -0.00005572       0.00158288
O       -0.82584940      -0.72596030       1.92917544       19       0.00253575      -0.00297616       0.00074318
O        3.82561062       4.82845595       1.84845761       20       0.00004908       0.00389003      -0.00083969
O        1.91028852       2.84136332       1.59328778       21      -0.00004908       0.00267221       0.00294902
O        1.91028852       6.04298582       0.25516983       22      -0.00004908       0.00121782      -0.00378871
O       -2.19266925       5.74259258       3.59322436       23      -0.00116453       0.00346095       0.00158288
O        3.27710838       1.87487573       6.94429524       24       0.00365120       0.00005572      -0.00158288
O        5.06061883      -1.68669939       3.43178871       25       0.00116453      -0.00346095      -0.00158288
O        6.14505796       3.18835901       1.66404892       26       0.00365120       0.00134295       0.00083969
O        3.54322990       2.26847388       3.76767636       27      -0.00116453      -0.00035966      -0.00378871
O        0.67528032       4.15661310       6.68912541       28      -0.00116453      -0.00310129       0.00220584
O        2.19266925      -0.10071991       0.33588765       29       0.00116453       0.00310129      -0.00220584
O       -3.27710838       0.86753418       5.36096415       30      -0.00365120      -0.00134295      -0.00083969
O        4.91004976       0.72021181       1.91921875       31       0.00253575       0.00084446      -0.00294902
O        0.95766105       1.21452987       5.43172528       32       0.00004908      -0.00267221      -0.00294902
O        3.27710838      -1.00734155       5.44168197       33       0.00365120      -0.00139867       0.00074318
O        2.04210018       0.00574850       3.17661888       34       0.00253575       0.00213169       0.00220584
O        0.95766105      -1.98709263       6.76984324       35       0.00004908      -0.00121782       0.00378871
O       -0.67528033       1.78741931       3.25733670       36       0.00116453       0.00035966       0.00378871
O       -0.95766105      -0.77256276       5.17655545       37      -0.00004908      -0.00389003       0.00083969
O       -0.40915881       5.06323474       1.58333109       38      -0.00365120       0.00139867      -0.00074318
O        3.69379897       4.78185349       5.09583763       39      -0.00253575       0.00297616      -0.00074318
