40
Lattice="9.128822253278415 7.154930683072016e-10 3.9486862845427326e-15 -3.0429407517673788 8.606736159147934 -1.2392799257308526e-09 -3.042940750755521 -4.303368078858466 7.453652158318401" Properties=species:S:1:pos:R:3:spacegroup_kinds:I:1:forces:R:3 spacegroup="P 1" unit_cell=conventional occupancy="_JSON {\"0\": {\"In\": 1}, \"1\": {\"In\": 1}, \"2\": {\"In\": 1}, \"3\": {\"In\": 1}, \"4\": {\"In\": 1}, \"5\": {\"In\": 1}, \"6\": {\"In\": 1}, \"7\": {\"In\": 1}, \"8\": {\"In\": 1}, \"9\": {\"In\": 1}, \"10\": {\"In\": 1}, \"11\": {\"In\": 1}, \"12\": {\"In\": 1}, \"13\": {\"In\": 1}, \"14\": {\"In\": 1}, \"15\": {\"In\": 1}, \"16\": {\"O\": 1}, \"17\": {\"O\": 1}, \"18\": {\"O\": 1}, \"19\": {\"O\": 1}, \"20\": {\"O\": 1}, \"21\": {\"O\": 1}, \"22\": {\"O\": 1}, \"23\": {\"O\": 1}, \"24\": {\"O\": 1}, \"25\": {\"O\": 1}, \"26\": {\"O\": 1}, \"27\": {\"O\": 1}, \"28\": {\"O\": 1}, \"29\": {\"O\": 1}, \"30\": {\"O\": 1}, \"31\": {\"O\": 1}, \"32\": {\"O\": 1}, \"33\": {\"O\": 1}, \"34\": {\"O\": 1}, \"35\": {\"O\": 1}, \"36\": {\"O\": 1}, \"37\": {\"O\": 1}, \"38\": {\"O\": 1}, \"39\": {\"O\": 1}}" n_minim_iter=1 energy=-45150.69230863174 stress="0.055762269176608585 -1.8705184307953676e-15 4.671495014910238e-14 -1.8705184307953676e-15 0.05576226917688409 -3.5127551277543173e-13 4.671495014910238e-14 -3.5127551277543173e-13 0.05576226917625783" free_energy=-45150.69230863174 pbc="T T T"
In      -4.35198010       3.07731464       5.85041293        0       0.03018193      -0.02134184       0.03696516
In       7.39492085       1.22605344       1.60323923        1      -0.03018193       0.02134184      -0.03696516
In       1.30903935      -0.92563060       5.33006531        2      -0.03018193       0.02134184      -0.03696516
In      -1.52147038      -2.15168404       3.72682608        3      -0.00000000      -0.00000000      -0.00000000
In      -1.30903935       4.15315666       3.46665227        4       0.03018193      -0.02134184      -0.03696516
In       4.77684215      -2.92710322       5.59023912        5       0.03018193       0.04268369      -0.00000000
In      -1.30903935       1.37626486       5.59023912        6       0.03018193       0.04268369       0.00000000
In      -1.73390140       7.23047130       1.86341304        7      -0.03018193      -0.04268369       0.00000000
In       4.35198010       0.15021142       3.98699989        8      -0.03018193       0.02134184       0.03696516
In      -1.52147038       4.30336808      -0.00000000        9      -0.00000000       0.00000000      -0.00000000
In       4.35198010       6.60526354       0.26017381       10      -0.03018193       0.02134184       0.03696516
In      -1.30903935      -2.30189546       7.19347834       11       0.03018193      -0.02134184      -0.03696516
In       4.35198010       2.92710322       1.86341304       12      -0.03018193      -0.04268369      -0.00000000
In       1.73390140       5.22899868       2.12358685       13       0.03018193      -0.02134184       0.03696516
In       4.56441113       0.00000000      -0.00000000       14      -0.00000000       0.00000000       0.00000000
In       1.52147037       2.15168404       3.72682608       15       0.00000000      -0.00000000       0.00000000
O        0.92263328       4.30825391       4.04672923       16       0.02316171       0.01871653      -0.04417195
O       -2.12030747       3.50212741       5.42605628       17       0.02316171      -0.04761229       0.00587699
O       -0.44326612       2.31628010       0.02635192       18      -0.01952262      -0.01742991      -0.04640043
O       -0.92263328      -0.79635484       2.01913336       19      -0.02316171      -0.02889577      -0.03829496
O        4.00860654       5.11493722       1.99278144       20      -0.05260987       0.00210647       0.00810546
O        2.07727496       2.98335330       1.69923021       21       0.05260987      -0.00596630       0.00587699
O        2.07727496       6.43495200       0.29355123       22       0.05260987       0.00807277       0.00222848
O       -2.33156519       6.10087406       3.75317800       23       0.00992554       0.02421608      -0.04640043
O        3.48620687       1.98708799       7.42730023       24       0.01952262       0.01742991       0.04640043
O        5.37450594      -1.79750598       3.70047415       25      -0.00992554      -0.02421608       0.04640043
O        6.52914762       3.33264553       1.73404463       26       0.01952262      -0.04889890      -0.00810546
O        3.75431631       2.35159451       4.02037731       27       0.00992554      -0.05229198       0.00222848
O        0.71137556       4.45763568       7.13374900       28       0.00992554       0.02807591       0.04417195
O        2.33156519      -0.15426759       0.31990316       29      -0.00992554      -0.02807591      -0.04417195
O       -3.48620687       0.97072256       5.71960752       30      -0.01952262       0.04889890       0.00810546
O        5.16324822       0.80124068       2.02759587       31      -0.02316171       0.04761229      -0.00587699
O        0.96566579       1.32001479       5.75442195       32      -0.05260987       0.00596630      -0.00587699
O        3.48620687      -1.01636543       5.74595944       33       0.01952262       0.03146899      -0.03829496
O        2.12030747      -0.00488583       3.40692292       34      -0.02316171      -0.01871653       0.04417195
O        0.96566579      -2.13158392       7.16010092       35      -0.05260987      -0.00807277      -0.00222848
O       -0.71137556       1.95177358       3.43327484       36      -0.00992554       0.05229198      -0.00222848
O       -0.96566579      -0.81156913       5.46087071       37       0.05260987      -0.00210647      -0.00810546
O       -0.44326612       5.31973351       1.70769271       38      -0.01952262      -0.03146899       0.03829496
O        3.96557403       5.09972293       5.43451879       39       0.02316171       0.02889577       0.03829496
40
Lattice="9.128822253278411 7.154930683072017e-10 3.948686284542732e-15 -3.042940751767379 8.60673615914793 -1.2392799257308528e-09 -3.0429407507555215 -4.3033680788584645 7.453652158318402" Properties=species:S:1:pos:R:3:spacegroup_kinds:I:1:forces:R:3 spacegroup="P 1" unit_cell=conventional occupancy="_JSON {\"0\": {\"In\": 1}, \"1\": {\"In\": 1}, \"2\": {\"In\": 1}, \"3\": {\"In\": 1}, \"4\": {\"In\": 1}, \"5\": {\"In\": 1}, \"6\": {\"In\": 1}, \"7\": {\"In\": 1}, \"8\": {\"In\": 1}, \"9\": {\"In\": 1}, \"10\": {\"In\": 1}, \"11\": {\"In\": 1}, \"12\": {\"In\": 1}, \"13\": {\"In\": 1}, \"14\": {\"In\": 1}, \"15\": {\"In\": 1}, \"16\": {\"O\": 1}, \"17\": {\"O\": 1}, \"18\": {\"O\": 1}, \"19\": {\"O\": 1}, \"20\": {\"O\": 1}, \"21\": {\"O\": 1}, \"22\": {\"O\": 1}, \"23\": {\"O\": 1}, \"24\": {\"O\": 1}, \"25\": {\"O\": 1}, \"26\": {\"O\": 1}, \"27\": {\"O\": 1}, \"28\": {\"O\": 1}, \"29\": {\"O\": 1}, \"30\": {\"O\": 1}, \"31\": {\"O\": 1}, \"32\": {\"O\": 1}, \"33\": {\"O\": 1}, \"34\": {\"O\": 1}, \"35\": {\"O\": 1}, \"36\": {\"O\": 1}, \"37\": {\"O\": 1}, \"38\": {\"O\": 1}, \"39\": {\"O\": 1}}" n_minim_iter=2 energy=-45150.697538646404 stress="0.05529206208711248 7.449636932596016e-14 1.7855619074229836e-13 7.449636932596016e-14 0.055292062087096486 -1.1357795364573408e-14 1.7855619074229836e-13 -1.1357795364573408e-14 0.05529206208702516" free_energy=-45150.697538646404 pbc="T T T"
In      -4.34982425       3.07579022       5.85305329        0       0.01307279      -0.00924386       0.01601083
In       7.39276500       1.22757786       1.60059886        1      -0.01307279       0.00924386      -0.01601083
In       1.30688350      -0.92410618       5.32742494        2      -0.01307279       0.00924386      -0.01601083
In      -1.52147038      -2.15168404       3.72682608        3      -0.00000000       0.00000000      -0.00000000
In      -1.30688350       4.15163224       3.46401190        4       0.01307279      -0.00924386      -0.01601083
In       4.77899800      -2.92405438       5.59023912        5       0.01307279       0.01848772       0.00000000
In      -1.30688350       1.37931370       5.59023912        6       0.01307279       0.01848772       0.00000000
In      -1.73605726       7.22742247       1.86341304        7      -0.01307279      -0.01848772      -0.00000000
In       4.34982425       0.15173584       3.98964026        8      -0.01307279       0.00924386       0.01601083
In      -1.52147038       4.30336808      -0.00000000        9      -0.00000000       0.00000000       0.00000000
In       4.34982425       6.60678796       0.26281418       10      -0.01307279       0.00924386       0.01601083
In      -1.30688350      -2.30341987       7.19083798       11       0.01307279      -0.00924386      -0.01601083
In       4.34982425       2.92405439       1.86341304       12      -0.01307279      -0.01848772      -0.00000000
In       1.73605725       5.22747426       2.12622722       13       0.01307279      -0.00924386       0.01601083
In       4.56441113       0.00000000      -0.00000000       14       0.00000000       0.00000000      -0.00000000
In       1.52147037       2.15168404       3.72682608       15       0.00000000       0.00000000      -0.00000000
O        0.92428768       4.30959081       4.04357409       16       0.02542661       0.01058889      -0.01150410
O       -2.11865307       3.49872653       5.42647607       17       0.02542661      -0.01525729      -0.00341819
O       -0.44466060       2.31503510       0.02303761       18       0.00407413      -0.00015880      -0.02956953
O       -0.92428769      -0.79841883       2.01639801       19      -0.02542661      -0.00466840      -0.01492229
O        4.00484869       5.11508768       1.99336040       20      -0.02286024      -0.01240358       0.01464724
O        2.08103281       2.98292713       1.69964999       21       0.02286024      -0.01888667      -0.00341819
O        2.08103281       6.43552863       0.29371041       22       0.02286024       0.00648309       0.01806543
O       -2.33085622       6.10260378       3.74986368       23       0.00150776      -0.00378819      -0.02956953
O        3.48760134       1.98833298       7.43061455       24      -0.00407413       0.00015880       0.02956953
O        5.37379697      -1.79923570       3.70378847       25      -0.00150776       0.00378819       0.02956953
O        6.53054209       3.32915275       1.73346567       26      -0.00407413      -0.02568737      -0.01464724
O        3.75502528       2.34785937       4.02053649       27       0.00150776      -0.02371387       0.01806543
O        0.71208453       4.45964110       7.13690414       28       0.00150776       0.02750206       0.01150410
O        2.33085622      -0.15627301       0.31674802       29      -0.00150776      -0.02750206      -0.01150410
O       -3.48760135       0.97421534       5.72018648       30       0.00407413       0.02568737       0.01464724
O        5.16159381       0.80464155       2.02717608       31      -0.02542661       0.01525729       0.00341819
O        0.96190794       1.32044095       5.75400216       32      -0.02286024       0.01888667       0.00341819
O        3.48760134      -1.01411764       5.74322409       33      -0.00407413       0.02552857      -0.01492229
O        2.11865306      -0.00622272       3.41007806       34      -0.02542661      -0.01058889       0.01150410
O        0.96190794      -2.13216054       7.15994175       35      -0.02286024      -0.00648309      -0.01806543
O       -0.71208453       1.95550872       3.43311567       36      -0.00150776       0.02371387      -0.01806543
O       -0.96190794      -0.81171959       5.46029175       37       0.02286024       0.01240358      -0.01464724
O       -0.44466060       5.31748573       1.71042806       38       0.00407413      -0.02552857       0.01492229
O        3.96722843       5.10178691       5.43725414       39       0.02542661       0.00466840       0.01492229
40
Lattice="9.128822253278411 7.154930683072017e-10 3.948686284542732e-15 -3.042940751767379 8.60673615914793 -1.2392799257308528e-09 -3.0429407507555215 -4.3033680788584645 7.453652158318402" Properties=species:S:1:pos:R:3:spacegroup_kinds:I:1:forces:R:3 spacegroup="P 1" unit_cell=conventional occupancy="_JSON {\"0\": {\"In\": 1}, \"1\": {\"In\": 1}, \"2\": {\"In\": 1}, \"3\": {\"In\": 1}, \"4\": {\"In\": 1}, \"5\": {\"In\": 1}, \"6\": {\"In\": 1}, \"7\": {\"In\": 1}, \"8\": {\"In\": 1}, \"9\": {\"In\": 1}, \"10\": {\"In\": 1}, \"11\": {\"In\": 1}, \"12\": {\"In\": 1}, \"13\": {\"In\": 1}, \"14\": {\"In\": 1}, \"15\": {\"In\": 1}, \"16\": {\"O\": 1}, \"17\": {\"O\": 1}, \"18\": {\"O\": 1}, \"19\": {\"O\": 1}, \"20\": {\"O\": 1}, \"21\": {\"O\": 1}, \"22\": {\"O\": 1}, \"23\": {\"O\": 1}, \"24\": {\"O\": 1}, \"25\": {\"O\": 1}, \"26\": {\"O\": 1}, \"27\": {\"O\": 1}, \"28\": {\"O\": 1}, \"29\": {\"O\": 1}, \"30\": {\"O\": 1}, \"31\": {\"O\": 1}, \"32\": {\"O\": 1}, \"33\": {\"O\": 1}, \"34\": {\"O\": 1}, \"35\": {\"O\": 1}, \"36\": {\"O\": 1}, \"37\": {\"O\": 1}, \"38\": {\"O\": 1}, \"39\": {\"O\": 1}}" n_minim_iter=3 energy=-45150.699155562754 stress="0.054860910290592216 4.028171654230935e-14 -7.787531226576113e-14 4.028171654230935e-14 0.05486091029048717 -1.0773580119120784e-13 -7.787531226576113e-14 -1.0773580119120784e-13 0.05486091029076549" free_energy=-45150.699155562754 pbc="T T T"
In      -4.34797948       3.07448578       5.85531266        0      -0.00099730       0.00070520      -0.00122144
In       7.39092023       1.22888231       1.59833949        1       0.00099730      -0.00070520       0.00122144
In       1.30503873      -0.92280173       5.32516557        2       0.00099730      -0.00070520       0.00122144
In      -1.52147038      -2.15168404       3.72682608        3      -0.00000000       0.00000000      -0.00000000
In      -1.30503873       4.15032780       3.46175253        4      -0.00099730       0.00070520       0.00122144
In       4.78084277      -2.92144549       5.59023912        5      -0.00099730      -0.00141040      -0.00000000
In      -1.30503873       1.38192259       5.59023912        6      -0.00099730      -0.00141040      -0.00000000
In      -1.73790202       7.22481357       1.86341304        7       0.00099730       0.00141040      -0.00000000
In       4.34797948       0.15304029       3.99189963        8       0.00099730      -0.00070520      -0.00122144
In      -1.52147038       4.30336808      -0.00000000        9      -0.00000000      -0.00000000       0.00000000
In       4.34797948       6.60809241       0.26507355       10       0.00099730      -0.00070520      -0.00122144
In      -1.30503873      -2.30472432       7.18857861       11      -0.00099730       0.00070520       0.00122144
In       4.34797948       2.92144549       1.86341304       12       0.00099730       0.00141040      -0.00000000
In       1.73790202       5.22616982       2.12848659       13      -0.00099730       0.00070520      -0.00122144
In       4.56441113       0.00000000      -0.00000000       14       0.00000000      -0.00000000      -0.00000000
In       1.52147037       2.15168404       3.72682608       15      -0.00000000      -0.00000000       0.00000000
O        0.92610239       4.31079913       4.04107196       16       0.02622477       0.00233945       0.01498555
O       -2.11683837       3.49595545       5.42668070       17       0.02622477       0.01180815      -0.00951880
O       -0.44552908       2.31416132       0.01995603       18       0.02208007       0.01473889      -0.01459500
O       -0.92610239      -0.79998158       2.01410050       19      -0.02622477       0.01414760       0.00546676
O        4.00163120       5.11487128       1.99414447       20       0.00239124      -0.02257402       0.02006175
O        2.08425030       2.98213991       1.69985462       21      -0.00239124      -0.02866100      -0.00951880
O        2.08425030       6.43609946       0.29428985       22      -0.00239124       0.00608698       0.02958055
O       -2.33032191       6.10371385       3.74678211       23      -0.00653594      -0.02573025      -0.01459500
O        3.48846982       1.98920676       7.43369613       24      -0.02208007      -0.01473889       0.01459500
O        5.37326266      -1.80034577       3.70687005       25       0.00653594       0.02573025       0.01459500
O        6.53141057       3.32604713       1.73268160       26      -0.02208007      -0.00527019      -0.02006175
O        3.75555959       2.34463560       4.02111593       27      -0.00653594       0.00022549       0.02958055
O        0.71261884       4.46175479       7.13940627       28      -0.00653594       0.02550477      -0.01498555
O        2.33032191      -0.15838670       0.31424588       29       0.00653594      -0.02550477       0.01498555
O       -3.48846983       0.97732095       5.72097055       30       0.02208007       0.00527019       0.02006175
O        5.15977911       0.80741263       2.02697145       31      -0.02622477      -0.01180815       0.00951880
O        0.95869044       1.32122818       5.75379753       32       0.00239124       0.02866100       0.00951880
O        3.48846982      -1.01188581       5.74092658       33      -0.02208007       0.02000909       0.00546676
O        2.11683836      -0.00743104       3.41258020       34      -0.02622477      -0.00233945      -0.01498555
O        0.95869045      -2.13273137       7.15936231       35       0.00239124      -0.00608698      -0.02958055
O       -0.71261885       1.95873248       3.43253623       36       0.00653594      -0.00022549      -0.02958055
O       -0.95869045      -0.81150320       5.45950768       37      -0.00239124       0.02257402      -0.02006175
O       -0.44552908       5.31525389       1.71272557       38       0.02208007      -0.02000909      -0.00546676
O        3.96904314       5.10334967       5.43955165       39       0.02622477      -0.01414760      -0.00546676
40
Lattice="9.128822253278418 7.154930683072026e-10 3.948686284542757e-15 -3.042940751767383 8.606736159147935 -1.2392799257308547e-09 -3.0429407507555255 -4.303368078858467 7.453652158318412" Properties=species:S:1:pos:R:3:spacegroup_kinds:I:1:forces:R:3 spacegroup="P 1" unit_cell=conventional occupancy="_JSON {\"0\": {\"In\": 1}, \"1\": {\"In\": 1}, \"2\": {\"In\": 1}, \"3\": {\"In\": 1}, \"4\": {\"In\": 1}, \"5\": {\"In\": 1}, \"6\": {\"In\": 1}, \"7\": {\"In\": 1}, \"8\": {\"In\": 1}, \"9\": {\"In\": 1}, \"10\": {\"In\": 1}, \"11\": {\"In\": 1}, \"12\": {\"In\": 1}, \"13\": {\"In\": 1}, \"14\": {\"In\": 1}, \"15\": {\"In\": 1}, \"16\": {\"O\": 1}, \"17\": {\"O\": 1}, \"18\": {\"O\": 1}, \"19\": {\"O\": 1}, \"20\": {\"O\": 1}, \"21\": {\"O\": 1}, \"22\": {\"O\": 1}, \"23\": {\"O\": 1}, \"24\": {\"O\": 1}, \"25\": {\"O\": 1}, \"26\": {\"O\": 1}, \"27\": {\"O\": 1}, \"28\": {\"O\": 1}, \"29\": {\"O\": 1}, \"30\": {\"O\": 1}, \"31\": {\"O\": 1}, \"32\": {\"O\": 1}, \"33\": {\"O\": 1}, \"34\": {\"O\": 1}, \"35\": {\"O\": 1}, \"36\": {\"O\": 1}, \"37\": {\"O\": 1}, \"38\": {\"O\": 1}, \"39\": {\"O\": 1}}" n_minim_iter=4 energy=-45150.70099441325 stress="0.054201321878748564 1.7936682613998013e-14 -1.2523321609850196e-13 1.7936682613998013e-14 0.05420132187869698 4.427149747284937e-14 -1.2523321609850196e-13 4.427149747284937e-14 0.054201321878443065" free_energy=-45150.70099441325 pbc="T T T"
In      -4.34542696       3.07268087       5.85843885        0      -0.01214418       0.00858723      -0.01487353
In       7.38836771       1.23068721       1.59521330        1       0.01214418      -0.00858723       0.01487353
In       1.30248620      -0.92099683       5.32203938        2       0.01214418      -0.00858723       0.01487353
In      -1.52147038      -2.15168404       3.72682608        3      -0.00000000       0.00000000      -0.00000000
In      -1.30248621       4.14852289       3.45862634        4      -0.01214418       0.00858723       0.01487353
In       4.78339530      -2.91783567       5.59023912        5      -0.01214418      -0.01717447       0.00000000
In      -1.30248621       1.38553241       5.59023912        6      -0.01214418      -0.01717447       0.00000000
In      -1.74045455       7.22120376       1.86341304        7       0.01214418       0.01717447       0.00000000
In       4.34542695       0.15484519       3.99502582        8       0.01214418      -0.00858723      -0.01487353
In      -1.52147038       4.30336808      -0.00000000        9       0.00000000       0.00000000      -0.00000000
In       4.34542695       6.60989731       0.26819974       10       0.01214418      -0.00858723      -0.01487353
In      -1.30248621      -2.30652923       7.18545242       11      -0.01214418       0.00858723       0.01487353
In       4.34542695       2.91783568       1.86341304       12       0.01214418       0.01717447       0.00000000
In       1.74045454       5.22436491       2.13161278       13      -0.01214418       0.00858723      -0.01487353
In       4.56441113       0.00000000      -0.00000000       14       0.00000000       0.00000000       0.00000000
In       1.52147037       2.15168404       3.72682608       15       0.00000000       0.00000000       0.00000000
O        0.93272957       4.31291467       4.03967352       16       0.01840620      -0.01521476       0.03287544
O       -2.11021118       3.49368660       5.42554781       17       0.01840620       0.03607834      -0.00326135
O       -0.44346456       2.31511876       0.01323503       18       0.02580578       0.03084605       0.00580124
O       -0.93272957      -0.80013489       2.01156917       19      -0.01840620       0.02086358       0.02961409
O        3.99728304       5.11114423       1.99833413       20       0.02787959      -0.01751424       0.02381284
O        2.08859846       2.97664803       1.69872173       21      -0.02787959      -0.02937964      -0.00326135
O        2.08859846       6.43786428       0.29961240       22      -0.02787959       0.01186541       0.02707419
O       -2.33053641       6.10144826       3.74006111       23      -0.02048001      -0.03461194       0.00580124
O        3.48640531       1.98824933       7.44041712       24      -0.02580578      -0.03084605      -0.00580124
O        5.37347716      -1.79808018       3.71359104       25       0.02048001       0.03461194      -0.00580124
O        6.52934606       3.32070529       1.72849194       26      -0.02580578       0.02044705      -0.02381284
O        3.75534509       2.33994785       4.02643848       27      -0.02048001       0.02232999       0.02707419
O        0.71240434       4.46870814       7.14080471       28      -0.02048001       0.01228194      -0.03287544
O        2.33053641      -0.16534005       0.31284744       29       0.02048001      -0.01228194       0.03287544
O       -3.48640531       0.98266279       5.72516021       30       0.02580578      -0.02044705       0.02381284
O        5.15315193       0.80968149       2.02810435       31      -0.01840620      -0.03607834       0.00326135
O        0.95434229       1.32672006       5.75493043       32       0.02787959       0.02937964       0.00326135
O        3.48640531      -1.00558653       5.73839525       33      -0.02580578       0.01039900       0.02961409
O        2.11021118      -0.00954659       3.41397864       34      -0.01840620       0.01521476      -0.03287544
O        0.95434229      -2.13449620       7.15403975       35       0.02787959      -0.01186541      -0.02707419
O       -0.71240434       1.96342024       3.42721367       36       0.02048001      -0.02232999      -0.02707419
O       -0.95434229      -0.80777614       5.45531802       37      -0.02787959       0.01751424      -0.02381284
O       -0.44346456       5.30895462       1.71525691       38       0.02580578      -0.01039900      -0.02961409
O        3.97567032       5.10350298       5.44208298       39       0.01840620      -0.02086358      -0.02961409
40
Lattice="9.12882225327844 7.154930683072041e-10 3.948686284542805e-15 -3.0429407517673894 8.606736159147953 -1.2392799257308576e-09 -3.0429407507555317 -4.303368078858476 7.453652158318428" Properties=species:S:1:pos:R:3:spacegroup_kinds:I:1:forces:R:3 spacegroup="P 1" unit_cell=conventional occupancy="_JSON {\"0\": {\"In\": 1}, \"1\": {\"In\": 1}, \"2\": {\"In\": 1}, \"3\": {\"In\": 1}, \"4\": {\"In\": 1}, \"5\": {\"In\": 1}, \"6\": {\"In\": 1}, \"7\": {\"In\": 1}, \"8\": {\"In\": 1}, \"9\": {\"In\": 1}, \"10\": {\"In\": 1}, \"11\": {\"In\": 1}, \"12\": {\"In\": 1}, \"13\": {\"In\": 1}, \"14\": {\"In\": 1}, \"15\": {\"In\": 1}, \"16\": {\"O\": 1}, \"17\": {\"O\": 1}, \"18\": {\"O\": 1}, \"19\": {\"O\": 1}, \"20\": {\"O\": 1}, \"21\": {\"O\": 1}, \"22\": {\"O\": 1}, \"23\": {\"O\": 1}, \"24\": {\"O\": 1}, \"25\": {\"O\": 1}, \"26\": {\"O\": 1}, \"27\": {\"O\": 1}, \"28\": {\"O\": 1}, \"29\": {\"O\": 1}, \"30\": {\"O\": 1}, \"31\": {\"O\": 1}, \"32\": {\"O\": 1}, \"33\": {\"O\": 1}, \"34\": {\"O\": 1}, \"35\": {\"O\": 1}, \"36\": {\"O\": 1}, \"37\": {\"O\": 1}, \"38\": {\"O\": 1}, \"39\": {\"O\": 1}}" n_minim_iter=5 energy=-45150.704111957166 stress="0.054209543692785515 2.5599234564165597e-14 3.568102889901577e-13 2.5599234564165597e-14 0.05420954369242107 5.0248692387486106e-14 3.568102889901577e-13 5.0248692387486106e-14 0.05420954369237581" free_energy=-45150.704111957166 pbc="T T T"
In      -4.34551565       3.07274359       5.85833023        0       0.00626029      -0.00442669       0.00766726
In       7.38845640       1.23062450       1.59532192        1      -0.00626029       0.00442669      -0.00766726
In       1.30257490      -0.92105954       5.32214800        2      -0.00626029       0.00442669      -0.00766726
In      -1.52147038      -2.15168404       3.72682608        3      -0.00000000       0.00000000      -0.00000000
In      -1.30257490       4.14858561       3.45873496        4       0.00626029      -0.00442669      -0.00766726
In       4.78330660      -2.91796110       5.59023912        5       0.00626029       0.00885338      -0.00000000
In      -1.30257490       1.38540697       5.59023912        6       0.00626029       0.00885338      -0.00000000
In      -1.74036585       7.22132919       1.86341304        7      -0.00626029      -0.00885338       0.00000000
In       4.34551565       0.15478248       3.99491719        8      -0.00626029       0.00442669       0.00766726
In      -1.52147038       4.30336808      -0.00000000        9       0.00000000      -0.00000000      -0.00000000
In       4.34551565       6.60983460       0.26809111       10      -0.00626029       0.00442669       0.00766726
In      -1.30257490      -2.30646651       7.18556104       11       0.00626029      -0.00442669      -0.00766726
In       4.34551565       2.91796111       1.86341304       12      -0.00626029      -0.00885338       0.00000000
In       1.74036585       5.22442763       2.13150415       13       0.00626029      -0.00442669       0.00766726
In       4.56441113       0.00000000      -0.00000000       14      -0.00000000      -0.00000000      -0.00000000
In       1.52147037       2.15168404       3.72682608       15      -0.00000000       0.00000000       0.00000000
O        0.94009811       4.31326679       4.04357613       16       0.00339694      -0.02080673      -0.00436213
O       -2.10284264       3.49689030       5.42329155       17       0.00339694       0.00662565       0.02020022
O       -0.43765591       2.31942547       0.00906830       18      -0.01223773       0.01768103       0.00105173
O       -0.94009812      -0.79657907       2.01321553       19      -0.00339694      -0.01418108       0.01583809
O        3.99784733       5.10518274       2.00414723       20       0.00511441       0.01478829       0.01478636
O        2.08803416       2.96863299       1.69646547       21      -0.00511441      -0.00541122       0.02020022
O        2.08803416       6.43991782       0.30768175       22      -0.00511441       0.02019951      -0.00541386
O       -2.33266061       6.09453625       3.73589437       23      -0.02074908       0.00564417       0.00105173
O        3.48059666       1.98394261       7.44458386       24       0.01223773      -0.01768103      -0.00105173
O        5.37560136      -1.79116816       3.71775778       25       0.02074908      -0.00564417      -0.00105173
O        6.52353741       3.31925016       1.72267884       26       0.01223773       0.00975134      -0.01478636
O        3.75322089       2.33979536       4.03450783       27      -0.02074908      -0.00191126      -0.00541386
O        0.71028014       4.47577264       7.13690210       28      -0.02074908      -0.00373291       0.00436213
O        2.33266061      -0.17240456       0.31675005       29       0.02074908       0.00373291      -0.00436213
O       -3.48059666       0.98411793       5.73097331       30      -0.01223773      -0.00975134       0.01478636
O        5.14578339       0.80647778       2.03036060       31      -0.00339694      -0.00662565      -0.02020022
O        0.95490658       1.33473509       5.75718668       32       0.00511441       0.00541122      -0.02020022
O        3.48059666      -0.99982468       5.74004161       33       0.01223773       0.00792969       0.01583809
O        2.10284263      -0.00989871       3.41007602       34      -0.00339694       0.02080673       0.00436213
O        0.95490658      -2.13654974       7.14597040       35       0.00511441      -0.02019951       0.00541386
O       -0.71028014       1.96357273       3.41914432       36       0.02074908       0.00191126       0.00541386
O       -0.95490659      -0.80181465       5.44950492       37      -0.00511441      -0.01478829      -0.01478636
O       -0.43765591       5.30319276       1.71361055       38      -0.01223773      -0.00792969      -0.01583809
O        3.98303886       5.09994715       5.44043662       39       0.00339694       0.01418108      -0.01583809
40