40
Lattice="9.469760854354957 7.422126297188778e-10 2.1339779087009868e-14 -3.156586952151418 8.928176154858331 -1.2855949492181642e-09 -3.1565869511017888 -4.464088076686921 7.732027360426831" Properties=species:S:1:pos:R:3:spacegroup_kinds:I:1:forces:R:3 spacegroup="P 1" unit_cell=conventional occupancy="_JSON {\"0\": {\"In\": 1}, \"1\": {\"In\": 1}, \"2\": {\"In\": 1}, \"3\": {\"In\": 1}, \"4\": {\"In\": 1}, \"5\": {\"In\": 1}, \"6\": {\"In\": 1}, \"7\": {\"In\": 1}, \"8\": {\"In\": 1}, \"9\": {\"In\": 1}, \"10\": {\"In\": 1}, \"11\": {\"In\": 1}, \"12\": {\"In\": 1}, \"13\": {\"In\": 1}, \"14\": {\"In\": 1}, \"15\": {\"In\": 1}, \"16\": {\"O\": 1}, \"17\": {\"O\": 1}, \"18\": {\"O\": 1}, \"19\": {\"O\": 1}, \"20\": {\"O\": 1}, \"21\": {\"O\": 1}, \"22\": {\"O\": 1}, \"23\": {\"O\": 1}, \"24\": {\"O\": 1}, \"25\": {\"O\": 1}, \"26\": {\"O\": 1}, \"27\": {\"O\": 1}, \"28\": {\"O\": 1}, \"29\": {\"O\": 1}, \"30\": {\"O\": 1}, \"31\": {\"O\": 1}, \"32\": {\"O\": 1}, \"33\": {\"O\": 1}, \"34\": {\"O\": 1}, \"35\": {\"O\": 1}, \"36\": {\"O\": 1}, \"37\": {\"O\": 1}, \"38\": {\"O\": 1}, \"39\": {\"O\": 1}}" n_minim_iter=8 energy=-45145.25862430118 stress="0.09764321884606114 1.5088467939326777e-13 -1.4061096738078716e-15 1.5088467939326777e-13 0.09764321884599117 -1.1417077284289812e-13 -1.4061096738078716e-15 -1.1417077284289812e-13 0.09764321884587074" free_energy=-45145.25862430118 pbc="T T T"
In      -4.48431929       3.17089258       6.10589399        0      -0.00330114       0.00233426      -0.00404305
In       7.64090624       1.29319550       1.62613337        1       0.00330114      -0.00233426       0.00404305
In       1.32773234      -0.93884854       5.49214705        2       0.00330114      -0.00233426       0.00404305
In      -1.57829348      -2.23204404       3.86601368        3       0.00000000      -0.00000000      -0.00000000
In      -1.32773234       4.28691460       3.55914021        4      -0.00330114       0.00233426       0.00404305
In       4.98544156      -2.99371909       5.79902052        5      -0.00330114      -0.00466851       0.00000000
In      -1.32773234       1.47036898       5.79902052        6      -0.00330114      -0.00466851      -0.00000000
In      -1.82885462       7.45780718       1.93300684        7       0.00330114       0.00466851       0.00000000
In       4.48431929       0.17717348       4.17288715        8       0.00330114      -0.00233426      -0.00404305
In      -1.57829348       4.46408808      -0.00000000        9       0.00000000       0.00000000      -0.00000000
In       4.48431929       6.87330560       0.30687347       10       0.00330114      -0.00233426      -0.00404305
In      -1.32773234      -2.40921752       7.42515389       11      -0.00330114       0.00233426       0.00404305
In       4.48431929       2.99371910       1.93300684       12       0.00330114       0.00466851       0.00000000
In       1.82885461       5.40293662       2.23988031       13      -0.00330114       0.00233426      -0.00404305
In       4.73488043       0.00000000      -0.00000000       14       0.00000000      -0.00000000       0.00000000
In       1.57829347       2.23204404       3.86601368       15      -0.00000000       0.00000000       0.00000000
O        1.10326787       4.48611781       4.16243345       16       0.00056699      -0.00209581      -0.00332772
O       -2.05331908       3.59375825       5.63173232       17       0.00056699      -0.00183398       0.00347888
O       -0.43202905       2.44733307      -0.11462838       18      -0.00351605       0.00105316      -0.00152179
O       -1.10326787      -0.84830010       2.06213842       19      -0.00056699      -0.00392979       0.00015117
O        4.07266747       5.24620745       2.17676680       20      -0.00191809       0.00305119       0.00167296
O        2.24050643       2.97001242       1.76571864       21       0.00191809       0.00007677       0.00347888
O        2.24050643       6.74028311       0.41104815       22       0.00191809       0.00297442      -0.00180592
O       -2.45137743       6.28767532       3.75138530       23      -0.00216494       0.00296391      -0.00152179
O        3.58861600       2.01675501       7.84665573       24       0.00351605      -0.00105316       0.00152179
O        5.60796438      -1.82358724       3.98064205       25       0.00216494      -0.00296391       0.00152179
O        6.74520295       3.35643949       1.68924688       26       0.00351605      -0.00079133      -0.00167296
O        3.86179647       2.33700136       4.27706183       27      -0.00216494      -0.00279987      -0.00180592
O        0.70520952       4.76758757       7.43560758       28      -0.00216494      -0.00016404       0.00332772
O        2.45137743      -0.30349948       0.29641978       29       0.00216494       0.00016404      -0.00332772
O       -3.58861600       1.10764859       6.04278048       30      -0.00351605       0.00079133       0.00167296
O        5.20990603       0.87032983       2.10029503       31      -0.00056699       0.00183398      -0.00347888
O        0.91608051       1.49407566       5.96630871       32      -0.00191809      -0.00007677      -0.00347888
O        3.58861600      -0.90910641       5.92815210       33       0.00351605       0.00184449       0.00015117
O        2.05331908      -0.02202973       3.56959390       34      -0.00056699       0.00209581       0.00332772
O        0.91608051      -2.27619503       7.32097920       35      -0.00191809      -0.00297442       0.00180592
O       -0.70520952       2.12708673       3.45496552       36       0.00216494       0.00279987       0.00180592
O       -0.91608052      -0.78211937       5.55526056       37       0.00191809      -0.00305119      -0.00167296
O       -0.43202905       5.37319450       1.80387525       38      -0.00351605      -0.00184449      -0.00015117
O        4.25985482       5.31238818       5.66988893       39       0.00056699       0.00392979      -0.00015117
