40
Lattice="9.26821508458038 7.26417461897357e-10 8.874107980912612e-15 -3.0894050288783372 8.73815698082751 -1.2582126375070056e-09 -3.0894050278510363 -4.369078489687321 7.5674659284917665" Properties=species:S:1:pos:R:3:spacegroup_kinds:I:1:forces:R:3 spacegroup="P 1" unit_cell=conventional occupancy="_JSON {\"0\": {\"In\": 1}, \"1\": {\"In\": 1}, \"2\": {\"In\": 1}, \"3\": {\"In\": 1}, \"4\": {\"In\": 1}, \"5\": {\"In\": 1}, \"6\": {\"In\": 1}, \"7\": {\"In\": 1}, \"8\": {\"In\": 1}, \"9\": {\"In\": 1}, \"10\": {\"In\": 1}, \"11\": {\"In\": 1}, \"12\": {\"In\": 1}, \"13\": {\"In\": 1}, \"14\": {\"In\": 1}, \"15\": {\"In\": 1}, \"16\": {\"O\": 1}, \"17\": {\"O\": 1}, \"18\": {\"O\": 1}, \"19\": {\"O\": 1}, \"20\": {\"O\": 1}, \"21\": {\"O\": 1}, \"22\": {\"O\": 1}, \"23\": {\"O\": 1}, \"24\": {\"O\": 1}, \"25\": {\"O\": 1}, \"26\": {\"O\": 1}, \"27\": {\"O\": 1}, \"28\": {\"O\": 1}, \"29\": {\"O\": 1}, \"30\": {\"O\": 1}, \"31\": {\"O\": 1}, \"32\": {\"O\": 1}, \"33\": {\"O\": 1}, \"34\": {\"O\": 1}, \"35\": {\"O\": 1}, \"36\": {\"O\": 1}, \"37\": {\"O\": 1}, \"38\": {\"O\": 1}, \"39\": {\"O\": 1}}" n_minim_iter=6 energy=-45148.89224559629 stress="0.0779559442105887 -8.395887457382275e-15 2.1500239740153737e-14 -8.395887457382275e-15 0.07795594421064674 7.504550297890348e-15 2.1500239740153737e-14 7.504550297890348e-15 0.07795594421051784" free_energy=-45148.89224559629 pbc="T T T"
In      -4.40325803       3.11357361       5.95833120        0       0.00355255      -0.00251204       0.00435097
In       7.49266306       1.25550488       1.60913472        1      -0.00355255       0.00251204      -0.00435097
In       1.31385300      -0.92903436       5.39286769        2      -0.00355255       0.00251204      -0.00435097
In      -1.54470252      -2.18453924       3.78373296        3      -0.00000000      -0.00000000      -0.00000000
In      -1.31385300       4.20584324       3.50100120        4       0.00355255      -0.00251204      -0.00435097
In       4.86495705      -2.95033835       5.67559944        5       0.00355255       0.00502407      -0.00000000
In      -1.31385300       1.41874014       5.67559944        6       0.00355255       0.00502407       0.00000000
In      -1.77555203       7.31941685       1.89186648        7      -0.00355255      -0.00502407       0.00000000
In       4.40325803       0.16323526       4.06646472        8      -0.00355255       0.00251204       0.00435097
In      -1.54470252       4.36907849      -0.00000000        9       0.00000000       0.00000000      -0.00000000
In       4.40325803       6.71685299       0.28273175       10      -0.00355255       0.00251204       0.00435097
In      -1.31385300      -2.34777450       7.28473417       11       0.00355255      -0.00251204      -0.00435097
In       4.40325803       2.95033836       1.89186648       12      -0.00355255      -0.00502407      -0.00000000
In       1.77555203       5.29811286       2.17459824       13       0.00355255      -0.00251204       0.00435097
In       4.63410754       0.00000000      -0.00000000       14       0.00000000      -0.00000000      -0.00000000
In       1.54470251       2.18453925       3.78373296       15       0.00000000       0.00000000       0.00000000
O        0.99302696       4.38214860       4.09329574       16       0.00010632       0.00422895       0.00296221
O       -2.09637807       3.53836305       5.50949901       17       0.00010632       0.00045088      -0.00514349
O       -0.43987443       2.36703810      -0.02917259       18       0.00444762      -0.00261889       0.00017351
O       -0.99302697      -0.81764533       2.03532883       19      -0.00010632       0.00467983      -0.00218127
O        4.03479336       5.16988103       2.06450141       20       0.00038965      -0.00457965      -0.00235478
O        2.14401669       2.98156909       1.72576604       21      -0.00038965      -0.00025053      -0.00514349
O        2.14401669       6.55739043       0.33873536       22      -0.00038965      -0.00432913       0.00278871
O       -2.37828973       6.17932263       3.75456038       23       0.00395165      -0.00332030       0.00017351
O        3.52927945       2.00204040       7.59663851       24      -0.00444762       0.00261889      -0.00017351
O        5.46769475      -1.81024413       3.81290555       25      -0.00395165       0.00332030      -0.00017351
O        6.61868448       3.34279410       1.71923155       26      -0.00444762      -0.00115918       0.00235478
O        3.80052033       2.34642260       4.12246833       27       0.00395165       0.00181041       0.00278871
O        0.71111530       4.58149025       7.25790314       28       0.00395165       0.00150989      -0.00296221
O        2.37828972      -0.21241175       0.30956278       29      -0.00395165      -0.00150989       0.00296221
O       -3.52927946       1.02628440       5.84823437       30       0.00444762       0.00115918      -0.00235478
O        5.18578309       0.83071544       2.05796691       31      -0.00010632      -0.00045088       0.00514349
O        0.94538833       1.38750940       5.84169988       32       0.00038965       0.00025053       0.00514349
O        3.52927946      -0.97575600       5.81906179       33      -0.00444762      -0.00145971      -0.00218127
O        2.09637806      -0.01307010       3.47417018       34      -0.00010632      -0.00422895      -0.00296221
O        0.94538833      -2.18831194       7.22873056       35       0.00038965       0.00432913      -0.00278871
O       -0.71111530       2.02265589       3.44499760       36      -0.00395165      -0.00181041      -0.00278871
O       -0.94538834      -0.80080254       5.50296451       37      -0.00038965       0.00457965       0.00235478
O       -0.43987443       5.34483449       1.74840413       38       0.00444762       0.00145971       0.00218127
O        4.08243199       5.18672383       5.53213710       39       0.00010632      -0.00467983       0.00218127
