40
Lattice="9.535071613734646 7.47330674572851e-10 2.3288741615036986e-14 -3.1783572052828046 8.98975172931239 -1.2944618831813714e-09 -3.17835720422594 -4.494875863908829 7.7853533721625725" Properties=species:S:1:pos:R:3:spacegroup_kinds:I:1:forces:R:3 spacegroup="P 1" unit_cell=conventional occupancy="_JSON {\"0\": {\"In\": 1}, \"1\": {\"In\": 1}, \"2\": {\"In\": 1}, \"3\": {\"In\": 1}, \"4\": {\"In\": 1}, \"5\": {\"In\": 1}, \"6\": {\"In\": 1}, \"7\": {\"In\": 1}, \"8\": {\"In\": 1}, \"9\": {\"In\": 1}, \"10\": {\"In\": 1}, \"11\": {\"In\": 1}, \"12\": {\"In\": 1}, \"13\": {\"In\": 1}, \"14\": {\"In\": 1}, \"15\": {\"In\": 1}, \"16\": {\"O\": 1}, \"17\": {\"O\": 1}, \"18\": {\"O\": 1}, \"19\": {\"O\": 1}, \"20\": {\"O\": 1}, \"21\": {\"O\": 1}, \"22\": {\"O\": 1}, \"23\": {\"O\": 1}, \"24\": {\"O\": 1}, \"25\": {\"O\": 1}, \"26\": {\"O\": 1}, \"27\": {\"O\": 1}, \"28\": {\"O\": 1}, \"29\": {\"O\": 1}, \"30\": {\"O\": 1}, \"31\": {\"O\": 1}, \"32\": {\"O\": 1}, \"33\": {\"O\": 1}, \"34\": {\"O\": 1}, \"35\": {\"O\": 1}, \"36\": {\"O\": 1}, \"37\": {\"O\": 1}, \"38\": {\"O\": 1}, \"39\": {\"O\": 1}}" n_minim_iter=1 energy=-45143.88067268304 stress="0.10451689608377834 -4.666095524823155e-14 1.5005651770575385e-13 -4.666095524823155e-14 0.10451689608357749 -1.3632559526306619e-14 1.5005651770575385e-13 -1.3632559526306619e-14 0.10451689608348569" free_energy=-45143.88067268304 pbc="T T T"
In      -4.51524661       3.19276150       6.14800493        0       0.02212403      -0.01564405       0.02709629
In       7.69360381       1.30211437       1.63734843        1      -0.02212403       0.01564405      -0.02709629
In       1.33688940      -0.94532356       5.53002512        2      -0.02212403       0.01564405      -0.02709629
In      -1.58917860      -2.24743793       3.89267668        3       0.00000000      -0.00000000      -0.00000000
In      -1.33688940       4.31648046       3.58368678        4       0.02212403      -0.01564405      -0.02709629
In       5.01982501      -3.01436609       5.83901503        5       0.02212403       0.03128810      -0.00000000
In      -1.33688940       1.48050978       5.83901503        6       0.02212403       0.03128810      -0.00000000
In      -1.84146781       7.50924195       1.94633834        7      -0.02212403      -0.03128810       0.00000000
In       4.51524660       0.17839541       4.20166659        8      -0.02212403       0.01564405       0.02709629
In      -1.58917860       4.49487587      -0.00000000        9      -0.00000000      -0.00000000       0.00000000
In       4.51524660       6.92070920       0.30898990       10      -0.02212403       0.01564405       0.02709629
In      -1.33688940      -2.42583334       7.47636346       11       0.02212403      -0.01564405      -0.02709629
In       4.51524660       3.01436609       1.94633834       12      -0.02212403      -0.03128810       0.00000000
In       1.84146780       5.44019943       2.25532825       13       0.02212403      -0.01564405       0.02709629
In       4.76753581       0.00000000      -0.00000000       14      -0.00000000       0.00000000       0.00000000
In       1.58917860       2.24743793       3.89267668       15       0.00000000      -0.00000000       0.00000000
O        1.11087685       4.51705753       4.19114080       16       0.01962370       0.02157482      -0.05431687
O       -2.06748035       3.61854358       5.67057308       17       0.01962370      -0.05782720       0.00847410
O       -0.43500865       2.46421177      -0.11541894       18      -0.02763784      -0.02440825      -0.04940923
O       -1.11087685      -0.85415063       2.07636052       19      -0.01962370      -0.03625238      -0.04584278
O        4.10075571       5.28238934       2.19177946       20      -0.06106124       0.00772595       0.00356645
O        2.25595869       2.99049591       1.77789640       21       0.06106124       0.00077434       0.00847410
O        2.25595869       6.78676929       0.41388305       22       0.06106124       0.00695162      -0.00490764
O       -2.46828402       6.33103997       3.77725774       23       0.01379970       0.03419329      -0.04940923
O        3.61336585       2.03066410       7.90077231       24       0.02763784       0.02440825       0.04940923
O        5.64664122      -1.83616410       4.00809562       25      -0.01379970      -0.03419329       0.04940923
O        6.79172306       3.37958808       1.70089722       26       0.02763784      -0.05499377      -0.00356645
O        3.88843039       2.35311912       4.30655974       27       0.01379970      -0.05988630      -0.00490764
O        0.71007319       4.80046852       7.48688925       28       0.01379970       0.02569300       0.05431687
O        2.46828401      -0.30559265       0.29846411       29      -0.01379970      -0.02569300      -0.05431687
O       -3.61336586       1.11528779       6.08445614       30      -0.02763784       0.05499377       0.00356645
O        5.24583755       0.87633229       2.11478028       31      -0.01962370       0.05782720      -0.00847410
O        0.92239851       1.50437996       6.00745697       32      -0.06106124      -0.00077434      -0.00847410
O        3.61336585      -0.91537631       5.96903720       33       0.02763784       0.03058553      -0.04584278
O        2.06748035      -0.02218166       3.59421257       34      -0.01962370      -0.02157482       0.05431687
O        0.92239851      -2.29189342       7.37147031       35      -0.06106124      -0.00695162       0.00490764
O       -0.71007319       2.14175675       3.47879363       36      -0.01379970       0.05988630       0.00490764
O       -0.92239851      -0.78751347       5.59357391       37       0.06106124      -0.00772595      -0.00356645
O       -0.43500865       5.41025218       1.81631616       38      -0.02763784      -0.03058553       0.04584278
O        4.28923406       5.34902650       5.70899285       39       0.01962370       0.03625238       0.04584278
40
Lattice="9.535071613734651 7.473306745728518e-10 2.3288741615037037e-14 -3.1783572052828086 8.989751729312392 -1.2944618831813726e-09 -3.178357204225944 -4.49487586390883 7.785353372162583" Properties=species:S:1:pos:R:3:spacegroup_kinds:I:1:forces:R:3 spacegroup="P 1" unit_cell=conventional occupancy="_JSON {\"0\": {\"In\": 1}, \"1\": {\"In\": 1}, \"2\": {\"In\": 1}, \"3\": {\"In\": 1}, \"4\": {\"In\": 1}, \"5\": {\"In\": 1}, \"6\": {\"In\": 1}, \"7\": {\"In\": 1}, \"8\": {\"In\": 1}, \"9\": {\"In\": 1}, \"10\": {\"In\": 1}, \"11\": {\"In\": 1}, \"12\": {\"In\": 1}, \"13\": {\"In\": 1}, \"14\": {\"In\": 1}, \"15\": {\"In\": 1}, \"16\": {\"O\": 1}, \"17\": {\"O\": 1}, \"18\": {\"O\": 1}, \"19\": {\"O\": 1}, \"20\": {\"O\": 1}, \"21\": {\"O\": 1}, \"22\": {\"O\": 1}, \"23\": {\"O\": 1}, \"24\": {\"O\": 1}, \"25\": {\"O\": 1}, \"26\": {\"O\": 1}, \"27\": {\"O\": 1}, \"28\": {\"O\": 1}, \"29\": {\"O\": 1}, \"30\": {\"O\": 1}, \"31\": {\"O\": 1}, \"32\": {\"O\": 1}, \"33\": {\"O\": 1}, \"34\": {\"O\": 1}, \"35\": {\"O\": 1}, \"36\": {\"O\": 1}, \"37\": {\"O\": 1}, \"38\": {\"O\": 1}, \"39\": {\"O\": 1}}" n_minim_iter=2 energy=-45143.88814561243 stress="0.10342922480168215 4.4248755491669837e-16 1.48370373522665e-14 4.4248755491669837e-16 0.10342922480167545 -9.748813108707855e-14 1.48370373522665e-14 -9.748813108707855e-14 0.10342922480192306" free_energy=-45143.88814561243 pbc="T T T"
In      -4.51219726       3.19060528       6.15173960        0      -0.00273737       0.00193561      -0.00335258
In       7.69055446       1.30427059       1.63361376        1       0.00273737      -0.00193561       0.00335258
In       1.33384005      -0.94316735       5.52629045        2       0.00273737      -0.00193561       0.00335258
In      -1.58917860      -2.24743793       3.89267668        3      -0.00000000      -0.00000000      -0.00000000
In      -1.33384006       4.31432425       3.57995211        4      -0.00273737       0.00193561       0.00335258
In       5.02287435      -3.01005366       5.83901503        5      -0.00273737      -0.00387123      -0.00000000
In      -1.33384006       1.48482221       5.83901503        6      -0.00273737      -0.00387123       0.00000000
In      -1.84451715       7.50492953       1.94633834        7       0.00273737       0.00387123       0.00000000
In       4.51219726       0.18055162       4.20540126        8       0.00273737      -0.00193561      -0.00335258
In      -1.58917860       4.49487587      -0.00000000        9       0.00000000      -0.00000000      -0.00000000
In       4.51219726       6.92286542       0.31272457       10       0.00273737      -0.00193561      -0.00335258
In      -1.33384006      -2.42798955       7.47262879       11      -0.00273737       0.00193561       0.00335258
In       4.51219726       3.01005366       1.94633834       12       0.00273737       0.00387123      -0.00000000
In       1.84451715       5.43804321       2.25906292       13      -0.00273737       0.00193561      -0.00335258
In       4.76753581       0.00000000      -0.00000000       14       0.00000000      -0.00000000      -0.00000000
In       1.58917860       2.24743793       3.89267668       15      -0.00000000      -0.00000000      -0.00000000
O        1.11358158       4.52003118       4.18365433       16       0.01772968      -0.00793264       0.00280303
O       -2.06477563       3.61057328       5.67174107       17       0.01772968       0.00639381       0.00546835
O       -0.43881797       2.46084759      -0.12222900       18       0.00445908       0.01577755      -0.01078476
O       -1.11358158      -0.85914728       2.07004202       19      -0.01772968      -0.00153882       0.00827138
O        4.09233967       5.28345420       2.19227102       20       0.00011825      -0.00468776       0.01905614
O        2.26437474       2.99060264       1.77906438       21      -0.00011825      -0.01884698       0.00546835
O        2.26437474       6.78772743       0.41320664       22      -0.00011825       0.01415922       0.01358778
O       -2.46638201       6.33575281       3.77044769       23      -0.01338886      -0.00946324      -0.01078476
O        3.61717517       2.03402828       7.90758236       24      -0.00445908      -0.01577755       0.01078476
O        5.64473921      -1.84087694       4.01490568       25       0.01338886       0.00946324       0.01078476
O        6.79553237       3.37200831       1.70040566       26      -0.00445908      -0.00145110      -0.01905614
O        3.89033240       2.34486501       4.30588332       27      -0.01338886      -0.00460825       0.01358778
O        0.71197519       4.80400978       7.49437573       28      -0.01338886       0.01407149      -0.00280303
O        2.46638201      -0.30913391       0.29097764       29       0.01338886      -0.01407149       0.00280303
O       -3.61717517       1.12286756       6.08494771       30       0.00445908       0.00145110       0.01905614
O        5.24313283       0.88430259       2.11361230       31      -0.01772968      -0.00639381      -0.00546835
O        0.91398246       1.50427323       6.00628899       32       0.00011825       0.01884698      -0.00546835
O        3.61717517      -0.91116072       5.96271871       33      -0.00445908       0.01722865       0.00827138
O        2.06477562      -0.02515531       3.60169904       34      -0.01772968       0.00793264      -0.00280303
O        0.91398246      -2.29285156       7.37214673       35       0.00011825      -0.01415922      -0.01358778
O       -0.71197520       2.15001086       3.47947004       36       0.01338886       0.00460825      -0.01358778
O       -0.91398247      -0.78857833       5.59308235       37      -0.00011825       0.00468776      -0.01905614
O       -0.43881797       5.40603659       1.82263466       38       0.00445908      -0.01722865      -0.00827138
O        4.29193878       5.35402315       5.71531134       39       0.01772968       0.00153882      -0.00827138
40
Lattice="9.535071613734651 7.473306745728517e-10 2.3288741615037052e-14 -3.178357205282808 8.989751729312392 -1.2944618831813726e-09 -3.1783572042259434 -4.49487586390883 7.785353372162583" Properties=species:S:1:pos:R:3:spacegroup_kinds:I:1:forces:R:3 spacegroup="P 1" unit_cell=conventional occupancy="_JSON {\"0\": {\"In\": 1}, \"1\": {\"In\": 1}, \"2\": {\"In\": 1}, \"3\": {\"In\": 1}, \"4\": {\"In\": 1}, \"5\": {\"In\": 1}, \"6\": {\"In\": 1}, \"7\": {\"In\": 1}, \"8\": {\"In\": 1}, \"9\": {\"In\": 1}, \"10\": {\"In\": 1}, \"11\": {\"In\": 1}, \"12\": {\"In\": 1}, \"13\": {\"In\": 1}, \"14\": {\"In\": 1}, \"15\": {\"In\": 1}, \"16\": {\"O\": 1}, \"17\": {\"O\": 1}, \"18\": {\"O\": 1}, \"19\": {\"O\": 1}, \"20\": {\"O\": 1}, \"21\": {\"O\": 1}, \"22\": {\"O\": 1}, \"23\": {\"O\": 1}, \"24\": {\"O\": 1}, \"25\": {\"O\": 1}, \"26\": {\"O\": 1}, \"27\": {\"O\": 1}, \"28\": {\"O\": 1}, \"29\": {\"O\": 1}, \"30\": {\"O\": 1}, \"31\": {\"O\": 1}, \"32\": {\"O\": 1}, \"33\": {\"O\": 1}, \"34\": {\"O\": 1}, \"35\": {\"O\": 1}, \"36\": {\"O\": 1}, \"37\": {\"O\": 1}, \"38\": {\"O\": 1}, \"39\": {\"O\": 1}}" n_minim_iter=3 energy=-45143.88935983693 stress="0.10357653420376106 7.829688143931586e-15 1.0625066567985182e-13 7.829688143931586e-15 0.10357653420378907 -4.534717605049585e-14 1.0625066567985182e-13 -4.534717605049585e-14 0.1035765342036185" free_energy=-45143.88935983693 pbc="T T T"
In      -4.51311952       3.19125742       6.15061007        0       0.00422719      -0.00298908       0.00517723
In       7.69147673       1.30361845       1.63474330        1      -0.00422719       0.00298908      -0.00517723
In       1.33476232      -0.94381948       5.52741999        2      -0.00422719       0.00298908      -0.00517723
In      -1.58917860      -2.24743793       3.89267668        3       0.00000000      -0.00000000      -0.00000000
In      -1.33476232       4.31497639       3.58108164        4       0.00422719      -0.00298908      -0.00517723
In       5.02195209      -3.01135794       5.83901503        5       0.00422719       0.00597815      -0.00000000
In      -1.33476232       1.48351793       5.83901503        6       0.00422719       0.00597815      -0.00000000
In      -1.84359489       7.50623381       1.94633834        7      -0.00422719      -0.00597815       0.00000000
In       4.51311952       0.17989948       4.20427172        8      -0.00422719       0.00298908       0.00517723
In      -1.58917860       4.49487587      -0.00000000        9      -0.00000000      -0.00000000      -0.00000000
In       4.51311952       6.92221328       0.31159504       10      -0.00422719       0.00298908       0.00517723
In      -1.33476232      -2.42733741       7.47375833       11       0.00422719      -0.00298908      -0.00517723
In       4.51311952       3.01135794       1.94633834       12      -0.00422719      -0.00597815      -0.00000000
In       1.84359488       5.43869535       2.25793338       13       0.00422719      -0.00298908       0.00517723
In       4.76753581       0.00000000      -0.00000000       14      -0.00000000      -0.00000000       0.00000000
In       1.58917860       2.24743793       3.89267668       15      -0.00000000       0.00000000       0.00000000
O        1.11787913       4.51779612       4.18492440       16       0.01192930       0.01586572      -0.00784730
O       -2.06047808       3.61279072       5.67304165       17       0.01192930      -0.01472882      -0.00981646
O       -0.43740205       2.46510266      -0.12445769       18       0.00504831      -0.00986323      -0.01824392
O       -1.11787913      -0.85916489       2.07261268       19      -0.01192930       0.00113690      -0.01766376
O        4.09299778       5.28218508       2.19707037       20      -0.01786290      -0.01167003       0.00058016
O        2.26371663       2.98581172       1.78036496       21       0.01786290      -0.00633744      -0.00981646
O        2.26371663       6.79124923       0.41670540       22       0.01786290      -0.00533258       0.01039662
O       -2.46992176       6.33299952       3.76821899       23       0.01098191      -0.00147185      -0.01824392
O        3.61575925       2.02977321       7.90981106       24      -0.00504831       0.00986323       0.01824392
O        5.64827896      -1.83812365       4.01713437       25      -0.01098191       0.00147185       0.01824392
O        6.79411646       3.37220574       1.69560631       26      -0.00504831      -0.02073131      -0.00058016
O        3.88679265       2.34431155       4.30938209       27       0.01098191      -0.01506377       0.01039662
O        0.70843544       4.80731653       7.49310565       28       0.01098191       0.01653562       0.00784730
O        2.46992176      -0.31244066       0.29224772       29      -0.01098191      -0.01653562      -0.00784730
O       -3.61575926       1.12267012       6.08974705       30       0.00504831       0.02073131       0.00058016
O        5.23883528       0.88208515       2.11231172       31      -0.01192930       0.01472882       0.00981646
O        0.91464058       1.50906415       6.00498841       32      -0.01786290       0.00633744       0.00981646
O        3.61575925      -0.90710308       5.96528937       33      -0.00504831       0.01086809      -0.01766376
O        2.06047807      -0.02292025       3.60042896       34      -0.01192930      -0.01586572       0.00784730
O        0.91464058      -2.29637336       7.36864796       35      -0.01786290       0.00533258      -0.01039662
O       -0.70843545       2.15056432       3.47597128       36      -0.01098191       0.01506377      -0.01039662
O       -0.91464058      -0.78730921       5.58828300       37       0.01786290       0.01167003      -0.00058016
O       -0.43740205       5.40197895       1.82006400       38       0.00504831      -0.01086809       0.01766376
O        4.29623633       5.35404076       5.71274069       39       0.01192930      -0.00113690       0.01766376
40
Lattice="9.535071613734651 7.473306745728517e-10 2.328874161503705e-14 -3.178357205282808 8.989751729312392 -1.2944618831813726e-09 -3.1783572042259434 -4.49487586390883 7.785353372162583" Properties=species:S:1:pos:R:3:spacegroup_kinds:I:1:forces:R:3 spacegroup="P 1" unit_cell=conventional occupancy="_JSON {\"0\": {\"In\": 1}, \"1\": {\"In\": 1}, \"2\": {\"In\": 1}, \"3\": {\"In\": 1}, \"4\": {\"In\": 1}, \"5\": {\"In\": 1}, \"6\": {\"In\": 1}, \"7\": {\"In\": 1}, \"8\": {\"In\": 1}, \"9\": {\"In\": 1}, \"10\": {\"In\": 1}, \"11\": {\"In\": 1}, \"12\": {\"In\": 1}, \"13\": {\"In\": 1}, \"14\": {\"In\": 1}, \"15\": {\"In\": 1}, \"16\": {\"O\": 1}, \"17\": {\"O\": 1}, \"18\": {\"O\": 1}, \"19\": {\"O\": 1}, \"20\": {\"O\": 1}, \"21\": {\"O\": 1}, \"22\": {\"O\": 1}, \"23\": {\"O\": 1}, \"24\": {\"O\": 1}, \"25\": {\"O\": 1}, \"26\": {\"O\": 1}, \"27\": {\"O\": 1}, \"28\": {\"O\": 1}, \"29\": {\"O\": 1}, \"30\": {\"O\": 1}, \"31\": {\"O\": 1}, \"32\": {\"O\": 1}, \"33\": {\"O\": 1}, \"34\": {\"O\": 1}, \"35\": {\"O\": 1}, \"36\": {\"O\": 1}, \"37\": {\"O\": 1}, \"38\": {\"O\": 1}, \"39\": {\"O\": 1}}" n_minim_iter=4 energy=-45143.89033612082 stress="0.10312936500888477 1.2506946716009135e-13 -2.3706211487365775e-14 1.2506946716009135e-13 0.10312936500886864 7.634700818528778e-14 -2.3706211487365775e-14 7.634700818528778e-14 0.10312936500901919" free_energy=-45143.89033612082 pbc="T T T"
In      -4.51244813       3.19078268       6.15143235        0      -0.00246879       0.00174570      -0.00302364
In       7.69080534       1.30409319       1.63392102        1       0.00246879      -0.00174570       0.00302364
In       1.33409093      -0.94334474       5.52659771        2       0.00246879      -0.00174570       0.00302364
In      -1.58917860      -2.24743793       3.89267668        3      -0.00000000      -0.00000000       0.00000000
In      -1.33409093       4.31450164       3.58025936        4      -0.00246879       0.00174570       0.00302364
In       5.02262348      -3.01040845       5.83901503        5      -0.00246879      -0.00349140       0.00000000
In      -1.33409093       1.48446742       5.83901503        6      -0.00246879      -0.00349140       0.00000000
In      -1.84426628       7.50528432       1.94633834        7       0.00246879       0.00349140       0.00000000
In       4.51244813       0.18037423       4.20509400        8       0.00246879      -0.00174570      -0.00302364
In      -1.58917860       4.49487587      -0.00000000        9      -0.00000000       0.00000000       0.00000000
In       4.51244813       6.92268802       0.31241732       10       0.00246879      -0.00174570      -0.00302364
In      -1.33409093      -2.42781215       7.47293605       11      -0.00246879       0.00174570       0.00302364
In       4.51244813       3.01040845       1.94633834       12       0.00246879       0.00349140       0.00000000
In       1.84426627       5.43822061       2.25875566       13      -0.00246879       0.00174570      -0.00302364
In       4.76753581       0.00000000      -0.00000000       14      -0.00000000       0.00000000       0.00000000
In       1.58917860       2.24743793       3.89267668       15      -0.00000000      -0.00000000       0.00000000
O        1.12294818       4.51766108       4.18251897       16       0.00593592       0.01850040       0.01058101
O       -2.05540902       3.61077508       5.67436131       17       0.00593592      -0.00008678      -0.02131232
O       -0.43774005       2.46691038      -0.12976029       18       0.01933917      -0.00956431      -0.00489676
O       -1.12294819      -0.86131557       2.07152691       19      -0.00593592       0.01841362      -0.01073132
O        4.08940773       5.28127430       2.20128719       20      -0.00206046      -0.02124077      -0.00583456
O        2.26730668       2.98170445       1.78168462       21       0.00206046      -0.00556751      -0.02131232
O        2.26730668       6.79444572       0.41960257       22       0.00206046      -0.01567326       0.01547777
O       -2.47173876       6.33271561       3.76291640       23       0.01546371      -0.01504504      -0.00489676
O        3.61609725       2.02796549       7.91511365       24      -0.01933917       0.00956431       0.00489676
O        5.65009596      -1.83783975       4.02243697       25      -0.01546371       0.01504504       0.00489676
O        6.79445445       3.36851742       1.69138948       26      -0.01933917      -0.00902287       0.00583456
O        3.88497565       2.33986132       4.31227926       27       0.01546371       0.00328180       0.01547777
O        0.70661844       4.81205066       7.49551108       28       0.01546371       0.01176324      -0.01058101
O        2.47173876      -0.31717479       0.28984229       29      -0.01546371      -0.01176324       0.01058101
O       -3.61609725       1.12635845       6.09396388       30       0.01933917       0.00902287      -0.00583456
O        5.23376622       0.88410079       2.11099206       31      -0.00593592       0.00008678       0.02131232
O        0.91105053       1.51317142       6.00366875       32      -0.00206046       0.00556751       0.02131232
O        3.61609725      -0.90160704       5.96420360       33      -0.01933917      -0.00054144      -0.01073132
O        2.05540902      -0.02278521       3.60283439       34      -0.00593592      -0.01850040      -0.01058101
O        0.91105053      -2.29956985       7.36575079       35      -0.00206046       0.01567326      -0.01547777
O       -0.70661845       2.15501454       3.47307411       36      -0.01546371      -0.00328180      -0.01547777
O       -0.91105053      -0.78639843       5.58406617       37       0.00206046       0.02124077       0.00583456
O       -0.43774005       5.39648291       1.82114977       38       0.01933917       0.00054144       0.01073132
O        4.30130539       5.35619144       5.71382645       39       0.00593592      -0.01841362       0.01073132
40
Lattice="9.535071613734655 7.473306745728522e-10 2.3288741615037153e-14 -3.17835720528281 8.989751729312397 -1.294461883181373e-09 -3.178357204225945 -4.494875863908833 7.785353372162587" Properties=species:S:1:pos:R:3:spacegroup_kinds:I:1:forces:R:3 spacegroup="P 1" unit_cell=conventional occupancy="_JSON {\"0\": {\"In\": 1}, \"1\": {\"In\": 1}, \"2\": {\"In\": 1}, \"3\": {\"In\": 1}, \"4\": {\"In\": 1}, \"5\": {\"In\": 1}, \"6\": {\"In\": 1}, \"7\": {\"In\": 1}, \"8\": {\"In\": 1}, \"9\": {\"In\": 1}, \"10\": {\"In\": 1}, \"11\": {\"In\": 1}, \"12\": {\"In\": 1}, \"13\": {\"In\": 1}, \"14\": {\"In\": 1}, \"15\": {\"In\": 1}, \"16\": {\"O\": 1}, \"17\": {\"O\": 1}, \"18\": {\"O\": 1}, \"19\": {\"O\": 1}, \"20\": {\"O\": 1}, \"21\": {\"O\": 1}, \"22\": {\"O\": 1}, \"23\": {\"O\": 1}, \"24\": {\"O\": 1}, \"25\": {\"O\": 1}, \"26\": {\"O\": 1}, \"27\": {\"O\": 1}, \"28\": {\"O\": 1}, \"29\": {\"O\": 1}, \"30\": {\"O\": 1}, \"31\": {\"O\": 1}, \"32\": {\"O\": 1}, \"33\": {\"O\": 1}, \"34\": {\"O\": 1}, \"35\": {\"O\": 1}, \"36\": {\"O\": 1}, \"37\": {\"O\": 1}, \"38\": {\"O\": 1}, \"39\": {\"O\": 1}}" n_minim_iter=5 energy=-45143.89180772934 stress="0.10297022803800186 -1.484438649701259e-13 5.396817618050175e-15 -1.484438649701259e-13 0.10297022803781321 1.2210951281209692e-13 5.396817618050175e-15 1.2210951281209692e-13 0.10297022803791402" free_energy=-45143.89180772934 pbc="T T T"
In      -4.51336553       3.19143137       6.15030877        0       0.00177357      -0.00125410       0.00217217
In       7.69172273       1.30344450       1.63504459        1      -0.00177357       0.00125410      -0.00217217
In       1.33500832      -0.94399343       5.52772128        2      -0.00177357       0.00125410      -0.00217217
In      -1.58917860      -2.24743793       3.89267668        3       0.00000000       0.00000000      -0.00000000
In      -1.33500832       4.31515034       3.58138294        4       0.00177357      -0.00125410      -0.00217217
In       5.02170609      -3.01170584       5.83901503        5       0.00177357       0.00250820      -0.00000000
In      -1.33500832       1.48317003       5.83901503        6       0.00177357       0.00250820      -0.00000000
In      -1.84334888       7.50658171       1.94633834        7      -0.00177357      -0.00250820       0.00000000
In       4.51336552       0.17972553       4.20397043        8      -0.00177357       0.00125410       0.00217217
In      -1.58917860       4.49487587      -0.00000000        9      -0.00000000       0.00000000      -0.00000000
In       4.51336552       6.92203933       0.31129374       10      -0.00177357       0.00125410       0.00217217
In      -1.33500832      -2.42716346       7.47405962       11       0.00177357      -0.00125410      -0.00217217
In       4.51336552       3.01170584       1.94633834       12      -0.00177357      -0.00250820      -0.00000000
In       1.84334888       5.43886930       2.25763209       13       0.00177357      -0.00125410       0.00217217
In       4.76753581       0.00000000      -0.00000000       14       0.00000000      -0.00000000      -0.00000000
In       1.58917860       2.24743793       3.89267668       15       0.00000000       0.00000000       0.00000000
O        1.13111692       4.52030243       4.18460207       16      -0.00026630       0.00350833      -0.00239284
O       -2.04724028       3.61125842       5.67103228       17      -0.00026630      -0.00382643      -0.00184188
O       -0.43207115       2.46916138      -0.13615098       18      -0.00038867      -0.00373990      -0.00199175
O       -1.13111693      -0.85819088       2.07028099       19       0.00026630      -0.00031810      -0.00423472
O        4.08714052       5.27445994       2.20643196       20      -0.00351882      -0.00083184      -0.00224297
O        2.26957389       2.97384177       1.77835559       21       0.00351882       0.00152655      -0.00184188
O        2.26957389       6.79549404       0.42807637       22       0.00351882      -0.00235839      -0.00040109
O       -2.47197139       6.32662059       3.75652571       23       0.00339645       0.00161307      -0.00199175
O        3.61042835       2.02571449       7.92150435       24       0.00038867       0.00373990       0.00199175
O        5.65032859      -1.83174472       4.02882766       25      -0.00339645      -0.00161307       0.00199175
O        6.78878555       3.36410842       1.68624472       26       0.00038867      -0.00359486       0.00224297
O        3.88474302       2.33737434       4.32075305       27       0.00339645      -0.00253145      -0.00040109
O        0.70638582       4.82063268       7.49342798       28       0.00339645       0.00091837       0.00239284
O        2.47197138      -0.32575681       0.29192539       29      -0.00339645      -0.00091837      -0.00239284
O       -3.61042835       1.13076745       6.09910865       30      -0.00038867       0.00359486      -0.00224297
O        5.22559748       0.88361745       2.11432109       31       0.00026630       0.00382643       0.00184188
O        0.90878331       1.52103410       6.00699777       32      -0.00351882      -0.00152655       0.00184188
O        3.61042835      -0.89494704       5.96295767       33       0.00038867      -0.00014504      -0.00423472
O        2.04724028      -0.02542656       3.60075129       34       0.00026630      -0.00350833       0.00239284
O        0.90878331      -2.30061817       7.35727700       35      -0.00351882       0.00235839       0.00040109
O       -0.70638582       2.15750153       3.46460031       36      -0.00339645       0.00253145       0.00040109
O       -0.90878331      -0.77958407       5.57892140       37       0.00351882       0.00083184       0.00224297
O       -0.43207115       5.38982291       1.82239569       38      -0.00038867       0.00014504       0.00423472
O        4.30947413       5.35306675       5.71507238       39      -0.00026630       0.00031810       0.00423472
