40
Lattice="8.603848728821962 6.743444156220782e-10 7.91957187266856e-15 -2.8679495769097665 8.111786373712906 -1.1680118353798308e-09 -2.867949575956103 -4.0558931861821 7.025013070486496" Properties=species:S:1:pos:R:3:spacegroup_kinds:I:1:forces:R:3 spacegroup="P 1" unit_cell=conventional occupancy="_JSON {\"0\": {\"In\": 1}, \"1\": {\"In\": 1}, \"2\": {\"In\": 1}, \"3\": {\"In\": 1}, \"4\": {\"In\": 1}, \"5\": {\"In\": 1}, \"6\": {\"In\": 1}, \"7\": {\"In\": 1}, \"8\": {\"In\": 1}, \"9\": {\"In\": 1}, \"10\": {\"In\": 1}, \"11\": {\"In\": 1}, \"12\": {\"In\": 1}, \"13\": {\"In\": 1}, \"14\": {\"In\": 1}, \"15\": {\"In\": 1}, \"16\": {\"O\": 1}, \"17\": {\"O\": 1}, \"18\": {\"O\": 1}, \"19\": {\"O\": 1}, \"20\": {\"O\": 1}, \"21\": {\"O\": 1}, \"22\": {\"O\": 1}, \"23\": {\"O\": 1}, \"24\": {\"O\": 1}, \"25\": {\"O\": 1}, \"26\": {\"O\": 1}, \"27\": {\"O\": 1}, \"28\": {\"O\": 1}, \"29\": {\"O\": 1}, \"30\": {\"O\": 1}, \"31\": {\"O\": 1}, \"32\": {\"O\": 1}, \"33\": {\"O\": 1}, \"34\": {\"O\": 1}, \"35\": {\"O\": 1}, \"36\": {\"O\": 1}, \"37\": {\"O\": 1}, \"38\": {\"O\": 1}, \"39\": {\"O\": 1}}" n_minim_iter=1 energy=-45148.90059891049 stress="-0.12302183667822597 -1.1385783227576484e-13 1.1778249646505785e-13 -1.1385783227576484e-13 -0.12302183667843235 6.629630063953678e-14 1.1778249646505785e-13 6.629630063953678e-14 -0.12302183667812279" free_energy=-45148.90059891049 pbc="T T T"
In      -4.10438185       2.90223624       5.51069899        0      -0.00630567       0.00445878      -0.00772283
In       6.97233142       1.15365695       1.51431408        1       0.00630567      -0.00445878       0.00772283
In       1.23643227      -0.87428964       5.02682061        2       0.00630567      -0.00445878       0.00772283
In      -1.43397479      -2.02794659       3.51250653        3      -0.00000000      -0.00000000      -0.00000000
In      -1.23643227       3.91620953       3.27056734        4      -0.00630567       0.00445878       0.00772283
In       4.49946688      -2.76255258       5.26875980        5      -0.00630567      -0.00891756       0.00000000
In      -1.23643227       1.29334061       5.26875980        6      -0.00630567      -0.00891756      -0.00000000
In      -1.63151731       6.81844577       1.75625326        7       0.00630567       0.00891756       0.00000000
In       4.10438184       0.13968366       3.75444572        8       0.00630567      -0.00445878      -0.00772283
In      -1.43397479       4.05589319      -0.00000000        9       0.00000000       0.00000000      -0.00000000
In       4.10438184       6.22352344       0.24193919       10       0.00630567      -0.00445878      -0.00772283
In      -1.23643227      -2.16763025       6.78307388       11      -0.00630567       0.00445878       0.00772283
In       4.10438184       2.76255258       1.75625326       12       0.00630567       0.00891756      -0.00000000
In       1.63151731       4.93018283       1.99819245       13      -0.00630567       0.00445878      -0.00772283
In       4.30192436       0.00000000      -0.00000000       14      -0.00000000      -0.00000000       0.00000000
In       1.43397479       2.02794660       3.51250653       15      -0.00000000       0.00000000       0.00000000
O        0.83030281       4.05143190       3.84243270       16      -0.02375165      -0.01747876       0.08758871
O       -2.03764677       3.32987498       5.10766031       17      -0.02375165       0.08459343      -0.02865730
O       -0.41193508       2.18032322       0.07372929       18       0.05535909       0.02865368       0.06823318
O       -0.83030281      -0.73047950       1.92507994       19       0.02375165       0.06711466       0.05893141
O        3.81865182       4.82894032       1.85135064       20       0.08767266      -0.02772022      -0.00930177
O        1.91724733       2.83910006       1.59515377       21      -0.08767266      -0.00580454      -0.02865730
O        1.91724733       6.04573345       0.25619687       22      -0.08767266      -0.02191568       0.01935553
O       -2.19294014       5.74544149       3.58623583       23      -0.00856192      -0.06174428       0.06823318
O        3.27988465       1.87556997       6.95128377       24      -0.05535909      -0.02865368      -0.06823318
O        5.06088971      -1.68954830       3.43877724       25       0.00856192       0.06174428      -0.06823318
O        6.14783423       3.18195965       1.66115589       26      -0.05535909       0.07341851       0.00930177
O        3.54295902       2.26099718       3.76870340       27      -0.00856192       0.08996381       0.01935553
O        0.67500944       4.16124089       6.69508690       28      -0.00856192      -0.02821952      -0.08758871
O        2.19294013      -0.10534770       0.32992616       29       0.00856192       0.02821952       0.08758871
O       -3.27988465       0.87393355       5.36385718       30       0.05535909      -0.07341851      -0.00930177
O        4.90559634       0.72601821       1.91735276       31       0.02375165      -0.08459343       0.02865730
O        0.95070224       1.21679313       5.42985929       32       0.08767266       0.00580454       0.02865730
O        3.27988465      -1.00163642       5.43758647       33      -0.05535909      -0.04476482       0.05893141
O        2.03764676       0.00446129       3.18258037       34       0.02375165       0.01747876      -0.08758871
O        0.95070224      -1.98984025       6.76881620       35       0.08767266       0.02191568      -0.01935553
O       -0.67500944       1.79489601       3.25630966       36       0.00856192      -0.08996381      -0.01935553
O       -0.95070225      -0.77304713       5.17366242       37      -0.08767266       0.02772022       0.00930177
O       -0.41193508       5.05752962       1.58742659       38       0.05535909       0.04476482      -0.05893141
O        3.69825239       4.78637269       5.09993313       39      -0.02375165      -0.06711466      -0.05893141
40
Lattice="8.60384872882196 6.743444156220781e-10 7.91957187266856e-15 -2.867949576909766 8.111786373712905 -1.1680118353798306e-09 -2.8679495759561027 -4.055893186182099 7.025013070486496" Properties=species:S:1:pos:R:3:spacegroup_kinds:I:1:forces:R:3 spacegroup="P 1" unit_cell=conventional occupancy="_JSON {\"0\": {\"In\": 1}, \"1\": {\"In\": 1}, \"2\": {\"In\": 1}, \"3\": {\"In\": 1}, \"4\": {\"In\": 1}, \"5\": {\"In\": 1}, \"6\": {\"In\": 1}, \"7\": {\"In\": 1}, \"8\": {\"In\": 1}, \"9\": {\"In\": 1}, \"10\": {\"In\": 1}, \"11\": {\"In\": 1}, \"12\": {\"In\": 1}, \"13\": {\"In\": 1}, \"14\": {\"In\": 1}, \"15\": {\"In\": 1}, \"16\": {\"O\": 1}, \"17\": {\"O\": 1}, \"18\": {\"O\": 1}, \"19\": {\"O\": 1}, \"20\": {\"O\": 1}, \"21\": {\"O\": 1}, \"22\": {\"O\": 1}, \"23\": {\"O\": 1}, \"24\": {\"O\": 1}, \"25\": {\"O\": 1}, \"26\": {\"O\": 1}, \"27\": {\"O\": 1}, \"28\": {\"O\": 1}, \"29\": {\"O\": 1}, \"30\": {\"O\": 1}, \"31\": {\"O\": 1}, \"32\": {\"O\": 1}, \"33\": {\"O\": 1}, \"34\": {\"O\": 1}, \"35\": {\"O\": 1}, \"36\": {\"O\": 1}, \"37\": {\"O\": 1}, \"38\": {\"O\": 1}, \"39\": {\"O\": 1}}" n_minim_iter=2 energy=-45148.90629355281 stress="-0.12215550726596354 1.1164641579338347e-13 9.572879121535713e-15 1.1164641579338347e-13 -0.12215550726592343 2.472318792112689e-13 9.572879121535713e-15 2.472318792112689e-13 -0.12215550726560628" free_energy=-45148.90629355281 pbc="T T T"
In      -4.10473087       2.90248304       5.51027152        0       0.02786894      -0.01970632       0.03413235
In       6.97268044       1.15341016       1.51474154        1      -0.02786894       0.01970632      -0.03413235
In       1.23678129      -0.87453644       5.02724808        2      -0.02786894       0.01970632      -0.03413235
In      -1.43397479      -2.02794659       3.51250653        3       0.00000000      -0.00000000       0.00000000
In      -1.23678130       3.91645633       3.27099481        4       0.02786894      -0.01970632      -0.03413235
In       4.49911786      -2.76304617       5.26875980        5       0.02786894       0.03941264      -0.00000000
In      -1.23678130       1.29284701       5.26875980        6       0.02786894       0.03941264      -0.00000000
In      -1.63116828       6.81893936       1.75625326        7      -0.02786894      -0.03941264      -0.00000000
In       4.10473087       0.13943686       3.75401825        8      -0.02786894       0.01970632       0.03413235
In      -1.43397479       4.05589319      -0.00000000        9       0.00000000       0.00000000       0.00000000
In       4.10473087       6.22327664       0.24151172       10      -0.02786894       0.01970632       0.03413235
In      -1.23678130      -2.16738345       6.78350135       11       0.02786894      -0.01970632      -0.03413235
In       4.10473087       2.76304618       1.75625326       12      -0.02786894      -0.03941264       0.00000000
In       1.63116828       4.93042963       1.99776499       13       0.02786894      -0.01970632       0.03413235
In       4.30192436       0.00000000      -0.00000000       14       0.00000000      -0.00000000      -0.00000000
In       1.43397479       2.02794660       3.51250653       15      -0.00000000      -0.00000000      -0.00000000
O        0.82898813       4.05046443       3.84728084       16      -0.03195565      -0.01579952      -0.00881884
O       -2.03896145       3.33455732       5.10607409       17      -0.03195565       0.00026242       0.01809220
O       -0.40887089       2.18190923       0.07750608       18      -0.02530040      -0.00444355       0.02624319
O       -0.82898813      -0.72676462       1.92834186       19       0.03195565      -0.01553709       0.00927337
O        3.82350461       4.82740597       1.85083578       20       0.01089930       0.03068861      -0.01696983
O        1.91239454       2.83877877       1.59356756       21      -0.01089930       0.03004060       0.01809220
O        1.91239454       6.04452039       0.25726822       22      -0.01089930       0.00064800      -0.03506203
O       -2.19341405       5.74202387       3.59001261       23      -0.00424404       0.02533463       0.02624319
O        3.27682046       1.87398396       6.94750699       24       0.02530040       0.00444355      -0.02624319
O        5.06136362      -1.68613068       3.43500045       25       0.00424404      -0.02533463      -0.02624319
O        6.14477003       3.18602345       1.66167075       26       0.02530040       0.02050549       0.01696983
O        3.54248510       2.26597679       3.76977475       27      -0.00424404       0.01005996      -0.03506203
O        0.67453553       4.15967891       6.69023876       28      -0.00424404      -0.03539458       0.00881884
O        2.19341404      -0.10378572       0.33477430       29       0.00424404       0.03539458      -0.00881884
O       -3.27682046       0.86986974       5.36334232       30      -0.02530040      -0.02050549      -0.01696983
O        4.90691102       0.72133587       1.91893897       31       0.03195565      -0.00026242      -0.01809220
O        0.95555503       1.21711442       5.43144551       32       0.01089930      -0.03004060      -0.01809220
O        3.27682046      -1.00411421       5.44084840       33       0.02530040      -0.02494905       0.00927337
O        2.03896144       0.00542876       3.17773223       34       0.03195565       0.01579952       0.00881884
O        0.95555503      -1.98862720       6.76774485       35       0.01089930      -0.00064800       0.03506203
O       -0.67453553       1.78991640       3.25523831       36       0.00424404      -0.01005996       0.03506203
O       -0.95555503      -0.77151278       5.17417728       37      -0.01089930      -0.03068861       0.01696983
O       -0.40887089       5.06000740       1.58416467       38      -0.02530040       0.02494905      -0.00927337
O        3.69693771       4.78265782       5.09667120       39      -0.03195565       0.01553709      -0.00927337
40
Lattice="8.603848728821959 6.743444156220779e-10 7.919571872668556e-15 -2.867949576909765 8.111786373712903 -1.1680118353798302e-09 -2.867949575956102 -4.055893186182098 7.025013070486495" Properties=species:S:1:pos:R:3:spacegroup_kinds:I:1:forces:R:3 spacegroup="P 1" unit_cell=conventional occupancy="_JSON {\"0\": {\"In\": 1}, \"1\": {\"In\": 1}, \"2\": {\"In\": 1}, \"3\": {\"In\": 1}, \"4\": {\"In\": 1}, \"5\": {\"In\": 1}, \"6\": {\"In\": 1}, \"7\": {\"In\": 1}, \"8\": {\"In\": 1}, \"9\": {\"In\": 1}, \"10\": {\"In\": 1}, \"11\": {\"In\": 1}, \"12\": {\"In\": 1}, \"13\": {\"In\": 1}, \"14\": {\"In\": 1}, \"15\": {\"In\": 1}, \"16\": {\"O\": 1}, \"17\": {\"O\": 1}, \"18\": {\"O\": 1}, \"19\": {\"O\": 1}, \"20\": {\"O\": 1}, \"21\": {\"O\": 1}, \"22\": {\"O\": 1}, \"23\": {\"O\": 1}, \"24\": {\"O\": 1}, \"25\": {\"O\": 1}, \"26\": {\"O\": 1}, \"27\": {\"O\": 1}, \"28\": {\"O\": 1}, \"29\": {\"O\": 1}, \"30\": {\"O\": 1}, \"31\": {\"O\": 1}, \"32\": {\"O\": 1}, \"33\": {\"O\": 1}, \"34\": {\"O\": 1}, \"35\": {\"O\": 1}, \"36\": {\"O\": 1}, \"37\": {\"O\": 1}, \"38\": {\"O\": 1}, \"39\": {\"O\": 1}}" n_minim_iter=3 energy=-45148.907940892444 stress="-0.12191526936319273 1.2634013026622134e-14 3.3255369826670727e-14 1.2634013026622134e-14 -0.12191526936294295 1.6272343390196194e-13 3.3255369826670727e-14 1.6272343390196194e-13 -0.12191526936263865" free_energy=-45148.907940892444 pbc="T T T"
In      -4.10330879       2.90147747       5.51201321        0      -0.00191285       0.00135259      -0.00234275
In       6.97125836       1.15441572       1.51299986        1       0.00191285      -0.00135259       0.00234275
In       1.23535921      -0.87353087       5.02550639        2       0.00191285      -0.00135259       0.00234275
In      -1.43397479      -2.02794659       3.51250653        3      -0.00000000      -0.00000000      -0.00000000
In      -1.23535921       3.91545077       3.26925313        4      -0.00191285       0.00135259       0.00234275
In       4.50053994      -2.76103505       5.26875980        5      -0.00191285      -0.00270518       0.00000000
In      -1.23535921       1.29485814       5.26875980        6      -0.00191285      -0.00270518       0.00000000
In      -1.63259037       6.81692824       1.75625326        7       0.00191285       0.00270518      -0.00000000
In       4.10330879       0.14044242       3.75575994        8       0.00191285      -0.00135259      -0.00234275
In      -1.43397479       4.05589319      -0.00000000        9       0.00000000       0.00000000      -0.00000000
In       4.10330879       6.22428220       0.24325340       10       0.00191285      -0.00135259      -0.00234275
In      -1.23535921      -2.16838901       6.78175966       11      -0.00191285       0.00135259       0.00234275
In       4.10330879       2.76103505       1.75625326       12       0.00191285       0.00270518       0.00000000
In       1.63259036       4.92942407       1.99950667       13      -0.00191285       0.00135259      -0.00234275
In       4.30192436       0.00000000      -0.00000000       14       0.00000000       0.00000000      -0.00000000
In       1.43397479       2.02794660       3.51250653       15      -0.00000000       0.00000000      -0.00000000
O        0.82686337       4.04932243       3.84819599       16      -0.00956133       0.01444423       0.00028820
O       -2.04108620       3.33592087       5.10660552       17      -0.00956133      -0.00697253      -0.01265317
O       -0.40937026       2.18212346       0.08002818       18       0.00385728      -0.01646092       0.00378120
O       -0.82686338      -0.72654308       1.92978844       19       0.00956133       0.00747170      -0.01236497
O        3.82549842       4.82864056       1.84976026       20      -0.00338665      -0.00528862      -0.01614618
O        1.91040073       2.84032750       1.59409898       21       0.00338665       0.01133869      -0.01265317
O        1.91040073       6.04420625       0.25566127       22       0.00338665      -0.01662731      -0.00349301
O       -2.19378248       5.74242328       3.59253471       23       0.01680526       0.00185030       0.00378120
O        3.27731984       1.87376973       6.94498489       24      -0.00385728       0.01646092      -0.00378120
O        5.06173206      -1.68653009       3.43247835       25      -0.01680526      -0.00185030      -0.00378120
O        6.14526941       3.18831476       1.66274627       26      -0.00385728      -0.00495584       0.01614618
O        3.54211667       2.26796128       3.76816781       27       0.01680526       0.00234947      -0.00349301
O        0.67416709       4.15729500       6.68932361       28       0.01680526      -0.00419977      -0.00028820
O        2.19378248      -0.10140181       0.33568945       29      -0.01680526       0.00419977       0.00028820
O       -3.27731984       0.86757843       5.36226679       30       0.00385728       0.00495584      -0.01614618
O        4.90903578       0.71997232       1.91840755       31       0.00956133       0.00697253       0.01265317
O        0.95754884       1.21556569       5.43091408       32      -0.00338665      -0.01133869       0.01265317
O        3.27731984      -1.00619130       5.44229497       33      -0.00385728      -0.01150508      -0.01236497
O        2.04108620       0.00657076       3.17681708       34       0.00956133      -0.01444423      -0.00028820
O        0.95754884      -1.98831306       6.76935179       35      -0.00338665       0.01662731       0.00349301
O       -0.67416710       1.78793191       3.25684526       36      -0.01680526      -0.00234947       0.00349301
O       -0.95754885      -0.77274737       5.17525281       37       0.00338665       0.00528862       0.01614618
O       -0.40937026       5.06208449       1.58271809       38       0.00385728       0.01150508       0.01236497
O        3.69481295       4.78243627       5.09522463       39      -0.00956133      -0.00747170       0.01236497
40
Lattice="8.603848728821957 6.743444156220778e-10 7.919571872668556e-15 -2.8679495769097647 8.111786373712901 -1.1680118353798302e-09 -2.8679495759561013 -4.0558931861820975 7.025013070486497" Properties=species:S:1:pos:R:3:spacegroup_kinds:I:1:forces:R:3 spacegroup="P 1" unit_cell=conventional occupancy="_JSON {\"0\": {\"In\": 1}, \"1\": {\"In\": 1}, \"2\": {\"In\": 1}, \"3\": {\"In\": 1}, \"4\": {\"In\": 1}, \"5\": {\"In\": 1}, \"6\": {\"In\": 1}, \"7\": {\"In\": 1}, \"8\": {\"In\": 1}, \"9\": {\"In\": 1}, \"10\": {\"In\": 1}, \"11\": {\"In\": 1}, \"12\": {\"In\": 1}, \"13\": {\"In\": 1}, \"14\": {\"In\": 1}, \"15\": {\"In\": 1}, \"16\": {\"O\": 1}, \"17\": {\"O\": 1}, \"18\": {\"O\": 1}, \"19\": {\"O\": 1}, \"20\": {\"O\": 1}, \"21\": {\"O\": 1}, \"22\": {\"O\": 1}, \"23\": {\"O\": 1}, \"24\": {\"O\": 1}, \"25\": {\"O\": 1}, \"26\": {\"O\": 1}, \"27\": {\"O\": 1}, \"28\": {\"O\": 1}, \"29\": {\"O\": 1}, \"30\": {\"O\": 1}, \"31\": {\"O\": 1}, \"32\": {\"O\": 1}, \"33\": {\"O\": 1}, \"34\": {\"O\": 1}, \"35\": {\"O\": 1}, \"36\": {\"O\": 1}, \"37\": {\"O\": 1}, \"38\": {\"O\": 1}, \"39\": {\"O\": 1}}" n_minim_iter=4 energy=-45148.90819725265 stress="-0.12186804798105982 2.2129653343924769e-13 1.9494725470288122e-13 2.2129653343924769e-13 -0.12186804798086374 -1.8159565219922992e-13 1.9494725470288122e-13 -1.8159565219922992e-13 -0.12186804798131219" free_energy=-45148.90819725265 pbc="T T T"
In      -4.10321962       2.90141442       5.51212242        0      -0.00286232       0.00202397      -0.00350562
In       6.97116919       1.15447877       1.51289065        1       0.00286232      -0.00202397       0.00350562
In       1.23527004      -0.87346782       5.02539718        2       0.00286232      -0.00202397       0.00350562
In      -1.43397479      -2.02794659       3.51250653        3      -0.00000000      -0.00000000      -0.00000000
In      -1.23527004       3.91538771       3.26914391        4      -0.00286232       0.00202397       0.00350562
In       4.50062911      -2.76090894       5.26875980        5      -0.00286232      -0.00404794       0.00000000
In      -1.23527004       1.29498425       5.26875980        6      -0.00286232      -0.00404794       0.00000000
In      -1.63267954       6.81680213       1.75625326        7       0.00286232       0.00404794      -0.00000000
In       4.10321962       0.14050548       3.75586915        8       0.00286232      -0.00202397      -0.00350562
In      -1.43397479       4.05589319      -0.00000000        9      -0.00000000      -0.00000000       0.00000000
In       4.10321962       6.22434526       0.24336262       10       0.00286232      -0.00202397      -0.00350562
In      -1.23527004      -2.16845207       6.78165045       11      -0.00286232       0.00202397       0.00350562
In       4.10321962       2.76090894       1.75625326       12       0.00286232       0.00404794       0.00000000
In       1.63267953       4.92936101       1.99961588       13      -0.00286232       0.00202397      -0.00350562
In       4.30192436       0.00000000      -0.00000000       14       0.00000000      -0.00000000       0.00000000
In       1.43397479       2.02794660       3.51250653       15      -0.00000000      -0.00000000       0.00000000
O        0.82584939       4.05014469       3.84839419       16      -0.00253575      -0.00213169      -0.00220584
O       -2.04210018       3.33568138       5.10579432       17      -0.00253575      -0.00084446       0.00294902
O       -0.40915881       2.18101746       0.08071782       18      -0.00365120      -0.00005572       0.00158288
O       -0.82584940      -0.72596030       1.92917544       19       0.00253575      -0.00297616       0.00074318
O        3.82561062       4.82845595       1.84845761       20       0.00004908       0.00389003      -0.00083969
O        1.91028852       2.84136332       1.59328778       21      -0.00004908       0.00267221       0.00294902
O        1.91028852       6.04298582       0.25516983       22      -0.00004908       0.00121782      -0.00378871
O       -2.19266925       5.74259258       3.59322436       23      -0.00116453       0.00346095       0.00158288
O        3.27710838       1.87487573       6.94429524       24       0.00365120       0.00005572      -0.00158288
O        5.06061883      -1.68669939       3.43178871       25       0.00116453      -0.00346095      -0.00158288
O        6.14505796       3.18835901       1.66404892       26       0.00365120       0.00134295       0.00083969
O        3.54322990       2.26847388       3.76767636       27      -0.00116453      -0.00035966      -0.00378871
O        0.67528032       4.15661310       6.68912541       28      -0.00116453      -0.00310129       0.00220584
O        2.19266925      -0.10071991       0.33588765       29       0.00116453       0.00310129      -0.00220584
O       -3.27710838       0.86753418       5.36096415       30      -0.00365120      -0.00134295      -0.00083969
O        4.91004976       0.72021181       1.91921875       31       0.00253575       0.00084446      -0.00294902
O        0.95766105       1.21452987       5.43172528       32       0.00004908      -0.00267221      -0.00294902
O        3.27710838      -1.00734155       5.44168197       33       0.00365120      -0.00139867       0.00074318
O        2.04210018       0.00574850       3.17661888       34       0.00253575       0.00213169       0.00220584
O        0.95766105      -1.98709263       6.76984324       35       0.00004908      -0.00121782       0.00378871
O       -0.67528033       1.78741931       3.25733670       36       0.00116453       0.00035966       0.00378871
O       -0.95766105      -0.77256276       5.17655545       37      -0.00004908      -0.00389003       0.00083969
O       -0.40915881       5.06323474       1.58333109       38      -0.00365120       0.00139867      -0.00074318
O        3.69379897       4.78185349       5.09583763       39      -0.00253575       0.00297616      -0.00074318
