40
Lattice="8.760316521147269 6.866072079621964e-10 6.931237974739117e-16 -2.9201055076964297 8.259305623029501 -1.1892469882479498e-09 -2.9201055067254185 -4.129652810828137 7.152768487956039" Properties=species:S:1:pos:R:3:spacegroup_kinds:I:1:forces:R:3 spacegroup="P 1" unit_cell=conventional occupancy="_JSON {\"0\": {\"In\": 1}, \"1\": {\"In\": 1}, \"2\": {\"In\": 1}, \"3\": {\"In\": 1}, \"4\": {\"In\": 1}, \"5\": {\"In\": 1}, \"6\": {\"In\": 1}, \"7\": {\"In\": 1}, \"8\": {\"In\": 1}, \"9\": {\"In\": 1}, \"10\": {\"In\": 1}, \"11\": {\"In\": 1}, \"12\": {\"In\": 1}, \"13\": {\"In\": 1}, \"14\": {\"In\": 1}, \"15\": {\"In\": 1}, \"16\": {\"O\": 1}, \"17\": {\"O\": 1}, \"18\": {\"O\": 1}, \"19\": {\"O\": 1}, \"20\": {\"O\": 1}, \"21\": {\"O\": 1}, \"22\": {\"O\": 1}, \"23\": {\"O\": 1}, \"24\": {\"O\": 1}, \"25\": {\"O\": 1}, \"26\": {\"O\": 1}, \"27\": {\"O\": 1}, \"28\": {\"O\": 1}, \"29\": {\"O\": 1}, \"30\": {\"O\": 1}, \"31\": {\"O\": 1}, \"32\": {\"O\": 1}, \"33\": {\"O\": 1}, \"34\": {\"O\": 1}, \"35\": {\"O\": 1}, \"36\": {\"O\": 1}, \"37\": {\"O\": 1}, \"38\": {\"O\": 1}, \"39\": {\"O\": 1}}" n_minim_iter=1 energy=-45151.21892067373 stress="-0.05328005983782202 -3.13824232734812e-13 7.501013061226258e-14 -3.13824232734812e-13 -0.05328005983776824 9.725911087119968e-15 7.501013061226258e-14 9.725911087119968e-15 -0.053280059837955" free_energy=-45151.21892067373 pbc="T T T"
In      -4.18285906       2.95772801       5.60621754        0      -0.00243952       0.00172500      -0.00298778
In       7.10296457       1.17192481       1.54655094        1       0.00243952      -0.00172500       0.00298778
In       1.26275355      -0.89290160       5.12293518        2       0.00243952      -0.00172500       0.00298778
In      -1.46005275      -2.06482640       3.57638424        3      -0.00000000      -0.00000000       0.00000000
In      -1.26275356       3.99014121       3.33474306        4      -0.00243952       0.00172500       0.00298778
In       4.57745746      -2.81821641       5.36457636        5      -0.00243952      -0.00345000       0.00000000
In      -1.26275356       1.31143641       5.36457636        6      -0.00243952      -0.00345000      -0.00000000
In      -1.65735195       6.94786922       1.78819212        7       0.00243952       0.00345000       0.00000000
In       4.18285906       0.13951160       3.81802542        8       0.00243952      -0.00172500      -0.00298778
In      -1.46005276       4.12965281      -0.00000000        9      -0.00000000       0.00000000       0.00000000
In       4.18285906       6.33399082       0.24164118       10       0.00243952      -0.00172500      -0.00298778
In      -1.26275356      -2.20433800       6.91112730       11      -0.00243952       0.00172500       0.00298778
In       4.18285906       2.81821641       1.78819212       12       0.00243952       0.00345000      -0.00000000
In       1.65735195       5.02255442       2.02983330       13      -0.00243952       0.00172500      -0.00298778
In       4.38015826       0.00000000      -0.00000000       14      -0.00000000       0.00000000       0.00000000
In       1.46005275       2.06482641       3.57638424       15      -0.00000000      -0.00000000       0.00000000
O        0.85471297       4.12752416       3.89814072       16      -0.02161604      -0.01290201       0.08341707
O       -2.06539254       3.37695322       5.20554159       17      -0.02161604       0.07869230      -0.03053507
O       -0.42675457       2.21826120       0.05968655       18       0.05482234       0.02464221       0.06308244
O       -0.85471297      -0.75482824       1.95091383       19       0.02161604       0.06579030       0.05288200
O        3.87228621       4.91894110       1.89122727       20       0.08139716      -0.02936963      -0.01020045
O        1.96792480       2.88644609       1.62915734       21      -0.08139716      -0.00585097      -0.03053507
O        1.96792480       6.16214782       0.26206992       22      -0.08139716      -0.02351866       0.02033462
O       -2.23364824       5.85740688       3.63607080       23      -0.00495878      -0.05990107       0.06308244
O        3.34686007       1.91139161       7.09308193       24      -0.05482234      -0.02464221      -0.06308244
O        5.15375374      -1.72775407       3.51669769       25       0.00495878       0.05990107      -0.06308244
O        6.26696558       3.22564708       1.68515697       26      -0.05482234       0.06695210       0.01020045
O        3.60656277       2.28505265       3.83845417       27      -0.00495878       0.08458153       0.02033462
O        0.68645727       4.24649891       6.83101200       28      -0.00495878      -0.02468047      -0.08341707
O        2.23364824      -0.11684609       0.32175648       29       0.00495878       0.02468047       0.08341707
O       -3.34686008       0.90400574       5.46761151       30       0.05482234      -0.06695210      -0.01020045
O        4.98549805       0.75269959       1.94722690       31       0.02161604      -0.07869230       0.03053507
O        0.95218070       1.24320672       5.52361114       32       0.08139716       0.00585097       0.03053507
O        3.34686007      -1.00738588       5.52729807       33      -0.05482234      -0.04230990       0.05288200
O        2.06539254       0.00212865       3.25462776       34       0.02161604       0.01290201      -0.08341707
O        0.95218070      -2.03249501       6.89069856       35       0.08139716       0.02351866      -0.02033462
O       -0.68645727       1.84460017       3.31431431       36       0.00495878      -0.08458153      -0.02033462
O       -0.95218070      -0.78928829       5.26154121       37      -0.08139716       0.02936963       0.01020045
O       -0.42675457       5.13703869       1.62547041       38       0.05482234       0.04230990      -0.05288200
O        3.77481847       4.88448105       5.20185466       39      -0.02161604      -0.06579030      -0.05288200
40
Lattice="8.760316521147269 6.866072079621964e-10 6.931237974739159e-16 -2.9201055076964297 8.259305623029501 -1.1892469882479498e-09 -2.9201055067254185 -4.129652810828137 7.152768487956039" Properties=species:S:1:pos:R:3:spacegroup_kinds:I:1:forces:R:3 spacegroup="P 1" unit_cell=conventional occupancy="_JSON {\"0\": {\"In\": 1}, \"1\": {\"In\": 1}, \"2\": {\"In\": 1}, \"3\": {\"In\": 1}, \"4\": {\"In\": 1}, \"5\": {\"In\": 1}, \"6\": {\"In\": 1}, \"7\": {\"In\": 1}, \"8\": {\"In\": 1}, \"9\": {\"In\": 1}, \"10\": {\"In\": 1}, \"11\": {\"In\": 1}, \"12\": {\"In\": 1}, \"13\": {\"In\": 1}, \"14\": {\"In\": 1}, \"15\": {\"In\": 1}, \"16\": {\"O\": 1}, \"17\": {\"O\": 1}, \"18\": {\"O\": 1}, \"19\": {\"O\": 1}, \"20\": {\"O\": 1}, \"21\": {\"O\": 1}, \"22\": {\"O\": 1}, \"23\": {\"O\": 1}, \"24\": {\"O\": 1}, \"25\": {\"O\": 1}, \"26\": {\"O\": 1}, \"27\": {\"O\": 1}, \"28\": {\"O\": 1}, \"29\": {\"O\": 1}, \"30\": {\"O\": 1}, \"31\": {\"O\": 1}, \"32\": {\"O\": 1}, \"33\": {\"O\": 1}, \"34\": {\"O\": 1}, \"35\": {\"O\": 1}, \"36\": {\"O\": 1}, \"37\": {\"O\": 1}, \"38\": {\"O\": 1}, \"39\": {\"O\": 1}}" n_minim_iter=2 energy=-45151.225549361334 stress="-0.05230843960620718 3.385391484323252e-13 3.118528787798059e-13 3.385391484323252e-13 -0.05230843960582811 -2.899592549413996e-13 3.118528787798059e-13 -2.899592549413996e-13 -0.05230843960599451" free_energy=-45151.225549361334 pbc="T T T"
In      -4.18303332       2.95785122       5.60600413        0       0.02616680      -0.01850272       0.03204765
In       7.10313882       1.17180159       1.54676435        1      -0.02616680       0.01850272      -0.03204765
In       1.26292781      -0.89302481       5.12314860        2      -0.02616680       0.01850272      -0.03204765
In      -1.46005275      -2.06482640       3.57638424        3      -0.00000000       0.00000000      -0.00000000
In      -1.26292781       3.99026443       3.33495647        4       0.02616680      -0.01850272      -0.03204765
In       4.57728321      -2.81846283       5.36457636        5       0.02616680       0.03700544      -0.00000000
In      -1.26292781       1.31118998       5.36457636        6       0.02616680       0.03700544      -0.00000000
In      -1.65717770       6.94811565       1.78819212        7      -0.02616680      -0.03700544       0.00000000
In       4.18303331       0.13938839       3.81781201        8      -0.02616680       0.01850272       0.03204765
In      -1.46005276       4.12965281      -0.00000000        9      -0.00000000      -0.00000000       0.00000000
In       4.18303331       6.33386761       0.24142776       10      -0.02616680       0.01850272       0.03204765
In      -1.26292781      -2.20421479       6.91134072       11       0.02616680      -0.01850272      -0.03204765
In       4.18303331       2.81846284       1.78819212       12      -0.02616680      -0.03700544       0.00000000
In       1.65717770       5.02267763       2.02961989       13       0.02616680      -0.01850272       0.03204765
In       4.38015826       0.00000000      -0.00000000       14      -0.00000000      -0.00000000       0.00000000
In       1.46005275       2.06482641       3.57638424       15      -0.00000000       0.00000000       0.00000000
O        0.85316896       4.12660259       3.90409909       16      -0.02653781      -0.01222680      -0.00572649
O       -2.06693654       3.38257410       5.20336051       17      -0.02653781       0.00115412       0.01345197
O       -0.42283869       2.22002136       0.06419244       18      -0.01928537      -0.00397414       0.02233436
O       -0.85316897      -0.75012893       1.95469111       19       0.02653781      -0.01107269       0.00772548
O        3.87810029       4.91684327       1.89049867       20       0.00993405       0.02396744      -0.01460888
O        1.96211072       2.88602817       1.62697627       21      -0.00993405       0.02463538       0.01345197
O        1.96211072       6.16046792       0.26352240       22      -0.00993405      -0.00066795      -0.02806085
O       -2.23400244       5.85312824       3.64057668       23      -0.00268160       0.01950713       0.02233436
O        3.34294419       1.90963146       7.08857604       24       0.01928537       0.00397414      -0.02233436
O        5.15410794      -1.72347542       3.51219180       25       0.00268160      -0.01950713      -0.02233436
O        6.26304970       3.23042937       1.68588557       26       0.01928537       0.01735506       0.01460888
O        3.60620858       2.29109419       3.83990664       27      -0.00268160       0.00958856      -0.02806085
O        0.68610307       4.24473602       6.82505364       28      -0.00268160      -0.02909569       0.00572649
O        2.23400244      -0.11508320       0.32771484       29       0.00268160       0.02909569      -0.00572649
O       -3.34294419       0.89922344       5.46688291       30      -0.01928537      -0.01735506      -0.01460888
O        4.98704205       0.74707871       1.94940797       31       0.02653781      -0.00115412      -0.01345197
O        0.95799478       1.24362465       5.52579222       32       0.00993405      -0.02463538      -0.01345197
O        3.34294419      -1.01040801       5.53107536       33       0.01928537      -0.02132919       0.00772548
O        2.06693654       0.00305022       3.24866940       34       0.02653781       0.01222680       0.00572649
O        0.95799478      -2.03081510       6.88924608       35       0.00993405       0.00066795       0.02806085
O       -0.68610307       1.83855863       3.31286184       36       0.00268160      -0.00958856       0.02806085
O       -0.95799479      -0.78719046       5.26226981       37      -0.00993405      -0.02396744       0.01460888
O       -0.42283869       5.14006083       1.62169313       38      -0.01928537       0.02132919      -0.00772548
O        3.77327447       4.87978175       5.19807737       39      -0.02653781       0.01107269      -0.00772548
40
Lattice="8.760316521147269 6.866072079621964e-10 6.931237974739168e-16 -2.9201055076964297 8.259305623029501 -1.1892469882479502e-09 -2.9201055067254185 -4.129652810828137 7.152768487956044" Properties=species:S:1:pos:R:3:spacegroup_kinds:I:1:forces:R:3 spacegroup="P 1" unit_cell=conventional occupancy="_JSON {\"0\": {\"In\": 1}, \"1\": {\"In\": 1}, \"2\": {\"In\": 1}, \"3\": {\"In\": 1}, \"4\": {\"In\": 1}, \"5\": {\"In\": 1}, \"6\": {\"In\": 1}, \"7\": {\"In\": 1}, \"8\": {\"In\": 1}, \"9\": {\"In\": 1}, \"10\": {\"In\": 1}, \"11\": {\"In\": 1}, \"12\": {\"In\": 1}, \"13\": {\"In\": 1}, \"14\": {\"In\": 1}, \"15\": {\"In\": 1}, \"16\": {\"O\": 1}, \"17\": {\"O\": 1}, \"18\": {\"O\": 1}, \"19\": {\"O\": 1}, \"20\": {\"O\": 1}, \"21\": {\"O\": 1}, \"22\": {\"O\": 1}, \"23\": {\"O\": 1}, \"24\": {\"O\": 1}, \"25\": {\"O\": 1}, \"26\": {\"O\": 1}, \"27\": {\"O\": 1}, \"28\": {\"O\": 1}, \"29\": {\"O\": 1}, \"30\": {\"O\": 1}, \"31\": {\"O\": 1}, \"32\": {\"O\": 1}, \"33\": {\"O\": 1}, \"34\": {\"O\": 1}, \"35\": {\"O\": 1}, \"36\": {\"O\": 1}, \"37\": {\"O\": 1}, \"38\": {\"O\": 1}, \"39\": {\"O\": 1}}" n_minim_iter=3 energy=-45151.22723410362 stress="-0.051943990841319204 -1.405759108388519e-13 -5.07057036021539e-14 -1.405759108388519e-13 -0.05194399084135211 -3.608374688522774e-15 -5.07057036021539e-14 -3.608374688522774e-15 -0.05194399084118025" free_energy=-45151.22723410362 pbc="T T T"
In      -4.18122459       2.95657226       5.60821936        0       0.00166839      -0.00117973       0.00204335
In       7.10133009       1.17308056       1.54454912        1      -0.00166839       0.00117973      -0.00204335
In       1.26111908      -0.89174585       5.12093337        2      -0.00166839       0.00117973      -0.00204335
In      -1.46005275      -2.06482640       3.57638424        3       0.00000000       0.00000000       0.00000000
In      -1.26111908       3.98898546       3.33274124        4       0.00166839      -0.00117973      -0.00204335
In       4.57909193      -2.81590490       5.36457636        5       0.00166839       0.00235946      -0.00000000
In      -1.26111908       1.31374791       5.36457636        6       0.00166839       0.00235946       0.00000000
In      -1.65898643       6.94555772       1.78819212        7      -0.00166839      -0.00235946       0.00000000
In       4.18122458       0.14066735       3.82002724        8      -0.00166839       0.00117973       0.00204335
In      -1.46005276       4.12965281      -0.00000000        9       0.00000000      -0.00000000      -0.00000000
In       4.18122458       6.33514657       0.24364300       10      -0.00166839       0.00117973       0.00204335
In      -1.26111908      -2.20549375       6.90912549       11       0.00166839      -0.00117973      -0.00204335
In       4.18122458       2.81590491       1.78819212       12      -0.00166839      -0.00235946       0.00000000
In       1.65898643       5.02139867       2.03183512       13       0.00166839      -0.00117973       0.00204335
In       4.38015826       0.00000000      -0.00000000       14       0.00000000      -0.00000000      -0.00000000
In       1.46005275       2.06482641       3.57638424       15       0.00000000       0.00000000      -0.00000000
O        0.85075029       4.12541685       3.90571357       16      -0.00903592       0.01199386      -0.00752651
O       -2.06935522       3.38456516       5.20358015       17      -0.00903592      -0.01251508      -0.00662373
O       -0.42288565       2.22033536       0.06731682       18      -0.00350339      -0.01642717       0.00015221
O       -0.85075029      -0.74932362       1.95652523       19       0.00903592      -0.00052123      -0.01415024
O        3.88078370       4.91784182       1.88920841       20      -0.00878736       0.00060910      -0.01430245
O        1.95942731       2.88764483       1.62719590       21       0.00878736       0.01269084      -0.00662373
O        1.95942731       6.15984980       0.26201251       22       0.00878736      -0.01208173      -0.00767872
O       -2.23431414       5.85306785       3.64370106       23       0.01431989       0.00877875       0.00015221
O        3.34299116       1.90931746       7.08545167       24       0.00350339       0.01642717      -0.00015221
O        5.15441964      -1.72341503       3.50906742       25      -0.01431989      -0.00877875      -0.00015221
O        6.26309666       3.23329216       1.68717583       26       0.00350339      -0.00808177       0.01430245
O        3.60589688       2.29383017       3.83839675       27       0.01431989      -0.00425756      -0.00767872
O        0.68579137       4.24206042       6.82343916       28       0.01431989      -0.00452119       0.00752651
O        2.23431413      -0.11240761       0.32932933       29      -0.01431989       0.00452119      -0.00752651
O       -3.34299116       0.89636065       5.46559266       30      -0.00350339       0.00808177      -0.01430245
O        4.98946072       0.74508766       1.94918833       31       0.00903592       0.01251508       0.00662373
O        0.96067819       1.24200798       5.52557258       32      -0.00878736      -0.01269084       0.00662373
O        3.34299116      -1.01295680       5.53290948       33       0.00350339      -0.00834540      -0.01415024
O        2.06935522       0.00423596       3.24705491       34       0.00903592      -0.01199386       0.00752651
O        0.96067819      -2.03019698       6.89075598       35      -0.00878736       0.01208173       0.00767872
O       -0.68579137       1.83582265       3.31437173       36      -0.01431989       0.00425756       0.00767872
O       -0.96067820      -0.78818900       5.26356007       37       0.00878736      -0.00060910       0.01430245
O       -0.42288565       5.14260962       1.61985901       38      -0.00350339       0.00834540       0.01415024
O        3.77085579       4.87897643       5.19624325       39      -0.00903592       0.00052123       0.01415024
40
Lattice="8.760316521147269 6.866072079621964e-10 6.931237974739153e-16 -2.9201055076964297 8.259305623029501 -1.1892469882479502e-09 -2.9201055067254185 -4.129652810828137 7.152768487956044" Properties=species:S:1:pos:R:3:spacegroup_kinds:I:1:forces:R:3 spacegroup="P 1" unit_cell=conventional occupancy="_JSON {\"0\": {\"In\": 1}, \"1\": {\"In\": 1}, \"2\": {\"In\": 1}, \"3\": {\"In\": 1}, \"4\": {\"In\": 1}, \"5\": {\"In\": 1}, \"6\": {\"In\": 1}, \"7\": {\"In\": 1}, \"8\": {\"In\": 1}, \"9\": {\"In\": 1}, \"10\": {\"In\": 1}, \"11\": {\"In\": 1}, \"12\": {\"In\": 1}, \"13\": {\"In\": 1}, \"14\": {\"In\": 1}, \"15\": {\"In\": 1}, \"16\": {\"O\": 1}, \"17\": {\"O\": 1}, \"18\": {\"O\": 1}, \"19\": {\"O\": 1}, \"20\": {\"O\": 1}, \"21\": {\"O\": 1}, \"22\": {\"O\": 1}, \"23\": {\"O\": 1}, \"24\": {\"O\": 1}, \"25\": {\"O\": 1}, \"26\": {\"O\": 1}, \"27\": {\"O\": 1}, \"28\": {\"O\": 1}, \"29\": {\"O\": 1}, \"30\": {\"O\": 1}, \"31\": {\"O\": 1}, \"32\": {\"O\": 1}, \"33\": {\"O\": 1}, \"34\": {\"O\": 1}, \"35\": {\"O\": 1}, \"36\": {\"O\": 1}, \"37\": {\"O\": 1}, \"38\": {\"O\": 1}, \"39\": {\"O\": 1}}" n_minim_iter=4 energy=-45151.22734694302 stress="-0.05199794836208296 -7.80784450601054e-14 2.148459390358828e-13 -7.80784450601054e-14 -0.05199794836237554 3.897690376146581e-14 2.148459390358828e-13 3.897690376146581e-14 -0.05199794836171675" free_energy=-45151.22734694302 pbc="T T T"
In      -4.18113600       2.95650962       5.60832786        0      -0.00146735       0.00103757      -0.00179713
In       7.10124150       1.17314320       1.54444062        1       0.00146735      -0.00103757       0.00179713
In       1.26103049      -0.89168321       5.12082487        2       0.00146735      -0.00103757       0.00179713
In      -1.46005275      -2.06482640       3.57638424        3      -0.00000000      -0.00000000      -0.00000000
In      -1.26103049       3.98892282       3.33263275        4      -0.00146735       0.00103757       0.00179713
In       4.57918052      -2.81577962       5.36457636        5      -0.00146735      -0.00207515       0.00000000
In      -1.26103049       1.31387319       5.36457636        6      -0.00146735      -0.00207515      -0.00000000
In      -1.65907502       6.94543244       1.78819212        7       0.00146735       0.00207515      -0.00000000
In       4.18113600       0.14072999       3.82013574        8       0.00146735      -0.00103757      -0.00179713
In      -1.46005276       4.12965281      -0.00000000        9      -0.00000000       0.00000000      -0.00000000
In       4.18113600       6.33520921       0.24375149       10       0.00146735      -0.00103757      -0.00179713
In      -1.26103049      -2.20555639       6.90901699       11      -0.00146735       0.00103757       0.00179713
In       4.18113600       2.81577963       1.78819212       12       0.00146735       0.00207515      -0.00000000
In       1.65907501       5.02133603       2.03194361       13      -0.00146735       0.00103757      -0.00179713
In       4.38015826       0.00000000      -0.00000000       14       0.00000000       0.00000000       0.00000000
In       1.46005275       2.06482641       3.57638424       15       0.00000000      -0.00000000      -0.00000000
O        0.85063537       4.12560449       3.90531716       16      -0.00724565       0.01019287      -0.00090347
O       -2.06947014       3.38412804       5.20361585       17      -0.00724565      -0.00587886      -0.00837555
O       -0.42315917       2.22001039       0.06715828       18       0.00165207      -0.01217050       0.00252189
O       -0.85063537      -0.74957310       1.95616453       19       0.00724565       0.00431401      -0.00927902
O        3.88040989       4.91799976       1.88900625       20      -0.00312743      -0.00285799      -0.01180090
O        1.95980112       2.88789888       1.62723161       21       0.00312743       0.00879089      -0.00837555
O        1.95980112       6.15975369       0.26177464       22       0.00312743      -0.01164888      -0.00342536
O       -2.23409893       5.85343405       3.64354252       23       0.01202514       0.00249925       0.00252189
O        3.34326468       1.90964242       7.08561020       24      -0.00165207       0.01217050      -0.00252189
O        5.15420443      -1.72378123       3.50922596       25      -0.01202514      -0.00249925      -0.00252189
O        6.26337018       3.23299238       1.68737799       26      -0.00165207      -0.00390123       0.01180090
O        3.60611209       2.29350977       3.83815888       27       0.01202514       0.00093440      -0.00342536
O        0.68600658       4.24201462       6.82383556       28       0.01202514      -0.00343364       0.00090347
O        2.23409892      -0.11236181       0.32893292       29      -0.01202514       0.00343364      -0.00090347
O       -3.34326468       0.89666044       5.46539050       30       0.00165207       0.00390123      -0.01180090
O        4.98957564       0.74552478       1.94915263       31       0.00724565       0.00587886       0.00837555
O        0.96030438       1.24175393       5.52553687       32      -0.00312743      -0.00879089       0.00837555
O        3.34326468      -1.01298199       5.53254878       33      -0.00165207      -0.00826927      -0.00927902
O        2.06947013       0.00404833       3.24745132       34       0.00724565      -0.01019287       0.00090347
O        0.96030438      -2.03010088       6.89099384       35      -0.00312743       0.01164888       0.00342536
O       -0.68600658       1.83614304       3.31460960       36      -0.01202514      -0.00093440       0.00342536
O       -0.96030439      -0.78834695       5.26376223       37       0.00312743       0.00285799       0.01180090
O       -0.42315917       5.14263480       1.62021971       38       0.00165207       0.00826927       0.00927902
O        3.77074088       4.87922591       5.19660395       39      -0.00724565      -0.00431401       0.00927902
40
Lattice="8.760316521147272 6.866072079621967e-10 6.93123797473922e-16 -2.920105507696431 8.259305623029505 -1.189246988247951e-09 -2.92010550672542 -4.129652810828139 7.152768487956048" Properties=species:S:1:pos:R:3:spacegroup_kinds:I:1:forces:R:3 spacegroup="P 1" unit_cell=conventional occupancy="_JSON {\"0\": {\"In\": 1}, \"1\": {\"In\": 1}, \"2\": {\"In\": 1}, \"3\": {\"In\": 1}, \"4\": {\"In\": 1}, \"5\": {\"In\": 1}, \"6\": {\"In\": 1}, \"7\": {\"In\": 1}, \"8\": {\"In\": 1}, \"9\": {\"In\": 1}, \"10\": {\"In\": 1}, \"11\": {\"In\": 1}, \"12\": {\"In\": 1}, \"13\": {\"In\": 1}, \"14\": {\"In\": 1}, \"15\": {\"In\": 1}, \"16\": {\"O\": 1}, \"17\": {\"O\": 1}, \"18\": {\"O\": 1}, \"19\": {\"O\": 1}, \"20\": {\"O\": 1}, \"21\": {\"O\": 1}, \"22\": {\"O\": 1}, \"23\": {\"O\": 1}, \"24\": {\"O\": 1}, \"25\": {\"O\": 1}, \"26\": {\"O\": 1}, \"27\": {\"O\": 1}, \"28\": {\"O\": 1}, \"29\": {\"O\": 1}, \"30\": {\"O\": 1}, \"31\": {\"O\": 1}, \"32\": {\"O\": 1}, \"33\": {\"O\": 1}, \"34\": {\"O\": 1}, \"35\": {\"O\": 1}, \"36\": {\"O\": 1}, \"37\": {\"O\": 1}, \"38\": {\"O\": 1}, \"39\": {\"O\": 1}}" n_minim_iter=5 energy=-45151.227443152566 stress="-0.0520227355350314 -5.2782173552366764e-14 -1.6686037996275397e-13 -5.2782173552366764e-14 -0.05202273553562068 -2.308347254741561e-14 -1.6686037996275397e-13 -2.308347254741561e-14 -0.05202273553509549" free_energy=-45151.227443152566 pbc="T T T"
In      -4.18106385       2.95645860       5.60841622        0      -0.00365406       0.00258381      -0.00447529
In       7.10116936       1.17319421       1.54435226        1       0.00365406      -0.00258381       0.00447529
In       1.26095834      -0.89163219       5.12073650        2       0.00365406      -0.00258381       0.00447529
In      -1.46005275      -2.06482640       3.57638424        3       0.00000000      -0.00000000       0.00000000
In      -1.26095834       3.98887181       3.33254438        4      -0.00365406       0.00258381       0.00447529
In       4.57925267      -2.81567759       5.36457636        5      -0.00365406      -0.00516762       0.00000000
In      -1.26095834       1.31397522       5.36457636        6      -0.00365406      -0.00516762       0.00000000
In      -1.65914717       6.94533041       1.78819212        7       0.00365406       0.00516762       0.00000000
In       4.18106385       0.14078101       3.82022410        8       0.00365406      -0.00258381      -0.00447529
In      -1.46005276       4.12965281      -0.00000000        9      -0.00000000      -0.00000000       0.00000000
In       4.18106385       6.33526023       0.24383986       10       0.00365406      -0.00258381      -0.00447529
In      -1.26095834      -2.20560741       6.90892863       11      -0.00365406       0.00258381       0.00447529
In       4.18106385       2.81567759       1.78819212       12       0.00365406       0.00516762      -0.00000000
In       1.65914716       5.02128501       2.03203198       13      -0.00365406       0.00258381      -0.00447529
In       4.38015826       0.00000000      -0.00000000       14       0.00000000      -0.00000000      -0.00000000
In       1.46005275       2.06482641       3.57638424       15      -0.00000000       0.00000000      -0.00000000
O        0.85031626       4.12592857       3.90510366       16      -0.00490290       0.00557150       0.00284460
O       -2.06978925       3.38378110       5.20344195       17      -0.00490290      -0.00032225      -0.00624736
O       -0.42328710       2.21952826       0.06721853       18       0.00331474      -0.00613300       0.00381715
O       -0.85031626      -0.74959596       1.95577712       19       0.00490290       0.00524925      -0.00340276
O        3.88018916       4.91805741       1.88855859       20       0.00133048      -0.00304542      -0.00721991
O        1.96002185       2.88831539       1.62705770       21      -0.00133048       0.00472991      -0.00624736
O        1.96002185       6.15939483       0.26150089       22      -0.00133048      -0.00777533      -0.00097254
O       -2.23368701       5.85371536       3.64360277       23       0.00688716      -0.00108083       0.00381715
O        3.34339260       1.91012455       7.08554996       24      -0.00331474       0.00613300      -0.00381715
O        5.15379252      -1.72406255       3.50916571       25      -0.00688716       0.00108083      -0.00381715
O        6.26349811       3.23280349       1.68782565       26      -0.00331474       0.00023925       0.00721991
O        3.60652400       2.29342129       3.83788513       27       0.00688716       0.00384616      -0.00097254
O        0.68641849       4.24182179       6.82404906       28       0.00688716      -0.00276533      -0.00284460
O        2.23368701      -0.11216897       0.32871942       29      -0.00688716       0.00276533       0.00284460
O       -3.34339260       0.89684932       5.46494284       30       0.00331474      -0.00023925      -0.00721991
O        4.98989475       0.74587171       1.94932654       31       0.00490290       0.00032225       0.00624736
O        0.96008366       1.24133743       5.52571078       32       0.00133048      -0.00472991       0.00624736
O        3.34339260      -1.01327523       5.53216137       33      -0.00331474      -0.00637225      -0.00340276
O        2.06978925       0.00372425       3.24766482       34       0.00490290      -0.00557150      -0.00284460
O        0.96008366      -2.02974202       6.89126759       35       0.00133048       0.00777533       0.00097254
O       -0.68641850       1.83623153       3.31488335       36      -0.00688716      -0.00384616       0.00097254
O       -0.96008366      -0.78840459       5.26420989       37      -0.00133048       0.00304542       0.00721991
O       -0.42328710       5.14292804       1.62060712       38       0.00331474       0.00637225       0.00340276
O        3.77042177       4.87924877       5.19699136       39      -0.00490290      -0.00524925       0.00340276
