40
Lattice="8.76031652114727 6.866095682708022e-10 -2.3197694018181283e-15 -2.92010550769643 8.259305623029505 -1.1892444970102009e-09 -2.9201055067254202 -4.129652810828142 7.152768487956044" Properties=species:S:1:pos:R:3:spacegroup_kinds:I:1:forces:R:3 spacegroup="P 1" unit_cell=conventional occupancy="_JSON {\"0\": {\"In\": 1}, \"1\": {\"In\": 1}, \"2\": {\"In\": 1}, \"3\": {\"In\": 1}, \"4\": {\"In\": 1}, \"5\": {\"In\": 1}, \"6\": {\"In\": 1}, \"7\": {\"In\": 1}, \"8\": {\"In\": 1}, \"9\": {\"In\": 1}, \"10\": {\"In\": 1}, \"11\": {\"In\": 1}, \"12\": {\"In\": 1}, \"13\": {\"In\": 1}, \"14\": {\"In\": 1}, \"15\": {\"In\": 1}, \"16\": {\"O\": 1}, \"17\": {\"O\": 1}, \"18\": {\"O\": 1}, \"19\": {\"O\": 1}, \"20\": {\"O\": 1}, \"21\": {\"O\": 1}, \"22\": {\"O\": 1}, \"23\": {\"O\": 1}, \"24\": {\"O\": 1}, \"25\": {\"O\": 1}, \"26\": {\"O\": 1}, \"27\": {\"O\": 1}, \"28\": {\"O\": 1}, \"29\": {\"O\": 1}, \"30\": {\"O\": 1}, \"31\": {\"O\": 1}, \"32\": {\"O\": 1}, \"33\": {\"O\": 1}, \"34\": {\"O\": 1}, \"35\": {\"O\": 1}, \"36\": {\"O\": 1}, \"37\": {\"O\": 1}, \"38\": {\"O\": 1}, \"39\": {\"O\": 1}}" n_minim_iter=5 energy=-45151.745275398345 stress="-0.024736394863599548 5.023516513350021e-14 1.954127638121273e-13 5.023516513350021e-14 -0.024736394863377382 -1.2477570612635936e-13 1.954127638121273e-13 -1.2477570612635936e-13 -0.02473639486351449" free_energy=-45151.745275398345 pbc="T T T"
In      -4.18285906       2.95772801       5.60621754        0      -0.00547874       0.00387405      -0.00671006
In       7.10296457       1.17192481       1.54655094        1       0.00547874      -0.00387405       0.00671006
In       1.26275355      -0.89290160       5.12293518        2       0.00547874      -0.00387405       0.00671006
In      -1.46005275      -2.06482640       3.57638424        3       0.00000000       0.00000000      -0.00000000
In      -1.26275356       3.99014121       3.33474306        4      -0.00547874       0.00387405       0.00671006
In       4.57745746      -2.81821641       5.36457636        5      -0.00547874      -0.00774811      -0.00000000
In      -1.26275356       1.31143641       5.36457636        6      -0.00547874      -0.00774811      -0.00000000
In      -1.65735195       6.94786922       1.78819212        7       0.00547874       0.00774811      -0.00000000
In       4.18285906       0.13951160       3.81802542        8       0.00547874      -0.00387405      -0.00671006
In      -1.46005276       4.12965281      -0.00000000        9       0.00000000       0.00000000       0.00000000
In       4.18285906       6.33399082       0.24164118       10       0.00547874      -0.00387405      -0.00671006
In      -1.26275356      -2.20433800       6.91112730       11      -0.00547874       0.00387405       0.00671006
In       4.18285906       2.81821641       1.78819212       12       0.00547874       0.00774811      -0.00000000
In       1.65735195       5.02255442       2.02983330       13      -0.00547874       0.00387405      -0.00671006
In       4.38015826       0.00000000      -0.00000000       14       0.00000000       0.00000000       0.00000000
In       1.46005275       2.06482641       3.57638424       15      -0.00000000      -0.00000000       0.00000000
O        0.85471297       4.12752416       3.89814072       16      -0.00378656       0.00068368      -0.00159081
O       -2.06539254       3.37695322       5.20554159       17      -0.00378656      -0.00171953       0.00020332
O       -0.42675457       2.21826120       0.05968655       18      -0.00223879      -0.00281397       0.00209895
O       -0.85471297      -0.75482824       1.95091383       19       0.00378656      -0.00103584      -0.00138749
O        3.87228621       4.91894110       1.89122727       20      -0.00035900       0.00224767      -0.00348644
O        1.96792480       2.88644609       1.62915734       21       0.00035900       0.00414318       0.00020332
O        1.96792480       6.16214782       0.26206992       22       0.00035900      -0.00189551      -0.00368976
O       -2.23364824       5.85740688       3.63607080       23       0.00190677       0.00304874       0.00209895
O        3.34686007       1.91139161       7.09308193       24       0.00223879       0.00281397      -0.00209895
O        5.15375374      -1.72775407       3.51669769       25      -0.00190677      -0.00304874      -0.00209895
O        6.26696558       3.22564708       1.68515697       26       0.00223879       0.00041076       0.00348644
O        3.60656277       2.28505265       3.83845417       27       0.00190677       0.00029337      -0.00368976
O        0.68645727       4.24649891       6.83101200       28       0.00190677      -0.00334211       0.00159081
O        2.23364824      -0.11684609       0.32175648       29      -0.00190677       0.00334211      -0.00159081
O       -3.34686008       0.90400574       5.46761151       30      -0.00223879      -0.00041076      -0.00348644
O        4.98549805       0.75269959       1.94722690       31       0.00378656       0.00171953      -0.00020332
O        0.95218070       1.24320672       5.52361114       32      -0.00035900      -0.00414318      -0.00020332
O        3.34686007      -1.00738588       5.52729807       33       0.00223879      -0.00322472      -0.00138749
O        2.06539254       0.00212865       3.25462776       34       0.00378656      -0.00068368       0.00159081
O        0.95218070      -2.03249501       6.89069856       35      -0.00035900       0.00189551       0.00368976
O       -0.68645727       1.84460017       3.31431431       36      -0.00190677      -0.00029337       0.00368976
O       -0.95218070      -0.78928829       5.26154121       37       0.00035900      -0.00224767       0.00348644
O       -0.42675457       5.13703869       1.62547041       38      -0.00223879       0.00322472       0.00138749
O        3.77481847       4.88448105       5.20185466       39      -0.00378656       0.00103584       0.00138749
