40
Lattice="8.441473048089984 6.616189057004404e-10 1.0394768948878323e-14 -2.8138243499871076 7.958697113789997 -1.1459716207159934e-09 -2.813824349051447 -3.97934855623337 6.892433882332006" Properties=species:S:1:pos:R:3:spacegroup_kinds:I:1:forces:R:3 spacegroup="P 1" unit_cell=conventional occupancy="_JSON {\"0\": {\"In\": 1}, \"1\": {\"In\": 1}, \"2\": {\"In\": 1}, \"3\": {\"In\": 1}, \"4\": {\"In\": 1}, \"5\": {\"In\": 1}, \"6\": {\"In\": 1}, \"7\": {\"In\": 1}, \"8\": {\"In\": 1}, \"9\": {\"In\": 1}, \"10\": {\"In\": 1}, \"11\": {\"In\": 1}, \"12\": {\"In\": 1}, \"13\": {\"In\": 1}, \"14\": {\"In\": 1}, \"15\": {\"In\": 1}, \"16\": {\"O\": 1}, \"17\": {\"O\": 1}, \"18\": {\"O\": 1}, \"19\": {\"O\": 1}, \"20\": {\"O\": 1}, \"21\": {\"O\": 1}, \"22\": {\"O\": 1}, \"23\": {\"O\": 1}, \"24\": {\"O\": 1}, \"25\": {\"O\": 1}, \"26\": {\"O\": 1}, \"27\": {\"O\": 1}, \"28\": {\"O\": 1}, \"29\": {\"O\": 1}, \"30\": {\"O\": 1}, \"31\": {\"O\": 1}, \"32\": {\"O\": 1}, \"33\": {\"O\": 1}, \"34\": {\"O\": 1}, \"35\": {\"O\": 1}, \"36\": {\"O\": 1}, \"37\": {\"O\": 1}, \"38\": {\"O\": 1}, \"39\": {\"O\": 1}}" n_minim_iter=4 energy=-45146.95676782204 stress="-0.16539495946705887 -1.6704590203277852e-13 -5.2987508301954205e-14 -1.6704590203277852e-13 -0.16539495946723598 -8.444970021214787e-15 -5.2987508301954205e-14 -8.444970021214787e-15 -0.16539495946716884" free_energy=-45146.95676782204 pbc="T T T"
In      -4.02540758       2.84639300       5.40855354        0      -0.00372235       0.00263210      -0.00455893
In       6.83923192       1.13295556       1.48388034        1       0.00372235      -0.00263210       0.00455893
In       1.21158323      -0.85671871       4.93009728        2       0.00372235      -0.00263210       0.00455893
In      -1.40691218      -1.98967428       3.44621694        3      -0.00000000       0.00000000       0.00000000
In      -1.21158323       3.84123014       3.20698881        4      -0.00372235       0.00263210       0.00455893
In       4.41606547      -2.70827457       5.16932541        5      -0.00372235      -0.00526420       0.00000000
In      -1.21158323       1.27107399       5.16932541        6      -0.00372235      -0.00526420      -0.00000000
In      -1.60224112       6.68762313       1.72310847        7       0.00372235       0.00526420       0.00000000
In       4.02540758       0.13811843       3.68544507        8       0.00372235      -0.00263210      -0.00455893
In      -1.40691218       3.97934856      -0.00000000        9       0.00000000      -0.00000000       0.00000000
In       4.02540757       6.10714126       0.23922812       10       0.00372235      -0.00263210      -0.00455893
In      -1.21158323      -2.12779270       6.65320575       11      -0.00372235       0.00263210       0.00455893
In       4.02540757       2.70827457       1.72310847       12       0.00372235       0.00526420       0.00000000
In       1.60224112       4.83606727       1.96233659       13      -0.00372235       0.00263210      -0.00455893
In       4.22073652       0.00000000      -0.00000000       14      -0.00000000      -0.00000000       0.00000000
In       1.40691217       1.98967428       3.44621694       15      -0.00000000       0.00000000       0.00000000
O        0.80592647       3.97260651       3.78080748       16      -0.00184564      -0.00205043      -0.00213325
O       -2.00789788       3.27764635       5.00786893       17      -0.00184564      -0.00082223       0.00284235
O       -0.39928550       2.14018562       0.08557481       18      -0.00332359       0.00022283       0.00103225
O       -0.80592647      -0.70844426       1.89624252       19       0.00184564      -0.00287266       0.00070910
O        3.75949390       4.73719946       1.81066771       20      -0.00015999       0.00346863      -0.00032314
O        1.86815479       2.79018977       1.56165199       21       0.00015999       0.00201417       0.00284235
O        1.86815479       5.92635824       0.24901572       22       0.00015999       0.00145446      -0.00316549
O       -2.15088152       5.63207761       3.53179175       23      -0.00131795       0.00305923       0.00103225
O        3.21310984       1.83916294       6.80685907       24       0.00332359      -0.00022283      -0.00103225
O        4.96470587      -1.65272904       3.36064213       25       0.00131795      -0.00305923      -0.00103225
O        6.02693419       3.13387705       1.63554923       26       0.00332359       0.00100537       0.00032314
O        3.47676718       2.23225686       3.69523266       27      -0.00131795      -0.00063566      -0.00316549
O        0.66294283       4.07371121       6.55784334       28      -0.00131795      -0.00242357       0.00213325
O        2.15088152      -0.09436265       0.33459053       29       0.00131795       0.00242357      -0.00213325
O       -3.21310985       0.84547151       5.25688465       30      -0.00332359      -0.00100537      -0.00032314
O        4.82172223       0.70170221       1.88456495       31       0.00184564       0.00082223      -0.00284235
O        0.94566955       1.18915879       5.33078189       32      -0.00015999      -0.00201417      -0.00284235
O        3.21310984      -0.99369143       5.34245946       33       0.00332359      -0.00078253       0.00070910
O        2.00789788       0.00674205       3.11162640       34       0.00184564       0.00205043       0.00213325
O        0.94566955      -1.94700968       6.64341816       35      -0.00015999      -0.00145446       0.00316549
O       -0.66294283       1.74709170       3.19720121       36       0.00131795       0.00063566       0.00316549
O       -0.94566956      -0.75785090       5.08176617       37       0.00015999      -0.00346863       0.00032314
O       -0.39928550       4.97303999       1.54997441       38      -0.00332359       0.00078253      -0.00070910
O        3.61975082       4.68779282       4.99619135       39      -0.00184564       0.00287266      -0.00070910
