40
Lattice="8.357888617026912 6.55067788270893e-10 1.3794525211700293e-14 -2.7859628729599084 7.879892956450427 -1.1346284431758124e-09 -2.7859628720335134 -3.939946477570135 6.824187480144543" Properties=species:S:1:pos:R:3:spacegroup_kinds:I:1:forces:R:3 spacegroup="P 1" unit_cell=conventional occupancy="_JSON {\"0\": {\"In\": 1}, \"1\": {\"In\": 1}, \"2\": {\"In\": 1}, \"3\": {\"In\": 1}, \"4\": {\"In\": 1}, \"5\": {\"In\": 1}, \"6\": {\"In\": 1}, \"7\": {\"In\": 1}, \"8\": {\"In\": 1}, \"9\": {\"In\": 1}, \"10\": {\"In\": 1}, \"11\": {\"In\": 1}, \"12\": {\"In\": 1}, \"13\": {\"In\": 1}, \"14\": {\"In\": 1}, \"15\": {\"In\": 1}, \"16\": {\"O\": 1}, \"17\": {\"O\": 1}, \"18\": {\"O\": 1}, \"19\": {\"O\": 1}, \"20\": {\"O\": 1}, \"21\": {\"O\": 1}, \"22\": {\"O\": 1}, \"23\": {\"O\": 1}, \"24\": {\"O\": 1}, \"25\": {\"O\": 1}, \"26\": {\"O\": 1}, \"27\": {\"O\": 1}, \"28\": {\"O\": 1}, \"29\": {\"O\": 1}, \"30\": {\"O\": 1}, \"31\": {\"O\": 1}, \"32\": {\"O\": 1}, \"33\": {\"O\": 1}, \"34\": {\"O\": 1}, \"35\": {\"O\": 1}, \"36\": {\"O\": 1}, \"37\": {\"O\": 1}, \"38\": {\"O\": 1}, \"39\": {\"O\": 1}}" n_minim_iter=4 energy=-45144.371540941196 stress="-0.21509494840609047 -5.480082970521571e-14 -2.5185208824327436e-13 -5.480082970521571e-14 -0.21509494840565194 -5.988159177413801e-14 -2.5185208824327436e-13 -5.988159177413801e-14 -0.2150949484056193" free_energy=-45144.371540941196 pbc="T T T"
In      -3.98420901       2.81726121       5.35664166        0      -0.00109224       0.00077233      -0.00133771
In       6.77017188       1.12268527       1.46754581        1       0.00109224      -0.00077233       0.00133771
In       1.19824614      -0.84728797       4.87963955        2       0.00109224      -0.00077233       0.00133771
In      -1.39298144      -1.96997324       3.41209374        3       0.00000000      -0.00000000       0.00000000
In      -1.19824614       3.80224783       3.17359268        4      -0.00109224       0.00077233       0.00133771
In       4.37367960      -2.67956256       5.11814061        5      -0.00109224      -0.00154466       0.00000000
In      -1.19824614       1.26038392       5.11814061        6      -0.00109224      -0.00154466      -0.00000000
In      -1.58771673       6.61950904       1.70604687        7       0.00109224       0.00154466      -0.00000000
In       3.98420901       0.13769865       3.65059479        8       0.00109224      -0.00077233      -0.00133771
In      -1.39298144       3.93994648      -0.00000000        9      -0.00000000      -0.00000000      -0.00000000
In       3.98420901       6.04761837       0.23850105       10       0.00109224      -0.00077233      -0.00133771
In      -1.19824614      -2.10767188       6.58568642       11      -0.00109224       0.00077233       0.00133771
In       3.98420901       2.67956256       1.70604687       12       0.00109224       0.00154466       0.00000000
In       1.58771673       4.78723445       1.94454792       13      -0.00109224       0.00077233      -0.00133771
In       4.17894431       0.00000000      -0.00000000       14       0.00000000      -0.00000000      -0.00000000
In       1.39298143       1.96997324       3.41209374       15      -0.00000000       0.00000000       0.00000000
O        0.79406875       3.93210993       3.74914828       16      -0.00162703      -0.00065857      -0.00154048
O       -1.99189412       3.25077593       4.95639999       17      -0.00162703      -0.00100481       0.00134058
O       -0.39245501       2.11980169       0.09111735       18      -0.00211060      -0.00066287       0.00074833
O       -0.79406875      -0.69700710       1.88136079       19       0.00162703      -0.00166338      -0.00019990
O        3.72882564       4.68956021       1.79024343       20      -0.00040500       0.00209543      -0.00094823
O        1.84310010       2.76435705       1.54430625       21       0.00040500       0.00186891       0.00134058
O        1.84310010       5.86514964       0.24593718       22       0.00040500       0.00022652      -0.00228882
O       -2.12938654       5.57332929       3.50321109       23      -0.00007857       0.00221085       0.00074833
O        3.17841788       1.82014479       6.73307012       24       0.00211060       0.00066287      -0.00074833
O        4.91534940      -1.63338281       3.32097638       25       0.00007857      -0.00221085      -0.00074833
O        5.96438075       3.10878403       1.62185030       26       0.00211060       0.00031664       0.00094823
O        3.44253921       2.21717840       3.65803092       27      -0.00007857      -0.00045735      -0.00228882
O        0.65657634       4.02933175       6.48713293       28      -0.00007857      -0.00175350       0.00154048
O        2.12938653      -0.08938527       0.33705454       29       0.00007857       0.00175350      -0.00154048
O       -3.17841788       0.83116245       5.20233717       30      -0.00211060      -0.00031664      -0.00094823
O        4.77785699       0.68917055       1.86778749       31       0.00162703       0.00100481      -0.00134058
O        0.94286277       1.17558943       5.27988123       32      -0.00040500      -0.00186891      -0.00134058
O        3.17841788      -0.98898234       5.29345453       33       0.00211060      -0.00097951      -0.00019990
O        1.99189412       0.00783655       3.07503919       34       0.00162703       0.00065857       0.00154048
O        0.94286277      -1.92520315       6.57825029       35      -0.00040500      -0.00022652       0.00228882
O       -0.65657634       1.72276808       3.16615655       36       0.00007857       0.00045735       0.00228882
O       -0.94286277      -0.74961373       5.03394404       37       0.00040500      -0.00209543       0.00094823
O       -0.39245501       4.92892882       1.53073295       38      -0.00211060       0.00097951       0.00019990
O        3.58003162       4.63695358       4.94282669       39      -0.00162703       0.00166338       0.00019990
