40
Lattice="9.599499727660014 7.523803593357793e-10 2.3446102750719716e-14 -3.1998332432626904 9.050495137651621 -1.3032085125786302e-09 -3.1998332421986846 -4.525247568073395 7.837958706902637" Properties=species:S:1:pos:R:3:spacegroup_kinds:I:1:forces:R:3 spacegroup="P 1" unit_cell=conventional occupancy="_JSON {\"0\": {\"In\": 1}, \"1\": {\"In\": 1}, \"2\": {\"In\": 1}, \"3\": {\"In\": 1}, \"4\": {\"In\": 1}, \"5\": {\"In\": 1}, \"6\": {\"In\": 1}, \"7\": {\"In\": 1}, \"8\": {\"In\": 1}, \"9\": {\"In\": 1}, \"10\": {\"In\": 1}, \"11\": {\"In\": 1}, \"12\": {\"In\": 1}, \"13\": {\"In\": 1}, \"14\": {\"In\": 1}, \"15\": {\"In\": 1}, \"16\": {\"O\": 1}, \"17\": {\"O\": 1}, \"18\": {\"O\": 1}, \"19\": {\"O\": 1}, \"20\": {\"O\": 1}, \"21\": {\"O\": 1}, \"22\": {\"O\": 1}, \"23\": {\"O\": 1}, \"24\": {\"O\": 1}, \"25\": {\"O\": 1}, \"26\": {\"O\": 1}, \"27\": {\"O\": 1}, \"28\": {\"O\": 1}, \"29\": {\"O\": 1}, \"30\": {\"O\": 1}, \"31\": {\"O\": 1}, \"32\": {\"O\": 1}, \"33\": {\"O\": 1}, \"34\": {\"O\": 1}, \"35\": {\"O\": 1}, \"36\": {\"O\": 1}, \"37\": {\"O\": 1}, \"38\": {\"O\": 1}, \"39\": {\"O\": 1}}" n_minim_iter=5 energy=-45143.89180772934 stress="0.10297022803800186 -1.484438649701259e-13 5.396817618050175e-15 -1.484438649701259e-13 0.10297022803781321 1.2210951281209692e-13 5.396817618050175e-15 1.2210951281209692e-13 0.10297022803791402" free_energy=-45143.89180772934 pbc="T T T"
In      -4.54386217       3.21299575       6.19186617        0       0.00177357      -0.00125410       0.00217217
In       7.74369541       1.31225182       1.64609253        1      -0.00177357       0.00125410      -0.00217217
In       1.34402892      -0.95037196       5.56507188        2      -0.00177357       0.00125410      -0.00217217
In      -1.59991662      -2.26262378       3.91897935        3       0.00000000       0.00000000      -0.00000000
In      -1.34402892       4.34430764       3.60558220        4       0.00177357      -0.00125410      -0.00217217
In       5.05563756      -3.03205582       5.87846903        5       0.00177357       0.00250820      -0.00000000
In      -1.34402892       1.49319175       5.87846903        6       0.00177357       0.00250820      -0.00000000
In      -1.85580432       7.55730339       1.95948967        7      -0.00177357      -0.00250820       0.00000000
In       4.54386216       0.18093993       4.23237650        8      -0.00177357       0.00125410       0.00217217
In      -1.59991662       4.52524757      -0.00000000        9      -0.00000000       0.00000000      -0.00000000
In       4.54386216       6.96881128       0.31339714       10      -0.00177357       0.00125410       0.00217217
In      -1.34402892      -2.44356371       7.52456156       11       0.00177357      -0.00125410      -0.00217217
In       4.54386216       3.03205582       1.95948967       12      -0.00177357      -0.00250820      -0.00000000
In       1.85580432       5.47561954       2.27288682       13       0.00177357      -0.00125410       0.00217217
In       4.79974986       0.00000000      -0.00000000       14       0.00000000      -0.00000000      -0.00000000
In       1.59991662       2.26262379       3.91897935       15       0.00000000       0.00000000       0.00000000
O        1.13875984       4.55084594       4.21287727       16      -0.00026630       0.00350833      -0.00239284
O       -2.06107340       3.63565956       5.70935123       17      -0.00026630      -0.00382643      -0.00184188
O       -0.43499063       2.48584540      -0.13707095       18      -0.00038867      -0.00373990      -0.00199175
O       -1.13875984      -0.86398964       2.08426979       19       0.00026630      -0.00031810      -0.00423472
O        4.11475717       5.31009927       2.22134074       20      -0.00351882      -0.00083184      -0.00224297
O        2.28490931       2.99393591       1.79037187       21       0.00351882       0.00152655      -0.00184188
O        2.28490931       6.84141093       0.43096886       22       0.00351882      -0.00235839      -0.00040109
O       -2.48867440       6.36936932       3.78190841       23       0.00339645       0.00161307      -0.00199175
O        3.63482387       2.03940217       7.97502965       24       0.00038867       0.00373990       0.00199175
O        5.68850764      -1.84412175       4.05605029       25      -0.00339645      -0.00161307       0.00199175
O        6.83465711       3.38683957       1.69763861       26       0.00038867      -0.00359486       0.00224297
O        3.91099208       2.35316788       4.34994821       27       0.00339645      -0.00253145      -0.00040109
O        0.71115884       4.85320551       7.54406078       28       0.00339645       0.00091837       0.00239284
O        2.48867440      -0.32795793       0.29389792       29      -0.00339645      -0.00091837      -0.00239284
O       -3.63482388       1.13840800       6.14032009       30      -0.00038867       0.00359486      -0.00224297
O        5.26090664       0.88958801       2.12860747       31       0.00026630       0.00382643       0.00184188
O        0.91492393       1.53131167       6.04758683       32      -0.00351882      -0.00152655       0.00184188
O        3.63482387      -0.90099416       6.00324915       33       0.00038867      -0.00014504      -0.00423472
O        2.06107340      -0.02559837       3.62508143       34       0.00026630      -0.00350833       0.00239284
O        0.91492393      -2.31616336       7.40698984       35      -0.00351882       0.00235839       0.00040109
O       -0.71115885       2.17207969       3.48801049       36      -0.00339645       0.00253145       0.00040109
O       -0.91492393      -0.78485169       5.61661796       37       0.00351882       0.00083184       0.00224297
O       -0.43499063       5.42624173       1.83470955       38      -0.00038867       0.00014504       0.00423472
O        4.33859308       5.38923721       5.75368891       39      -0.00026630       0.00031810       0.00423472
