1
Lattice="3.43062895015736 -1.6865508989383216e-10 -2.306647266819062e-10 0.2374330981691306 3.4224027404079136 -6.919959221490024e-10 -1.8340310240058866 -1.7112013696573334 2.3403707119011243" Properties=species:S:1:pos:R:3:spacegroup_kinds:I:1:forces:R:3 spacegroup="P 1" unit_cell=conventional occupancy="_JSON {\"0\": {\"In\": 1}}" n_minim_iter=1 energy=-1970.0103812709945 stress="-0.006411854915703147 -0.037495864676747113 1.0088145436683681e-11 -0.037495864676747113 -0.0012092180547892907 9.412504403249044e-12 1.0088145436683681e-11 9.412504403249044e-12 0.03377545459452469" free_energy=-1970.0103812709945 pbc="T T T"
In       0.00000000       0.00000000       0.00000000        0      -0.00000000       0.00000000       0.00000000
1
Lattice="3.4835948348938213 0.2551722482016118 -2.846300619058373e-10 0.4956592336927623 3.4575812028072814 -7.163067226945657e-10 -1.989627034146049 -1.8563767250718683 2.1899304942298525" Properties=species:S:1:pos:R:3:spacegroup_kinds:I:1:forces:R:3 spacegroup="P 1" unit_cell=conventional occupancy="_JSON {\"0\": {\"In\": 1}}" n_minim_iter=2 energy=-1970.2158860954826 stress="-0.09872642798836163 -0.02329201794423225 6.247048312909274e-12 -0.02329201794423225 -0.09549460730206681 5.828529837500337e-12 6.247048312909274e-12 5.828529837500337e-12 -0.07376251417353492" free_energy=-1970.2158860954826 pbc="T T T"
In       0.00000000       0.00000000       0.00000000        0      -0.00000000      -0.00000000       0.00000000
1
Lattice="3.647902196857543 0.5160503075858894 -3.472091484564634e-10 0.7672834183292119 3.6034392618378597 -7.633816180291432e-10 -2.2075928074514235 -2.0597447842948338 2.111275391287585" Properties=species:S:1:pos:R:3:spacegroup_kinds:I:1:forces:R:3 spacegroup="P 1" unit_cell=conventional occupancy="_JSON {\"0\": {\"In\": 1}}" n_minim_iter=3 energy=-1970.3596450656307 stress="-0.13633015314026214 0.011507619850268271 -3.1089772370294687e-12 0.011507619850268271 -0.13792686167659932 -2.844805064846256e-12 -3.1089772370294687e-12 -2.844805064846256e-12 -0.14866378738568647" free_energy=-1970.3596450656307 pbc="T T T"
In       0.00000000       0.00000000       0.00000000        0      -0.00000000      -0.00000000       0.00000000
1
Lattice="3.762844752234943 0.6404077144179045 -3.795023610808694e-10 0.8992977817490031 3.7094994500403033 -7.93208437021757e-10 -2.331071266850861 -2.174953581814535 2.0987630490177955" Properties=species:S:1:pos:R:3:spacegroup_kinds:I:1:forces:R:3 spacegroup="P 1" unit_cell=conventional occupancy="_JSON {\"0\": {\"In\": 1}}" n_minim_iter=4 energy=-1970.4478114720037 stress="-0.08643940364918372 0.03609781109353982 -9.7838726286967e-12 0.03609781109353982 -0.09144805738247644 -9.14898290494999e-12 -9.7838726286967e-12 -9.14898290494999e-12 -0.1251283076007574" free_energy=-1970.4478114720037 pbc="T T T"
In       0.00000000       0.00000000       0.00000000        0      -0.00000000      -0.00000000      -0.00000000
1
Lattice="3.8194944937714888 0.5932391067191799 -3.739945184914348e-10 0.8561629948788083 3.7692778820208788 -8.021177774091617e-10 -2.3378287441791197 -2.181258493941014 2.1718975508047706" Properties=species:S:1:pos:R:3:spacegroup_kinds:I:1:forces:R:3 spacegroup="P 1" unit_cell=conventional occupancy="_JSON {\"0\": {\"In\": 1}}" n_minim_iter=5 energy=-1970.5686633557398 stress="-0.0036329343767430937 -0.005339826717450078 1.3883088628455152e-12 -0.005339826717450078 -0.00289202122391455 1.299021798686672e-12 1.3883088628455152e-12 1.299021798686672e-12 0.002090183915801439" free_energy=-1970.5686633557398 pbc="T T T"
In       0.00000000       0.00000000       0.00000000        0      -0.00000000      -0.00000000      -0.00000000
