1
Lattice="4.067325308862144 0.7414113421121367 -4.199236671139455e-10 1.0211322500714988 4.006259461665829 -8.60017406342987e-10 -2.544228779316708 -2.3738354014479697 2.232628798446359" Properties=species:S:1:pos:R:3:spacegroup_kinds:I:1:forces:R:3 spacegroup="P 1" unit_cell=conventional occupancy="_JSON {\"0\": {\"In\": 1}}" n_minim_iter=1 energy=-1970.3817085014684 stress="0.08481965273398707 -0.004185438658044466 1.1283131519890566e-12 -0.004185438658044466 0.08540039190715691 1.0528569931683891e-12 1.1283131519890566e-12 1.0528569931683891e-12 0.08930552124890637" free_energy=-1970.3817085014684 pbc="T T T"
In       0.00000000       0.00000000       0.00000000        0       0.00000000      -0.00000000      -0.00000000
