1
Lattice="4.0075030114793355 0.7305066501038084 -4.137448260506342e-10 1.0061134176712816 3.9473353219157405 -8.473670752691358e-10 -2.506808214427404 -2.338920985575248 2.1997912519547924" Properties=species:S:1:pos:R:3:spacegroup_kinds:I:1:forces:R:3 spacegroup="P 1" unit_cell=conventional occupancy="_JSON {\"0\": {\"In\": 1}}" n_minim_iter=1 energy=-1970.4944893591628 stress="0.05885851362673651 -0.0027985041322822818 7.235305411444168e-13 -0.0027985041322822818 0.05924681246670365 7.371067151776944e-13 7.235305411444168e-13 7.371067151776944e-13 0.06185789376370309" free_energy=-1970.4944893591628 pbc="T T T"
In       0.00000000       0.00000000       0.00000000        0       0.00000000      -0.00000000       0.00000000
