1
Lattice="3.5717195314102446 0.47405116966761485 -3.337845537958132e-10 0.7201124029399972 3.530346024067986 -7.457738853348887e-10 -2.1459159670345995 -2.0021985964549556 2.090012049080201" Properties=species:S:1:pos:R:3:spacegroup_kinds:I:1:forces:R:3 spacegroup="P 1" unit_cell=conventional occupancy="_JSON {\"0\": {\"In\": 1}}" n_minim_iter=1 energy=-1970.1494177429333 stress="-0.1953966205276389 0.02274484969001711 -6.148393013182695e-12 0.02274484969001711 -0.19855252036921808 -5.736611694774617e-12 -6.148393013182695e-12 -5.736611694774617e-12 -0.21977409047349178" free_energy=-1970.1494177429333 pbc="T T T"
In       0.00000000       0.00000000       0.00000000        0      -0.00000000       0.00000000      -0.00000000
1
Lattice="3.4957590562147027 0.3224876420827491 -2.9873860284953346e-10 0.5636550970273883 3.465057371819152 -7.223577552436388e-10 -2.0297070764765572 -1.893772506526451 2.1490101292522366" Properties=species:S:1:pos:R:3:spacegroup_kinds:I:1:forces:R:3 spacegroup="P 1" unit_cell=conventional occupancy="_JSON {\"0\": {\"In\": 1}}" n_minim_iter=2 energy=-1970.1781854135545 stress="-0.1453898890485936 -0.0011058322678082092 2.1815737185970051e-13 -0.0011058322678082092 -0.14523645229566756 2.3135056602827725e-13 2.1815737185970051e-13 2.3135056602827725e-13 -0.1442046803864255" free_energy=-1970.1781854135545 pbc="T T T"
In       0.00000000       0.00000000       0.00000000        0       0.00000000      -0.00000000      -0.00000000
