1
Lattice="3.4957590562147027 0.3224876420827491 -2.9873860284953346e-10 0.5636550970273883 3.465057371819152 -7.223577552436388e-10 -2.0297070764765572 -1.893772506526451 2.1490101292522366" Properties=species:S:1:pos:R:3:spacegroup_kinds:I:1:forces:R:3 spacegroup="P 1" unit_cell=conventional occupancy="_JSON {\"0\": {\"In\": 1}}" n_minim_iter=2 energy=-1970.1781854135545 stress="-0.1453898890485936 -0.0011058322678082092 2.1815737185970051e-13 -0.0011058322678082092 -0.14523645229566756 2.3135056602827725e-13 2.1815737185970051e-13 2.3135056602827725e-13 -0.1442046803864255" free_energy=-1970.1781854135545 pbc="T T T"
In       0.00000000       0.00000000       0.00000000        0       0.00000000      -0.00000000      -0.00000000
