1
Lattice="3.9173348377986508 0.667817027197769 -3.952970372919474e-10 0.9373335963893421 3.8617220954291955 -8.258277594760776e-10 -2.427334216947147 -2.2647695608820535 2.184115209549608" Properties=species:S:1:pos:R:3:spacegroup_kinds:I:1:forces:R:3 spacegroup="P 1" unit_cell=conventional occupancy="_JSON {\"0\": {\"In\": 1}}" n_minim_iter=1 energy=-1970.5547002527417 stress="0.02639071879301842 -0.0075406307175553584 1.98099170738408e-12 -0.0075406307175553584 0.02743699852724686 1.8371719114412947e-12 1.98099170738408e-12 1.8371719114412947e-12 0.03447261430804957" free_energy=-1970.5547002527417 pbc="T T T"
In       0.00000000       0.00000000       0.00000000        0       0.00000000       0.00000000       0.00000000
