1
Lattice="3.309728669695547 0.2179552191905496 -2.6558408038334166e-10 0.4464982061301024 3.286707729096041 -6.792534014032798e-10 -1.878113437771729 -1.752331473728767 2.098531073302914" Properties=species:S:1:pos:R:3:spacegroup_kinds:I:1:forces:R:3 spacegroup="P 1" unit_cell=conventional occupancy="_JSON {\"0\": {\"In\": 1}}" n_minim_iter=1 energy=-1969.4602136869355 stress="-0.3999700333238043 -0.00623201235459633 1.57079306572596e-12 -0.00623201235459633 -0.3991053273762769 1.6850154583017547e-12 1.57079306572596e-12 1.6850154583017547e-12 -0.3932906885075755" free_energy=-1969.4602136869355 pbc="T T T"
In       0.00000000       0.00000000       0.00000000        0       0.00000000      -0.00000000      -0.00000000
