1
Lattice="3.754744790246933 0.5831822637673529 -3.676480233000258e-10 0.8416489537727125 3.7053794719667503 -7.885127836946592e-10 -2.29819687186627 -2.1442808674453087 2.1350786150189833" Properties=species:S:1:pos:R:3:spacegroup_kinds:I:1:forces:R:3 spacegroup="P 1" unit_cell=conventional occupancy="_JSON {\"0\": {\"In\": 1}}" n_minim_iter=1 energy=-1970.556969449529 stress="-0.028887066199035732 0.0032340393262563823 -8.215419683994217e-13 0.0032340393262563823 -0.029335796541794468 -8.674565499234651e-13 -8.215419683994217e-13 -8.674565499234651e-13 -0.03235324414946219" free_energy=-1970.556969449529 pbc="T T T"
In       0.00000000       0.00000000       0.00000000        0      -0.00000000       0.00000000      -0.00000000
