1
Lattice="4.0965876481209165 0.746745420056656 -4.22944804563439e-10 1.0284787778411266 4.035082463177535 -8.662047946637649e-10 -2.562533212829828 -2.3909139411729092 2.2486914284004205" Properties=species:S:1:pos:R:3:spacegroup_kinds:I:1:forces:R:3 spacegroup="P 1" unit_cell=conventional occupancy="_JSON {\"0\": {\"In\": 1}}" n_minim_iter=1 energy=-1970.3817085014684 stress="0.08481965273398707 -0.004185438658044466 1.1283131519890566e-12 -0.004185438658044466 0.08540039190715691 1.0528569931683891e-12 1.1283131519890566e-12 1.0528569931683891e-12 0.08930552124890637" free_energy=-1970.3817085014684 pbc="T T T"
In       0.00000000       0.00000000       0.00000000        0       0.00000000      -0.00000000      -0.00000000
