1
Lattice="4.007503011479334 0.7305066501038098 -4.1374248845260583e-10 1.0061134176712796 3.9473353219157428 -8.473641865726127e-10 -2.5068082144274024 -2.3389209855752493 2.1997912519547906" Properties=species:S:1:pos:R:3:spacegroup_kinds:I:1:forces:R:3 spacegroup="P 1" unit_cell=conventional occupancy="_JSON {\"0\": {\"In\": 1}}" n_minim_iter=2 energy=-1970.533009564456 stress="0.041707919241347084 0.000630775257235873 -1.0838791955765936e-13 0.000630775257235873 0.04162039773389946 -2.1583889294712702e-13 -1.0838791955765936e-13 -2.1583889294712702e-13 0.041031867076048736" free_energy=-1970.533009564456 pbc="T T T"
In       0.00000000       0.00000000       0.00000000        0      -0.00000000      -0.00000000      -0.00000000
