1
Lattice="3.4611453069102027 0.3192944853985071 -2.957806006130157e-10 0.558073986913971 3.43074761955501 -7.152052284687418e-10 -2.0096096467690296 -1.8750210520564623 2.1277314036105115" Properties=species:S:1:pos:R:3:spacegroup_kinds:I:1:forces:R:3 spacegroup="P 1" unit_cell=conventional occupancy="_JSON {\"0\": {\"In\": 1}}" n_minim_iter=2 energy=-1970.1781854135545 stress="-0.1453898890485936 -0.0011058322678082092 2.1815737185970051e-13 -0.0011058322678082092 -0.14523645229566756 2.3135056602827725e-13 2.1815737185970051e-13 2.3135056602827725e-13 -0.1442046803864255" free_energy=-1970.1781854135545 pbc="T T T"
In       0.00000000       0.00000000       0.00000000        0       0.00000000      -0.00000000      -0.00000000
