1
Lattice="4.125437807441367 0.7520043638877076 -4.259235301916077e-10 1.035721824773621 4.0634994731217065 -8.723052783033488e-10 -2.580579815955236 -2.4077519180573925 2.264527805293673" Properties=species:S:1:pos:R:3:spacegroup_kinds:I:1:forces:R:3 spacegroup="P 1" unit_cell=conventional occupancy="_JSON {\"0\": {\"In\": 1}}" n_minim_iter=1 energy=-1970.313972120574 stress="0.09136255495143408 -0.002237129103683331 6.691929149125468e-13 -0.002237129103683331 0.0916729617239618 4.91912267208243e-13 6.691929149125468e-13 4.91912267208243e-13 0.09376026468527855" free_energy=-1970.313972120574 pbc="T T T"
In       0.00000000       0.00000000       0.00000000        0      -0.00000000       0.00000000      -0.00000000
