1
Lattice="4.153890001759885 0.7571907647712965 -4.2886080616181495e-10 1.0428649596344186 4.091524493015088 -8.783212191549189e-10 -2.598377480543844 -2.424357628442794 2.2801457319631" Properties=species:S:1:pos:R:3:spacegroup_kinds:I:1:forces:R:3 spacegroup="P 1" unit_cell=conventional occupancy="_JSON {\"0\": {\"In\": 1}}" n_minim_iter=1 energy=-1970.2439538112392 stress="0.09312513985029656 0.001357114347045447 -4.3038320194266554e-13 0.001357114347045447 0.0929368371348897 -4.4271236672161394e-13 -4.3038320194266554e-13 -4.4271236672161394e-13 0.09167061213690532" free_energy=-1970.2439538112392 pbc="T T T"
In       0.00000000       0.00000000       0.00000000        0       0.00000000      -0.00000000       0.00000000
