1
Lattice="3.917334837798648 0.6678170271977694 -3.9529663498309897e-10 0.9373335963893414 3.8617220954291964 -8.258284357530052e-10 -2.4273342169471457 -2.264769560882055 2.1841152095496086" Properties=species:S:1:pos:R:3:spacegroup_kinds:I:1:forces:R:3 spacegroup="P 1" unit_cell=conventional occupancy="_JSON {\"0\": {\"In\": 1}}" n_minim_iter=2 energy=-1970.5689810097606 stress="0.008138164201162477 0.0007915493189424823 -1.8482230864503258e-13 0.0007915493189424823 0.00802833492526854 -2.6868351824046036e-13 -1.8482230864503258e-13 -2.6868351824046036e-13 0.007289797647631715" free_energy=-1970.5689810097606 pbc="T T T"
In       0.00000000       0.00000000       0.00000000        0       0.00000000       0.00000000      -0.00000000
