10
Lattice="6.247558951125976 0.09321327836701804 0.06436245888204903 3.5060988450006527 5.171842268683696 0.06436245888204098 3.506098845000648 1.8926033246429423 4.813537953917802" Properties=species:S:1:pos:R:3:spacegroup_kinds:I:1:forces:R:3 spacegroup="P 1" unit_cell=conventional occupancy="_JSON {\"0\": {\"In\": 1}, \"1\": {\"In\": 1}, \"2\": {\"In\": 1}, \"3\": {\"In\": 1}, \"4\": {\"O\": 1}, \"5\": {\"O\": 1}, \"6\": {\"O\": 1}, \"7\": {\"O\": 1}, \"8\": {\"O\": 1}, \"9\": {\"O\": 1}}" n_minim_iter=1 energy=-11285.819787970158 stress="0.20500495480101982 0.002941200552027391 0.00203085765869812 0.002941200552027391 0.2011439706334313 0.0010962634226869324 0.00203085765869812 0.0010962634226869324 0.2003132557156981" free_energy=-11285.819787970158 pbc="T T T"
In      11.22683512       6.06028136       4.18453912        0      -0.12947232      -0.06988957      -0.04825776
In       8.66279986       4.67620696       3.22885519        1       0.12947232       0.06988957       0.04825777
In       4.59695679       2.48145192       1.71340768        2      -0.12947232      -0.06988957      -0.04825776
In       2.03292154       1.09737752       0.75772376        3       0.12947232       0.06988957       0.04825777
O        6.43871864       2.49490015       0.31352219        4      -0.00000000       0.06254469      -0.09058069
O        7.64094211       5.44236247       1.29992818        5      -0.05228767       0.09686433       0.00000000
O        8.74259402       2.42078184       2.72029116        6       0.05228767      -0.03431964      -0.09058069
O        4.51716263       4.73687704       2.22197171        7      -0.05228767       0.03431964       0.09058069
O        6.82103801       4.66275873       4.62874069        8      -0.00000000      -0.06254469       0.09058069
O        5.61881454       1.71529641       3.64233470        9       0.05228767      -0.09686433      -0.00000000
10
Lattice="6.234898912190998 0.08043860731196904 0.05554172802785863 3.4884723163768685 5.168268154097553 0.055541728027850554 3.4884723163768636 1.8830884683453637 4.813320934302639" Properties=species:S:1:pos:R:3:spacegroup_kinds:I:1:forces:R:3 spacegroup="P 1" unit_cell=conventional occupancy="_JSON {\"0\": {\"In\": 1}, \"1\": {\"In\": 1}, \"2\": {\"In\": 1}, \"3\": {\"In\": 1}, \"4\": {\"O\": 1}, \"5\": {\"O\": 1}, \"6\": {\"O\": 1}, \"7\": {\"O\": 1}, \"8\": {\"O\": 1}, \"9\": {\"O\": 1}}" n_minim_iter=2 energy=-11285.822415134484 stress="0.20000555134956838 -0.0004362985192504925 -0.0003012579994987676 -0.0004362985192504925 0.20057829078467843 -0.00016262003921082804 -0.0003012579994987676 -0.00016262003921082804 0.20070151927921362" free_energy=-11285.822415134484 pbc="T T T"
In      11.18567834       6.03806480       4.16919890        0      -0.10438877      -0.05634939      -0.03890846
In       8.63208699       4.65962805       3.21740769        1       0.10438877       0.05634939       0.03890846
In       4.57975657       2.47216719       1.70699670        2      -0.10438877      -0.05634939      -0.03890846
In       2.02616521       1.09373044       0.75520550        3       0.10438877       0.05634939       0.03890846
O        6.42041035       2.48352686       0.30250385        4      -0.00000000       0.07475633      -0.10826626
O        7.61258330       5.43001421       1.28664283        5      -0.06249667       0.11577676       0.00000000
O        8.71670971       2.40235908       2.70916432        6       0.06249667      -0.04102043      -0.10826626
O        4.49513385       4.72943616       2.21524008        7      -0.06249667       0.04102043       0.10826626
O        6.79143321       4.64826838       4.62190054        8       0.00000000      -0.07475633       0.10826626
O        5.59926025       1.70178104       3.63776157        9       0.06249667      -0.11577676       0.00000000
10
Lattice="6.233657552155735 0.07918381063965008 0.0546753085579902 3.4867421387330406 5.167918905265346 0.05467530855798208 3.4867421387330353 1.8821545129420225 4.8133013192794145" Properties=species:S:1:pos:R:3:spacegroup_kinds:I:1:forces:R:3 spacegroup="P 1" unit_cell=conventional occupancy="_JSON {\"0\": {\"In\": 1}, \"1\": {\"In\": 1}, \"2\": {\"In\": 1}, \"3\": {\"In\": 1}, \"4\": {\"O\": 1}, \"5\": {\"O\": 1}, \"6\": {\"O\": 1}, \"7\": {\"O\": 1}, \"8\": {\"O\": 1}, \"9\": {\"O\": 1}}" n_minim_iter=3 energy=-11285.827559921108 stress="0.19629849183687312 -0.0002702239045898879 -0.00018658580247638072 -0.0002702239045898879 0.19665322115577952 -0.00010071960823385382 -0.00018658580247638072 -0.00010071960823385382 0.19672954341164797" free_energy=-11285.827559921108 pbc="T T T"
In      11.17499941       6.03230028       4.16521858        0      -0.00336800      -0.00181806      -0.00125534
In       8.63571334       4.66158557       3.21875933        1       0.00336800       0.00181806       0.00125534
In       4.57142850       2.46767167       1.70389261        2      -0.00336800      -0.00181806      -0.00125534
In       2.03214243       1.09695696       0.75743336        3       0.00336800       0.00181806       0.00125534
O        6.41861424       2.48697378       0.29481296        4      -0.00000000      -0.00168206       0.00243605
O        7.60598551       5.43587033       1.28533830        5       0.00140621      -0.00260504       0.00000000
O        8.71798510       2.39804638       2.70146362        6      -0.00140621       0.00092298       0.00243605
O        4.48915674       4.73121086       2.22118832        7       0.00140621      -0.00092298      -0.00243605
O        6.78852760       4.64228346       4.62783898        8       0.00000000       0.00168206      -0.00243605
O        5.60115633       1.69338691       3.63731365        9      -0.00140621       0.00260504      -0.00000000
