10
Lattice="6.201954705217518 0.09253286521655654 0.06389264316280269 3.4805059702222634 5.13409024930045 0.06389264316279927 3.480505970222257 1.878788209315591 4.778401387739323" Properties=species:S:1:pos:R:3:spacegroup_kinds:I:1:forces:R:3 spacegroup="P 1" unit_cell=conventional occupancy="_JSON {\"0\": {\"In\": 1}, \"1\": {\"In\": 1}, \"2\": {\"In\": 1}, \"3\": {\"In\": 1}, \"4\": {\"O\": 1}, \"5\": {\"O\": 1}, \"6\": {\"O\": 1}, \"7\": {\"O\": 1}, \"8\": {\"O\": 1}, \"9\": {\"O\": 1}}" n_minim_iter=3 energy=-11286.416006841537 stress="0.1575797612299709 -0.00018609804259518115 -0.00012849810364940018 -0.00018609804259518115 0.1578240566044683 -6.936368930381962e-05 -0.00012849810364940018 -6.936368930381962e-05 0.15787661827304886" free_energy=-11286.416006841537 pbc="T T T"
In      11.14488449       6.01604415       4.15399395        0      -0.00431005      -0.00232658      -0.00160647
In       8.59956549       4.64207285       3.20528607        1       0.00431005       0.00232658       0.00160647
In       4.56340117       2.46333849       1.70090061        2      -0.00431005      -0.00232658      -0.00160647
In       2.01808216       1.08936718       0.75219273        3       0.00431005       0.00232658       0.00160647
O        6.39171902       2.47668855       0.31123362        4       0.00000000      -0.00472921       0.00684911
O        7.58516682       5.40263578       1.29043931        5       0.00395364      -0.00732423      -0.00000000
O        8.67877719       2.40311127       2.70043432        6      -0.00395364       0.00259502       0.00684911
O        4.48418947       4.70230007       2.20575236        7       0.00395364      -0.00259502      -0.00684911
O        6.77124764       4.62872278       4.59495306        8       0.00000000       0.00472921      -0.00684911
O        5.57779983       1.70277555       3.61574736        9      -0.00395364       0.00732423      -0.00000000
