10
Lattice="5.432246420335965 -0.14095891927757265 -0.09733015301035412 2.8629499234661178 4.618732328670082 -0.09733015301036256 2.8629499234661075 1.5454294881515798 4.353597268896008" Properties=species:S:1:pos:R:3:spacegroup_kinds:I:1:forces:R:3 spacegroup="P 1" unit_cell=conventional occupancy="_JSON {\"0\": {\"In\": 1}, \"1\": {\"In\": 1}, \"2\": {\"In\": 1}, \"3\": {\"In\": 1}, \"4\": {\"O\": 1}, \"5\": {\"O\": 1}, \"6\": {\"O\": 1}, \"7\": {\"O\": 1}, \"8\": {\"O\": 1}, \"9\": {\"O\": 1}}" n_minim_iter=1 energy=-11284.70841963855 stress="-0.39999197692590216 0.004741201462828589 0.0032737330125358274 0.004741201462828589 -0.4062158651869768 0.001767171500217166 0.0032737330125358274 0.001767171500217166 -0.4075549737560446" free_energy=-11284.70841963855 pbc="T T T"
In       9.60154564       5.18294493       3.57875064        0      -0.02766725      -0.01493487      -0.01031232
In       7.13567376       3.85185943       2.65965481        1       0.02766724       0.01493487       0.01031232
In       4.02247251       2.17134348       1.49928216        2      -0.02766724      -0.01493487      -0.01031232
In       1.55660063       0.84025798       0.58018633        3       0.02766725       0.01493487       0.01031232
O        5.50565978       2.08077925       0.05628117        4      -0.00000000       0.05652362      -0.08186064
O        6.39752865       4.74432231       0.94240409        5      -0.04725403       0.08753937      -0.00000000
O        7.47674083       1.85385912       2.23307980        6       0.04725403      -0.03101575      -0.08186064
O        3.68140544       4.16934379       1.92585717        7      -0.04725403       0.03101575       0.08186064
O        5.65248649       3.94242366       4.10265580        8       0.00000000      -0.05652362       0.08186064
O        4.76061762       1.27888060       3.21653288        9       0.04725403      -0.08753937      -0.00000000
10
Lattice="5.420237202129902 -0.1539138138077352 -0.10627532564161521 2.8455298466702947 4.6158011960159575 -0.1062753256416237 2.845529846670283 1.5360260752083528 4.354025611116988" Properties=species:S:1:pos:R:3:spacegroup_kinds:I:1:forces:R:3 spacegroup="P 1" unit_cell=conventional occupancy="_JSON {\"0\": {\"In\": 1}, \"1\": {\"In\": 1}, \"2\": {\"In\": 1}, \"3\": {\"In\": 1}, \"4\": {\"O\": 1}, \"5\": {\"O\": 1}, \"6\": {\"O\": 1}, \"7\": {\"O\": 1}, \"8\": {\"O\": 1}, \"9\": {\"O\": 1}}" n_minim_iter=2 energy=-11284.711536506646 stress="-0.4029211665621234 -4.814940060552266e-05 -3.3246486803471685e-05 -4.814940060552266e-05 -0.40285795971348076 -1.79465390766968e-05 -3.3246486803471685e-05 -1.79465390766968e-05 -0.4028443603258081" free_energy=-11284.711536506646 pbc="T T T"
In       9.56110911       5.16111716       3.56367887        0       0.04455131       0.02404894       0.01660546
In       7.10583624       3.83575304       2.64853357        1      -0.04455131      -0.02404894      -0.01660546
In       4.00546067       2.16216043       1.49294139        2       0.04455131       0.02404894       0.01660546
In       1.55018779       0.83679631       0.57779609        3      -0.04455131      -0.02404894      -0.01660546
O        5.48794283       2.06959125       0.04510877        4       0.00000000       0.01826780      -0.02645644
O        6.36975419       4.73255317       0.92909342        5      -0.01527197       0.02829174      -0.00000000
O        7.45166132       1.83547317       2.22212158        6       0.01527197      -0.01002394      -0.02645644
O        3.65963559       4.16244029       1.91935338        7      -0.01527197       0.01002394       0.02645644
O        5.62335407       3.92832222       4.09636619        8       0.00000000      -0.01826780       0.02645644
O        4.74154272       1.26536030       3.21238155        9       0.01527197      -0.02829174       0.00000000
10
Lattice="5.419644984526037 -0.15455404449636712 -0.10671739593561183 2.8446696478859543 4.6156574077117964 -0.10671739593562028 2.8446696478859415 1.5355617371645407 4.354047778713083" Properties=species:S:1:pos:R:3:spacegroup_kinds:I:1:forces:R:3 spacegroup="P 1" unit_cell=conventional occupancy="_JSON {\"0\": {\"In\": 1}, \"1\": {\"In\": 1}, \"2\": {\"In\": 1}, \"3\": {\"In\": 1}, \"4\": {\"O\": 1}, \"5\": {\"O\": 1}, \"6\": {\"O\": 1}, \"7\": {\"O\": 1}, \"8\": {\"O\": 1}, \"9\": {\"O\": 1}}" n_minim_iter=3 energy=-11284.712183348272 stress="-0.40271572266335093 -2.898744109447196e-05 -2.0015398098032123e-05 -2.898744109447196e-05 -0.40267767017581424 -1.080439050368133e-05 -2.0015398098032123e-05 -1.080439050368133e-05 -0.40266948289673604" free_energy=-11284.712183348272 pbc="T T T"
In       9.56224495       5.16173028       3.56410223        0      -0.01296480      -0.00699844      -0.00483232
In       7.10123148       3.83326738       2.64681726        1       0.01296480       0.00699844       0.00483232
In       4.00775281       2.16339773       1.49379573        2      -0.01296480      -0.00699844      -0.00483232
In       1.54673934       0.83493483       0.57651076        3       0.01296480       0.00699844       0.00483232
O        5.48706857       2.07038914       0.04260110        4       0.00000000       0.01074723      -0.01556474
O        6.36725426       4.73406390       0.92843585        5      -0.00898474       0.01664447      -0.00000000
O        7.45155253       1.83382407       2.21962499        6       0.00898474      -0.00589724      -0.01556473
O        3.65743176       4.16284104       1.92098801        7      -0.00898474       0.00589724       0.01556474
O        5.62191572       3.92627597       4.09801189        8       0.00000000      -0.01074723       0.01556474
O        4.74173003       1.26260121       3.21217714        9       0.00898474      -0.01664447      -0.00000000
10
Lattice="5.4204524997968555 -0.1536810935131152 -0.10611463554835922 2.8458425405300543 4.6158534872292885 -0.10611463554836767 2.845842540530042 1.5361948683498858 4.354017576664093" Properties=species:S:1:pos:R:3:spacegroup_kinds:I:1:forces:R:3 spacegroup="P 1" unit_cell=conventional occupancy="_JSON {\"0\": {\"In\": 1}, \"1\": {\"In\": 1}, \"2\": {\"In\": 1}, \"3\": {\"In\": 1}, \"4\": {\"O\": 1}, \"5\": {\"O\": 1}, \"6\": {\"O\": 1}, \"7\": {\"O\": 1}, \"8\": {\"O\": 1}, \"9\": {\"O\": 1}}" n_minim_iter=4 energy=-11284.712250941346 stress="-0.4027416198329383 -4.206734316228064e-05 -2.9046878533143263e-05 -4.206734316228064e-05 -0.4026863970380378 -1.5679615718676664e-05 -2.9046878533143263e-05 -1.5679615718676664e-05 -0.402674515486184" free_energy=-11284.712250941346 pbc="T T T"
In       9.56499109       5.16321266       3.56512579        0      -0.00344283      -0.00185845      -0.00128323
In       7.10321529       3.83433824       2.64755668        1       0.00344283       0.00185845       0.00128323
In       4.00892230       2.16402903       1.49423163        2      -0.00344283      -0.00185845      -0.00128323
In       1.54714650       0.83515461       0.57666252        3       0.00344283       0.00185845       0.00128323
O        5.48826065       2.07183614       0.04234910        4      -0.00000000      -0.00025586       0.00037055
O        6.36854373       4.73592994       0.92933244        5       0.00021390      -0.00039626       0.00000000
O        7.45382011       1.83468166       2.21935788        6      -0.00021390       0.00014040       0.00037055
O        3.65831748       4.16368561       1.92243043        7       0.00021390      -0.00014040      -0.00037055
O        5.62387694       3.92653113       4.09943921        8      -0.00000000       0.00025586      -0.00037055
O        4.74359386       1.26243734       3.21245587        9      -0.00021390       0.00039626      -0.00000000
