10
Lattice="5.615874736757763 -0.1146224513939516 -0.07914519201603176 2.985728210652143 4.757795121422688 -0.07914519201603351 2.985728210652136 1.6117055986649929 4.4771959351903226" Properties=species:S:1:pos:R:3:spacegroup_kinds:I:1:forces:R:3 spacegroup="P 1" unit_cell=conventional occupancy="_JSON {\"0\": {\"In\": 1}, \"1\": {\"In\": 1}, \"2\": {\"In\": 1}, \"3\": {\"In\": 1}, \"4\": {\"O\": 1}, \"5\": {\"O\": 1}, \"6\": {\"O\": 1}, \"7\": {\"O\": 1}, \"8\": {\"O\": 1}, \"9\": {\"O\": 1}}" n_minim_iter=5 energy=-11287.159644049905 stress="-0.12420358872334408 6.292430989488781e-05 4.344838367351983e-05 6.292430989488781e-05 -0.12428619096911701 2.3453584214595707e-05 4.344838367351983e-05 2.3453584214595707e-05 -0.12430396334147187" free_energy=-11287.159644049905 pbc="T T T"
In       9.96183500       5.37743027       3.71304003        0      -0.00797774      -0.00430641      -0.00297351
In       7.41916175       4.00488715       2.76531830        1       0.00797774       0.00430641       0.00297351
In       4.16816942       2.24999113       1.55358726        2      -0.00797774      -0.00430641      -0.00297351
In       1.62549617       0.87744801       0.60586552        3       0.00797774       0.00430641       0.00297351
O        5.70477016       2.15581888       0.09964148        4       0.00000000       0.00228473      -0.00330887
O        6.65472382       4.89106219       1.00058120        5      -0.00191005       0.00353841      -0.00000000
O        7.74054471       1.95591540       2.33823945        6       0.00191005      -0.00125368      -0.00330887
O        3.84678645       4.29896288       1.98066611        7      -0.00191005       0.00125368       0.00330887
O        5.88256100       4.09905940       4.21926408        8      -0.00000000      -0.00228473       0.00330887
O        4.93260735       1.36381609       3.31832436        9       0.00191005      -0.00353841      -0.00000000
