10
Lattice="6.014663647026317 0.043512548804188714 0.030044803512176133 3.336754046149602 5.004412509402838 0.030044803512168206 3.3367540461495953 1.8011904628026405 4.669128416652783" Properties=species:S:1:pos:R:3:spacegroup_kinds:I:1:forces:R:3 spacegroup="P 1" unit_cell=conventional occupancy="_JSON {\"0\": {\"In\": 1}, \"1\": {\"In\": 1}, \"2\": {\"In\": 1}, \"3\": {\"In\": 1}, \"4\": {\"O\": 1}, \"5\": {\"O\": 1}, \"6\": {\"O\": 1}, \"7\": {\"O\": 1}, \"8\": {\"O\": 1}, \"9\": {\"O\": 1}}" n_minim_iter=8 energy=-11287.435220848894 stress="0.06738260719137881 0.00019831517384842496 0.00013693383398114675 0.00019831517384842496 0.06712227414022179 7.391732849898285e-05 0.00013693383398114675 7.391732849898285e-05 0.06706626185867386" free_energy=-11287.435220848894 pbc="T T T"
In      10.82248469       5.84201171       4.03382699        0       0.00045162       0.00024378       0.00016833
In       8.20977293       4.43166158       3.06000005        1      -0.00045162      -0.00024379      -0.00016833
In       4.47839882       2.41745395       1.66921798        2       0.00045162       0.00024379       0.00016833
In       1.86568706       1.00710382       0.69539103        3      -0.00045162      -0.00024378      -0.00016833
O        6.17937476       2.37811706       0.26453182        4      -0.00000000      -0.00104142       0.00150824
O        7.30929610       5.23374513       1.21234931        5       0.00087063      -0.00161287       0.00000000
O        8.38620747       2.28120858       2.59909603        6      -0.00087063       0.00057145       0.00150824
O        4.30196428       4.56790695       2.13012200        7       0.00087063      -0.00057145      -0.00150824
O        6.50879699       4.47099847       4.46468621        8       0.00000000       0.00104142      -0.00150824
O        5.37887565       1.61537040       3.51686872        9      -0.00087063       0.00161287       0.00000000
