10
Lattice="5.15400435484483 -0.19639063001726023 -0.13560497035125096 2.6639312371660004 4.416537165355826 -0.1356049703512623 2.663931237165985 1.4379985673449023 4.1780796260085005" Properties=species:S:1:pos:R:3:spacegroup_kinds:I:1:forces:R:3 spacegroup="P 1" unit_cell=conventional occupancy="_JSON {\"0\": {\"In\": 1}, \"1\": {\"In\": 1}, \"2\": {\"In\": 1}, \"3\": {\"In\": 1}, \"4\": {\"O\": 1}, \"5\": {\"O\": 1}, \"6\": {\"O\": 1}, \"7\": {\"O\": 1}, \"8\": {\"O\": 1}, \"9\": {\"O\": 1}}" n_minim_iter=1 energy=-11274.839148151417 stress="-1.176197586031685 0.00022286081650192075 0.00015388225855286734 0.00022286081650192075 -1.176490140757846 8.306613388554589e-05 0.00015388225855286734 8.306613388554589e-05 -1.1765530857258506" free_energy=-11274.839148151417 pbc="T T T"
In       9.01237409       4.86490824       3.35915078        0      -0.02919704      -0.01576065      -0.01088251
In       6.71042614       3.62230941       2.50115374        1       0.02919704       0.01576065       0.01088251
In       3.77144068       2.03583569       1.40571594        2      -0.02919704      -0.01576065      -0.01088251
In       1.46949273       0.79323686       0.54771890        3       0.02919704       0.01576065       0.01088251
O        5.19746888       1.92743933       0.02388842        4       0.00000000      -0.23720837       0.34353830
O        6.01855321       4.47103094       0.84111245        5       0.19830738      -0.36736978       0.00000000
O        7.04031578       1.70001722       2.11292824        6      -0.19830738       0.13016141       0.34353830
O        3.44155104       3.95812788       1.79394144        7       0.19830738      -0.13016141      -0.34353830
O        5.28439794       3.73070577       3.88298126        8      -0.00000000       0.23720837      -0.34353830
O        4.46331360       1.18711417       3.06575723        9      -0.19830738       0.36736978       0.00000000
10
Lattice="5.151131529868431 -0.19954914744532434 -0.1377858822519305 2.659714319025314 4.415868616866054 -0.1377858822519418 2.659714319025299 1.4357222615002487 4.178227157372271" Properties=species:S:1:pos:R:3:spacegroup_kinds:I:1:forces:R:3 spacegroup="P 1" unit_cell=conventional occupancy="_JSON {\"0\": {\"In\": 1}, \"1\": {\"In\": 1}, \"2\": {\"In\": 1}, \"3\": {\"In\": 1}, \"4\": {\"O\": 1}, \"5\": {\"O\": 1}, \"6\": {\"O\": 1}, \"7\": {\"O\": 1}, \"8\": {\"O\": 1}, \"9\": {\"O\": 1}}" n_minim_iter=2 energy=-11274.853504464118 stress="-1.16276383087647 0.004603317050621212 0.0031785257729405486 0.004603317050621212 -1.168806715001115 0.0017157783401996508 0.0031785257729405486 0.0017157783401996508 -1.1701068794131355" free_energy=-11274.853504464118 pbc="T T T"
In       9.00184849       4.85922649       3.35522761        0      -0.27368469      -0.14773587      -0.10200954
In       6.70399175       3.61883610       2.49875548        1       0.27368469       0.14773587       0.10200954
In       3.76656841       2.03320563       1.40389991        2      -0.27368469      -0.14773587      -0.10200954
In       1.46871166       0.79281524       0.54742778        3       0.27368469       0.14773587       0.10200954
O        5.19320580       1.91812099       0.03074275        4      -0.00000000       0.02262496      -0.03276673
O        6.01737597       4.45796899       0.83787796        5      -0.01891458       0.03503978       0.00000000
O        7.02874995       1.69918330       2.11985632        6       0.01891458      -0.01241481      -0.03276673
O        3.44181021       3.95285843       1.78279906        7      -0.01891458       0.01241481       0.03276673
O        5.27735435       3.73392074       3.87191264        8       0.00000000      -0.02262496       0.03276673
O        4.45318418       1.19407274       3.06477742        9       0.01891458      -0.03503978      -0.00000000
10
Lattice="5.141143048488583 -0.21055767348531806 -0.14538711479104574 2.6450302384322555 4.413558815362609 -0.14538711479105704 2.64503023843224 1.427795748022348 4.178760358257183" Properties=species:S:1:pos:R:3:spacegroup_kinds:I:1:forces:R:3 spacegroup="P 1" unit_cell=conventional occupancy="_JSON {\"0\": {\"In\": 1}, \"1\": {\"In\": 1}, \"2\": {\"In\": 1}, \"3\": {\"In\": 1}, \"4\": {\"O\": 1}, \"5\": {\"O\": 1}, \"6\": {\"O\": 1}, \"7\": {\"O\": 1}, \"8\": {\"O\": 1}, \"9\": {\"O\": 1}}" n_minim_iter=3 energy=-11274.85657687735 stress="-1.1671337080458895 -0.0013102320431993982 -0.0009046968719380066 -0.0013102320431993982 -1.1654137351171732 -0.0004883582452378342 -0.0009046968719380066 -0.0004883582452378342 -1.1650436721789406" free_energy=-11274.85657687735 pbc="T T T"
In       8.96665279       4.84022774       3.34210924        0      -0.19383469      -0.10463258      -0.07224733
In       6.68015249       3.60596759       2.48986995        1       0.19383469       0.10463258       0.07224733
In       3.75105102       2.02482929       1.39811617        2      -0.19383469      -0.10463258      -0.07224733
In       1.46455073       0.79056915       0.54587689        3       0.19383469       0.10463258       0.07224733
O        5.17837240       1.90715878       0.02348733        4       0.00000000       0.00928225      -0.01344307
O        5.99532321       4.44577136       0.82660942        5      -0.00776001       0.01437563      -0.00000000
O        7.00645183       1.68448509       2.11286751        6       0.00776001      -0.00509338      -0.01344307
O        3.42475168       3.94631180       1.77511862        7      -0.00776001       0.00509338       0.01344307
O        5.25283111       3.72363811       3.86449880        8      -0.00000000      -0.00928225       0.01344307
O        4.43588031       1.18502553       3.06137671        9       0.00776001      -0.01437563      -0.00000000
10
Lattice="5.146772570588013 -0.20434812977314293 -0.14109951211412367 2.653310489691322 4.414857811616687 -0.14109951211413485 2.6533104896913073 1.432265454027395 4.178455963428543" Properties=species:S:1:pos:R:3:spacegroup_kinds:I:1:forces:R:3 spacegroup="P 1" unit_cell=conventional occupancy="_JSON {\"0\": {\"In\": 1}, \"1\": {\"In\": 1}, \"2\": {\"In\": 1}, \"3\": {\"In\": 1}, \"4\": {\"O\": 1}, \"5\": {\"O\": 1}, \"6\": {\"O\": 1}, \"7\": {\"O\": 1}, \"8\": {\"O\": 1}, \"9\": {\"O\": 1}}" n_minim_iter=4 energy=-11274.861181089069 stress="-1.1626223060760492 -0.00010327191912222528 -7.130785915541225e-05 -0.00010327191912222528 -1.1624867384734978 -3.8492210680299246e-05 -7.130785915541225e-05 -3.8492210680299246e-05 -1.1624575702843702" free_energy=-11274.861181089069 pbc="T T T"
In       8.97782769       4.84625999       3.34627442        0       0.00775936       0.00418853       0.00289212
In       6.70226262       3.61790271       2.49811098        1      -0.00775936      -0.00418853      -0.00289212
In       3.75113092       2.02487242       1.39814595        2       0.00775936       0.00418853       0.00289212
In       1.47556584       0.79651515       0.54998251        3      -0.00775936      -0.00418853      -0.00289212
O        5.18673467       1.91112812       0.03078361        4       0.00000000      -0.01030024       0.01491737
O        6.00960628       4.44922142       0.83296472        5       0.00861105      -0.01595220      -0.00000000
O        7.01717354       1.69398805       2.12001159        6      -0.00861105       0.00565197       0.01491737
O        3.43622000       3.94878708       1.77624535        7       0.00861105      -0.00565196      -0.01491737
O        5.26665887       3.73164701       3.86547333        8      -0.00000000       0.01030024      -0.01491737
O        4.44378725       1.19355371       3.06329221        9      -0.00861105       0.01595220       0.00000000
10
Lattice="5.146590791729662 -0.2045484304888224 -0.14123781694368032 2.6530432912637125 4.414815752963262 -0.14123781694369147 2.653043291263697 1.4321212194650539 4.1784656354104" Properties=species:S:1:pos:R:3:spacegroup_kinds:I:1:forces:R:3 spacegroup="P 1" unit_cell=conventional occupancy="_JSON {\"0\": {\"In\": 1}, \"1\": {\"In\": 1}, \"2\": {\"In\": 1}, \"3\": {\"In\": 1}, \"4\": {\"O\": 1}, \"5\": {\"O\": 1}, \"6\": {\"O\": 1}, \"7\": {\"O\": 1}, \"8\": {\"O\": 1}, \"9\": {\"O\": 1}}" n_minim_iter=5 energy=-11274.861206187948 stress="-1.1621291253369979 -2.525189912605977e-07 -1.743514649155752e-07 -2.525189912605977e-07 -1.1621287938150582 -9.415923967448275e-08 -1.743514649155752e-07 -9.415923967448275e-08 -1.1621287224827832" free_energy=-11274.861206187948 pbc="T T T"
In       8.97710897       4.84587202       3.34600653        0      -0.00005236      -0.00002827      -0.00001952
In       6.70190708       3.61771079       2.49797846        1       0.00005236       0.00002827       0.00001952
In       3.75077028       2.02467775       1.39801153        2      -0.00005236      -0.00002827      -0.00001952
In       1.47556839       0.79651652       0.54998346        3       0.00005236       0.00002827       0.00001952
O        5.18646473       1.91066201       0.03103775        4       0.00000000      -0.00021422       0.00031024
O        6.00942790       4.44858650       0.83275968        5       0.00017909      -0.00033176       0.00000000
O        7.01654486       1.69386691       2.12027057        6      -0.00017909       0.00011755       0.00031024
O        3.43613250       3.94852163       1.77571943        7       0.00017909      -0.00011755      -0.00031024
O        5.26621263       3.73172653       3.86495224        8      -0.00000000       0.00021422      -0.00031024
O        4.44324946       1.19380204       3.06323032        9      -0.00017909       0.00033177      -0.00000000
