10
Lattice="5.985209922290721 0.013355877433585357 0.009222045691478598 3.295381016331944 4.996336673058411 0.009222045691470438 3.2953810163319415 1.7788571695199635 4.668954097774208" Properties=species:S:1:pos:R:3:spacegroup_kinds:I:1:forces:R:3 spacegroup="P 1" unit_cell=conventional occupancy="_JSON {\"0\": {\"In\": 1}, \"1\": {\"In\": 1}, \"2\": {\"In\": 1}, \"3\": {\"In\": 1}, \"4\": {\"O\": 1}, \"5\": {\"O\": 1}, \"6\": {\"O\": 1}, \"7\": {\"O\": 1}, \"8\": {\"O\": 1}, \"9\": {\"O\": 1}}" n_minim_iter=1 energy=-11287.419260477425 stress="0.07922092487047216 -0.0010117543657038827 -0.0006986021612296912 -0.0010117543657038827 0.08054907896835108 -0.0003771076914372239 -0.0006986021612296912 -0.0003771076914372239 0.08083483965758682" free_energy=-11287.419260477425 pbc="T T T"
In      10.76617185       5.81161386       4.01283770        0      -0.14141607      -0.07633684      -0.05270952
In       8.09778610       4.37121073       3.01825958        1       0.14141606       0.07633684       0.05270952
In       4.47818587       2.41733900       1.66913861        2      -0.14141606      -0.07633684      -0.05270952
In       1.80980012       0.97693587       0.67456049        3       0.14141607       0.07633684       0.05270952
O        6.13659795       2.35563966       0.23245253        4       0.00000000       0.00235915      -0.00341665
O        7.23936011       5.21147823       1.18107160        5      -0.00197226       0.00365367       0.00000000
O        8.32921682       2.23557373       2.56692958        6       0.00197226      -0.00129452      -0.00341665
O        4.24675515       4.55297600       2.12046862        7      -0.00197226       0.00129452       0.00341665
O        6.43937401       4.43291007       4.45494567        8      -0.00000000      -0.00235915       0.00341665
O        5.33661186       1.57707150       3.50632660        9       0.00197226      -0.00365367      -0.00000000
10
Lattice="5.996952810938325 0.025407968111506363 0.017543844948941373 3.3119002037593774 4.999540541070074 0.01754384494893323 3.311900203759375 1.7877742795124953 4.669001663504996" Properties=species:S:1:pos:R:3:spacegroup_kinds:I:1:forces:R:3 spacegroup="P 1" unit_cell=conventional occupancy="_JSON {\"0\": {\"In\": 1}, \"1\": {\"In\": 1}, \"2\": {\"In\": 1}, \"3\": {\"In\": 1}, \"4\": {\"O\": 1}, \"5\": {\"O\": 1}, \"6\": {\"O\": 1}, \"7\": {\"O\": 1}, \"8\": {\"O\": 1}, \"9\": {\"O\": 1}}" n_minim_iter=2 energy=-11287.42025600061 stress="0.08127682347859977 0.0021418381923099866 0.0014789091512859172 0.0021418381923099866 0.07846518139718203 0.0007983198813154415 0.0014789091512859172 0.0007983198813154415 0.07786023900884863" free_energy=-11287.42025600061 pbc="T T T"
In      10.80248124       5.83121379       4.02637118        0      -0.16072161      -0.08675804      -0.05990520
In       8.12864859       4.38787041       3.02976286        1       0.16072161       0.08675804       0.05990521
In       4.49210463       2.42485239       1.67432650        2      -0.16072161      -0.08675804      -0.05990521
In       1.81827198       0.98150901       0.67771818        3       0.16072161       0.08675804       0.05990521
O        6.15366471       2.36658518       0.24241376        4      -0.00000000       0.00204411      -0.00296040
O        7.26562596       5.22340903       1.19356619        5      -0.00170889       0.00316576      -0.00000000
O        8.35360367       2.25271825       2.57691459        6       0.00170889      -0.00112165      -0.00296040
O        4.26714955       4.56000455       2.12717477        7      -0.00170889       0.00112165       0.00296040
O        6.46708851       4.44613762       4.46167560        8      -0.00000000      -0.00204411       0.00296040
O        5.35512727       1.58931377       3.51052317        9       0.00170889      -0.00316576       0.00000000
10
Lattice="5.992179886426826 0.020514036588490377 0.01416465400168793 3.3051898446591164 4.998235759521315 0.014164654001679797 3.3051898446591133 1.7841520062954097 4.668978792371268" Properties=species:S:1:pos:R:3:spacegroup_kinds:I:1:forces:R:3 spacegroup="P 1" unit_cell=conventional occupancy="_JSON {\"0\": {\"In\": 1}, \"1\": {\"In\": 1}, \"2\": {\"In\": 1}, \"3\": {\"In\": 1}, \"4\": {\"O\": 1}, \"5\": {\"O\": 1}, \"6\": {\"O\": 1}, \"7\": {\"O\": 1}, \"8\": {\"O\": 1}, \"9\": {\"O\": 1}}" n_minim_iter=3 energy=-11287.430042259333 stress="0.07090640993927406 -0.002650161081203746 -0.0018298989903530224 -0.002650161081203746 0.07438533963027921 -0.000987785309348456 -0.0018298989903530224 -0.000987785309348456 0.07513385314983975" free_energy=-11287.430042259333 pbc="T T T"
In      10.76661933       5.81185541       4.01300449        0      -0.00934550      -0.00504473      -0.00348332
In       8.13722004       4.39249730       3.03295766        1       0.00934550       0.00504473       0.00348332
In       4.46533955       2.41040451       1.66435044        2      -0.00934550      -0.00504473      -0.00348332
In       1.83594025       0.99104640       0.68430361        3       0.00934550       0.00504473       0.00348332
O        6.14672984       2.36246019       0.23790324        4      -0.00000000      -0.03970664       0.05750535
O        7.25468615       5.21905812       1.18849168        5       0.03319495      -0.06149454      -0.00000000
O        8.34396338       2.24557842       2.57239264        6      -0.03319495       0.02178790       0.05750535
O        4.25859620       4.55732339       2.12491547        7       0.03319495      -0.02178790      -0.05750535
O        6.45582974       4.44044163       4.45940487        8      -0.00000000       0.03970664      -0.05750535
O        5.34787344       1.58384369       3.50881642        9      -0.03319495       0.06149454      -0.00000000
10
Lattice="6.0021402079055415 0.03071967461788415 0.021211503651643697 3.319187254919525 5.000962581398184 0.021211503651635606 3.31918725491952 1.7917078529404673 4.669031980843932" Properties=species:S:1:pos:R:3:spacegroup_kinds:I:1:forces:R:3 spacegroup="P 1" unit_cell=conventional occupancy="_JSON {\"0\": {\"In\": 1}, \"1\": {\"In\": 1}, \"2\": {\"In\": 1}, \"3\": {\"In\": 1}, \"4\": {\"O\": 1}, \"5\": {\"O\": 1}, \"6\": {\"O\": 1}, \"7\": {\"O\": 1}, \"8\": {\"O\": 1}, \"9\": {\"O\": 1}}" n_minim_iter=4 energy=-11287.432614242958 stress="0.07041498584931799 -0.0008899960921348516 -0.0006145297930482659 -0.0008899960921348516 0.07158330491255391 -0.0003317251327698837 -0.0006145297930482659 -0.0003317251327698837 0.07183467609873648" free_energy=-11287.432614242958 pbc="T T T"
In      10.79311757       5.82615925       4.02288109        0      -0.00789304      -0.00426069      -0.00294195
In       8.16765451       4.40892593       3.04430140        1       0.00789304       0.00426069       0.00294195
In       4.47286021       2.41446419       1.66715360        2      -0.00789304      -0.00426069      -0.00294195
In       1.84739715       0.99723087       0.68857390        3       0.00789304       0.00426069       0.00294195
O        6.16119879       2.37123940       0.24705711        4      -0.00000000      -0.04225610       0.06119762
O        7.27736240       5.22840746       1.19907525        5       0.03532631      -0.06544294       0.00000000
O        8.36422243       2.26037452       2.58157310        6      -0.03532631       0.02318684       0.06119762
O        4.27629230       4.56301560       2.12988189        7       0.03532631      -0.02318684      -0.06119762
O        6.47931594       4.45215073       4.46439788        8      -0.00000000       0.04225610      -0.06119762
O        5.36315233       1.59498266       3.51237974        9      -0.03532631       0.06544294       0.00000000
10
Lattice="6.010440250909036 0.039203112108318484 0.02706919802976193 3.330833865873688 5.003246411250937 0.027069198029753855 3.330833865873683 1.7979947306319228 4.669092239589748" Properties=species:S:1:pos:R:3:spacegroup_kinds:I:1:forces:R:3 spacegroup="P 1" unit_cell=conventional occupancy="_JSON {\"0\": {\"In\": 1}, \"1\": {\"In\": 1}, \"2\": {\"In\": 1}, \"3\": {\"In\": 1}, \"4\": {\"O\": 1}, \"5\": {\"O\": 1}, \"6\": {\"O\": 1}, \"7\": {\"O\": 1}, \"8\": {\"O\": 1}, \"9\": {\"O\": 1}}" n_minim_iter=5 energy=-11287.433964556009 stress="0.06882703011189995 6.475878141654243e-05 4.471503440438104e-05 6.475878141654243e-05 0.06874201969884518 2.4137317134237368e-05 4.471503440438104e-05 2.4137317134237368e-05 0.06872372917849175" free_energy=-11287.433964556009 pbc="T T T"
In      10.81366139       5.83724887       4.03053832        0       0.00002910       0.00001571       0.00001085
In       8.19450060       4.42341753       3.05430764        1      -0.00002910      -0.00001571      -0.00001085
In       4.47760740       2.41702674       1.66892300        2       0.00002910       0.00001571       0.00001085
In       1.85844660       1.00319540       0.69269232        3      -0.00002910      -0.00001571      -0.00001085
O        6.17324713       2.37782197       0.25571440        4      -0.00000000      -0.03822463       0.05535903
O        7.29684141       5.23507694       1.20787686        5       0.03195598      -0.05919932       0.00000000
O        8.38048671       2.27307823       2.59026052        6      -0.03195598       0.02097469       0.05535903
O        4.29162129       4.56736603       2.13297012        7       0.03195598      -0.02097469      -0.05535903
O        6.49886087       4.46262229       4.46751624        8      -0.00000000       0.03822463      -0.05535903
O        5.37526658       1.60536733       3.51535378        9      -0.03195598       0.05919932       0.00000000
10
Lattice="6.014840946555732 0.04369335348772079 0.03016964660549271 3.337002487891495 5.0044615212136865 0.03016964660548469 3.3370024878914895 1.8013245724462843 4.669130016350576" Properties=species:S:1:pos:R:3:spacegroup_kinds:I:1:forces:R:3 spacegroup="P 1" unit_cell=conventional occupancy="_JSON {\"0\": {\"In\": 1}, \"1\": {\"In\": 1}, \"2\": {\"In\": 1}, \"3\": {\"In\": 1}, \"4\": {\"O\": 1}, \"5\": {\"O\": 1}, \"6\": {\"O\": 1}, \"7\": {\"O\": 1}, \"8\": {\"O\": 1}, \"9\": {\"O\": 1}}" n_minim_iter=6 energy=-11287.434627802399 stress="0.06794339913286075 0.0005151344834650124 0.0003556931363930549 0.0005151344834650124 0.06726716977117857 0.0001920042818629567 0.0003556931363930549 0.0001920042818629567 0.06712167480925298" free_energy=-11287.434627802399 pbc="T T T"
In      10.82437119       5.84303005       4.03453014        0       0.00174768       0.00094340       0.00065140
In       8.20889771       4.43118913       3.05967383        1      -0.00174767      -0.00094340      -0.00065140
In       4.47994822       2.41829032       1.66979549        2       0.00174767       0.00094340       0.00065140
In       1.86447475       1.00644941       0.69493917        3      -0.00174767      -0.00094340      -0.00065141
O        6.17963196       2.38054339       0.26140582        4       0.00000000      -0.02710959       0.03926161
O        7.30780074       5.23742780       1.21253698        5       0.02266375      -0.04198521      -0.00000000
O        8.38846566       2.28022517       2.59597083        6      -0.02266375       0.01487562       0.03926161
O        4.30038027       4.56925429       2.13349849        7       0.02266375      -0.01487562      -0.03926161
O        6.50921397       4.46893607       4.46806350        8      -0.00000000       0.02710959      -0.03926161
O        5.38104519       1.61205166       3.51693234        9      -0.02266375       0.04198521      -0.00000000
10
Lattice="6.0161482919587135 0.04502627942619663 0.031090013235772214 3.338834189604125 5.004823062907148 0.03109001323576427 3.3388341896041185 1.8023133308653525 4.669142012973617" Properties=species:S:1:pos:R:3:spacegroup_kinds:I:1:forces:R:3 spacegroup="P 1" unit_cell=conventional occupancy="_JSON {\"0\": {\"In\": 1}, \"1\": {\"In\": 1}, \"2\": {\"In\": 1}, \"3\": {\"In\": 1}, \"4\": {\"O\": 1}, \"5\": {\"O\": 1}, \"6\": {\"O\": 1}, \"7\": {\"O\": 1}, \"8\": {\"O\": 1}, \"9\": {\"O\": 1}}" n_minim_iter=7 energy=-11287.435075537618 stress="0.06739154053061425 0.000501513731104497 0.0003462881803842026 0.000501513731104497 0.06673319150583948 0.000186927460746758 0.0003462881803842026 0.000186927460746758 0.06659154355510112" free_energy=-11287.435075537618 pbc="T T T"
In      10.82684694       5.84436647       4.03545292        0       0.00182905       0.00098733       0.00068174
In       8.21387808       4.43387755       3.06153015        1      -0.00182905      -0.00098733      -0.00068174
In       4.47993860       2.41828513       1.66979190        2       0.00182905       0.00098733       0.00068174
In       1.86696974       1.00779622       0.69586913        3      -0.00182905      -0.00098733      -0.00068174
O        6.18152832       2.38023944       0.26470609        4      -0.00000000      -0.01116671       0.01617224
O        7.31198502       5.23640405       1.21392053        5       0.00933542      -0.01729412      -0.00000000
O        8.38990581       2.28295739       2.59927709        6      -0.00933542       0.00612742       0.01617224
O        4.30391087       4.56920529       2.13204495        7       0.00933542      -0.00612742      -0.01617224
O        6.51228836       4.47192325       4.46661596        8      -0.00000000       0.01116671      -0.01617224
O        5.38183166       1.61575863       3.51740152        9      -0.00933542       0.01729412       0.00000000
10
Lattice="6.014663647026317 0.043512548804188714 0.030044803512176133 3.336754046149602 5.004412509402838 0.030044803512168206 3.3367540461495953 1.8011904628026405 4.669128416652783" Properties=species:S:1:pos:R:3:spacegroup_kinds:I:1:forces:R:3 spacegroup="P 1" unit_cell=conventional occupancy="_JSON {\"0\": {\"In\": 1}, \"1\": {\"In\": 1}, \"2\": {\"In\": 1}, \"3\": {\"In\": 1}, \"4\": {\"O\": 1}, \"5\": {\"O\": 1}, \"6\": {\"O\": 1}, \"7\": {\"O\": 1}, \"8\": {\"O\": 1}, \"9\": {\"O\": 1}}" n_minim_iter=8 energy=-11287.435220848894 stress="0.06738260719137881 0.00019831517384842496 0.00013693383398114675 0.00019831517384842496 0.06712227414022179 7.391732849898285e-05 0.00013693383398114675 7.391732849898285e-05 0.06706626185867386" free_energy=-11287.435220848894 pbc="T T T"
In      10.82248469       5.84201171       4.03382699        0       0.00045162       0.00024378       0.00016833
In       8.20977293       4.43166158       3.06000005        1      -0.00045162      -0.00024379      -0.00016833
In       4.47839882       2.41745395       1.66921798        2       0.00045162       0.00024379       0.00016833
In       1.86568706       1.00710382       0.69539103        3      -0.00045162      -0.00024378      -0.00016833
O        6.17937476       2.37811706       0.26453182        4      -0.00000000      -0.00104142       0.00150824
O        7.30929610       5.23374513       1.21234931        5       0.00087063      -0.00161287       0.00000000
O        8.38620747       2.28120858       2.59909603        6      -0.00087063       0.00057145       0.00150824
O        4.30196428       4.56790695       2.13012200        7       0.00087063      -0.00057145      -0.00150824
O        6.50879699       4.47099847       4.46468621        8       0.00000000       0.00104142      -0.00150824
O        5.37887565       1.61537040       3.51686872        9      -0.00087063       0.00161287       0.00000000
