10
Lattice="5.484989975402786 -0.14232753806726384 -0.0982751650528428 2.8907472922262323 4.663577194691644 -0.09827516505284817 2.8907472922262216 1.560434596352314 4.395867847128824" Properties=species:S:1:pos:R:3:spacegroup_kinds:I:1:forces:R:3 spacegroup="P 1" unit_cell=conventional occupancy="_JSON {\"0\": {\"In\": 1}, \"1\": {\"In\": 1}, \"2\": {\"In\": 1}, \"3\": {\"In\": 1}, \"4\": {\"O\": 1}, \"5\": {\"O\": 1}, \"6\": {\"O\": 1}, \"7\": {\"O\": 1}, \"8\": {\"O\": 1}, \"9\": {\"O\": 1}}" n_minim_iter=5 energy=-11285.843765026137 stress="-0.28467427289559244 8.451190468842421e-05 5.83543173160267e-05 8.451190468842421e-05 -0.28478521367989457 3.149982521217585e-05 5.83543173160267e-05 3.149982521217585e-05 -0.2848090833709734" free_energy=-11285.843765026137 pbc="T T T"
In       9.69477036       5.23326793       3.61349796        0      -0.00592901      -0.00320050      -0.00220990
In       7.20495648       3.88925846       2.68547832        1       0.00592901       0.00320050       0.00220990
In       4.06152808       2.19242580       1.51383921        2      -0.00592901      -0.00320050      -0.00220990
In       1.57171420       0.84841634       0.58581956        3       0.00592901       0.00320050       0.00220990
O        5.55911613       2.10098225       0.05682762        4      -0.00000000       0.00096226      -0.00139360
O        6.45964447       4.79038657       0.95155422        5      -0.00080445       0.00149027       0.00000000
O        7.54933509       1.87185888       2.25476154        6       0.00080445      -0.00052801      -0.00139360
O        3.71714948       4.20982539       1.94455598        7      -0.00080445       0.00052801       0.00139360
O        5.70736844       3.98070201       4.14248990        8       0.00000000      -0.00096226       0.00139360
O        4.80684010       1.29129769       3.24776330        9       0.00080445      -0.00149027       0.00000000
