10
Lattice="6.27706415552794 0.03388877720259396 0.023399724454246644 3.4726934164810648 5.229061416445884 0.0233997244542393 3.4726934164810594 1.8745709679204732 4.881558616906835" Properties=species:S:1:pos:R:3:spacegroup_kinds:I:1:forces:R:3 spacegroup="P 1" unit_cell=conventional occupancy="_JSON {\"0\": {\"In\": 1}, \"1\": {\"In\": 1}, \"2\": {\"In\": 1}, \"3\": {\"In\": 1}, \"4\": {\"O\": 1}, \"5\": {\"O\": 1}, \"6\": {\"O\": 1}, \"7\": {\"O\": 1}, \"8\": {\"O\": 1}, \"9\": {\"O\": 1}}" n_minim_iter=5 energy=-11284.281514945746 stress="0.26755479903955137 -3.0003200295329785e-05 -2.0716797527257518e-05 -3.0003200295329785e-05 0.2675941848776065 -1.1182996594856789e-05 -2.0716797527257518e-05 -1.1182996594856789e-05 0.26760265901342783" free_energy=-11284.281514945746 pbc="T T T"
In      11.18347888       6.03687753       4.16837910        0      -0.00064733      -0.00034943      -0.00024128
In       8.65019761       4.66940423       3.22415800        1       0.00064733       0.00034943       0.00024128
In       4.57225339       2.46811695       1.70420007        2      -0.00064733      -0.00034943      -0.00024128
In       2.03897212       1.10064365       0.75997897        3       0.00064733       0.00034943       0.00024128
O        6.44414483       2.49682806       0.23652287        4      -0.00000000       0.00043366      -0.00062804
O        7.59904725       5.49299666       1.25548924        5      -0.00036254       0.00067161       0.00000000
O        8.76193583       2.35697227       2.67730217        6       0.00036254      -0.00023796      -0.00062804
O        4.46051517       4.78054890       2.25105590        7      -0.00036254       0.00023796       0.00062804
O        6.77830617       4.64069311       4.69183520        8       0.00000000      -0.00043366       0.00062804
O        5.62340375       1.64452451       3.67286883        9       0.00036254      -0.00067161      -0.00000000
