10
Lattice="6.06202515330804 0.04385518140585419 0.03028138650896243 3.363028781860786 5.0438189547853 0.03028138650895444 3.363028781860779 1.8153736488334644 4.7058947211068665" Properties=species:S:1:pos:R:3:spacegroup_kinds:I:1:forces:R:3 spacegroup="P 1" unit_cell=conventional occupancy="_JSON {\"0\": {\"In\": 1}, \"1\": {\"In\": 1}, \"2\": {\"In\": 1}, \"3\": {\"In\": 1}, \"4\": {\"O\": 1}, \"5\": {\"O\": 1}, \"6\": {\"O\": 1}, \"7\": {\"O\": 1}, \"8\": {\"O\": 1}, \"9\": {\"O\": 1}}" n_minim_iter=8 energy=-11287.435220848894 stress="0.06738260719137881 0.00019831517384842496 0.00013693383398114675 0.00019831517384842496 0.06712227414022179 7.391732849898285e-05 0.00013693383398114675 7.391732849898285e-05 0.06706626185867386" free_energy=-11287.435220848894 pbc="T T T"
In      10.90770461       5.88801370       4.06559072        0       0.00045162       0.00024378       0.00016833
In       8.27441947       4.46655799       3.08409553        1      -0.00045162      -0.00024379      -0.00016833
In       4.51366326       2.43648981       1.68236197        2       0.00045162       0.00024379       0.00016833
In       1.88037811       1.01503410       0.70086678        3      -0.00045162      -0.00024378      -0.00016833
O        6.22803326       2.39684317       0.26661483        4      -0.00000000      -0.00104142       0.00150824
O        7.36685199       5.27495742       1.22189576        5       0.00087063      -0.00161287       0.00000000
O        8.45224332       2.29917159       2.61956219        6      -0.00087063       0.00057145       0.00150824
O        4.33583941       4.60387620       2.14689531        7       0.00087063      -0.00057145      -0.00150824
O        6.56004947       4.50620463       4.49984267        8       0.00000000       0.00104142      -0.00150824
O        5.42123074       1.62809038       3.54456174        9      -0.00087063       0.00161287       0.00000000
