10
Lattice="6.27850555133514 0.07975349792915495 0.05506866962616349 3.5118274770385782 5.205099456311564 0.055068669626155316 3.511827477038573 1.8956956584646454 4.847930576952162" Properties=species:S:1:pos:R:3:spacegroup_kinds:I:1:forces:R:3 spacegroup="P 1" unit_cell=conventional occupancy="_JSON {\"0\": {\"In\": 1}, \"1\": {\"In\": 1}, \"2\": {\"In\": 1}, \"3\": {\"In\": 1}, \"4\": {\"O\": 1}, \"5\": {\"O\": 1}, \"6\": {\"O\": 1}, \"7\": {\"O\": 1}, \"8\": {\"O\": 1}, \"9\": {\"O\": 1}}" n_minim_iter=3 energy=-11285.827559921108 stress="0.19629849183687312 -0.0002702239045898879 -0.00018658580247638072 -0.0002702239045898879 0.19665322115577952 -0.00010071960823385382 -0.00018658580247638072 -0.00010071960823385382 0.19672954341164797" free_energy=-11285.827559921108 pbc="T T T"
In      11.25539786       6.07569962       4.19518521        0      -0.00336800      -0.00181806      -0.00125534
In       8.69784291       4.69512331       3.24191667        1       0.00336800       0.00181806       0.00125534
In       4.60431760       2.48542531       1.71615125        2      -0.00336800      -0.00181806      -0.00125534
In       2.04676266       1.10484901       0.76288271        3       0.00336800       0.00181806       0.00125534
O        6.46479291       2.50486629       0.29693399        4      -0.00000000      -0.00168206       0.00243605
O        7.66070671       5.47497866       1.29458565        5       0.00140621      -0.00260504       0.00000000
O        8.78070658       2.41529910       2.72089928        6      -0.00140621       0.00092298       0.00243605
O        4.52145394       4.76524952       2.23716864        7       0.00140621      -0.00092298      -0.00243605
O        6.83736761       4.67568233       4.66113393        8       0.00000000       0.00168206      -0.00243605
O        5.64145380       1.70556997       3.66348227        9      -0.00140621       0.00260504      -0.00000000
