20
Lattice="5.462127968411188 2.5782295688213927e-59 -3.420587647221769e-43 -4.918158879105696e-59 5.074338838618043 -4.028782230416486e-16 4.789095814690937e-43 6.071681792060571e-16 7.647415266224977" Properties=species:S:1:pos:R:3:spacegroup_kinds:I:1:forces:R:3 spacegroup="P 1" unit_cell=conventional occupancy="_JSON {\"0\": {\"In\": 1}, \"1\": {\"In\": 1}, \"2\": {\"In\": 1}, \"3\": {\"In\": 1}, \"4\": {\"In\": 1}, \"5\": {\"In\": 1}, \"6\": {\"In\": 1}, \"7\": {\"In\": 1}, \"8\": {\"O\": 1}, \"9\": {\"O\": 1}, \"10\": {\"O\": 1}, \"11\": {\"O\": 1}, \"12\": {\"O\": 1}, \"13\": {\"O\": 1}, \"14\": {\"O\": 1}, \"15\": {\"O\": 1}, \"16\": {\"O\": 1}, \"17\": {\"O\": 1}, \"18\": {\"O\": 1}, \"19\": {\"O\": 1}}" n_minim_iter=1 energy=-22572.17972925745 stress="-0.22203435495198492 -8.110907252938774e-13 -2.947827849860033e-13 -8.110907252938774e-13 -0.21998014364925966 -2.872957952837114e-13 -2.947827849860033e-13 -2.872957952837114e-13 -0.21436323399430057" free_energy=-22572.17972925745 pbc="T T T"
In       1.38452234       2.63521105       0.92329255        0       0.04759795       0.22112055      -0.08021351
In       1.34654165       0.09804163       2.90041508        1      -0.04759795       0.22112055       0.08021351
In       1.34654165       2.43912779       4.74700018        2      -0.04759795      -0.22112055      -0.08021351
In       1.38452234       4.97629721       6.72412272        3       0.04759795      -0.22112055       0.08021351
In       4.07760563       2.43912779       6.72412272        4      -0.04759795      -0.22112055       0.08021351
In       4.11558632       4.97629721       4.74700018        5       0.04759795      -0.22112055      -0.08021351
In       4.11558632       2.63521105       2.90041508        6       0.04759795       0.22112055       0.08021351
In       4.07760563       0.09804163       0.92329255        7      -0.04759795       0.22112055      -0.08021351
O        2.08097144       2.95828355       6.57731321        8       0.07971810       0.07463526       0.05021729
O        0.65009254       0.42111413       4.89380969        9      -0.07971810       0.07463526      -0.05021729
O        0.65009254       2.11605529       2.75360557       10      -0.07971810      -0.07463526       0.05021729
O        2.08097144       4.65322471       1.07010206       11       0.07971810      -0.07463526      -0.05021729
O        3.38115653       2.11605529       1.07010206       12      -0.07971810      -0.07463526      -0.05021729
O        4.81203542       4.65322471       2.75360557       13       0.07971810      -0.07463526       0.05021729
O        4.81203542       2.95828355       4.89380969       14       0.07971810       0.07463526      -0.05021729
O        3.38115653       0.42111413       6.57731321       15      -0.07971810       0.07463526       0.05021729
O        5.28516407       3.80575413       0.00000000       16       0.00096967       0.00000000      -0.00000000
O        2.90802789       1.26858471       3.82370763       17      -0.00096967       0.00000000      -0.00000000
O        0.17696390       1.26858471       0.00000000       18      -0.00096967      -0.00000000       0.00000000
O        2.55410008       3.80575413       3.82370763       19       0.00096967       0.00000000       0.00000000
20
Lattice="5.474061109033429 3.4160684443390224e-59 -3.5380749854666995e-43 -3.775154935689292e-59 5.078397161494691 -3.248205678011017e-16 4.766462740740214e-43 7.217905484536686e-16 7.624646345836642" Properties=species:S:1:pos:R:3:spacegroup_kinds:I:1:forces:R:3 spacegroup="P 1" unit_cell=conventional occupancy="_JSON {\"0\": {\"In\": 1}, \"1\": {\"In\": 1}, \"2\": {\"In\": 1}, \"3\": {\"In\": 1}, \"4\": {\"In\": 1}, \"5\": {\"In\": 1}, \"6\": {\"In\": 1}, \"7\": {\"In\": 1}, \"8\": {\"O\": 1}, \"9\": {\"O\": 1}, \"10\": {\"O\": 1}, \"11\": {\"O\": 1}, \"12\": {\"O\": 1}, \"13\": {\"O\": 1}, \"14\": {\"O\": 1}, \"15\": {\"O\": 1}, \"16\": {\"O\": 1}, \"17\": {\"O\": 1}, \"18\": {\"O\": 1}, \"19\": {\"O\": 1}}" n_minim_iter=2 energy=-22572.18291599669 stress="-0.21561620888714575 -5.270897405760738e-13 -9.59076393164645e-13 -5.270897405760738e-13 -0.2180500327141178 9.800776928761157e-14 -9.59076393164645e-13 9.800776928761157e-14 -0.21936485219713586" free_energy=-22572.18291599669 pbc="T T T"
In       1.38769861       2.63802146       0.92028960        0       0.07993881       0.21924731      -0.08416308
In       1.34933194       0.09882288       2.89203357        1      -0.07993881       0.21924731       0.08416308
In       1.34933194       2.44037570       4.73261277        2      -0.07993881      -0.21924731      -0.08416308
In       1.38769861       4.97957428       6.70435675        3       0.07993881      -0.21924731       0.08416308
In       4.08636250       2.44037570       6.70435675        4      -0.07993881      -0.21924731       0.08416308
In       4.12472916       4.97957428       4.73261277        5       0.07993881      -0.21924731      -0.08416308
In       4.12472916       2.63802146       2.89203357        6       0.07993881       0.21924731       0.08416308
In       4.08636250       0.09882288       0.92028960        7      -0.07993881       0.21924731      -0.08416308
O        2.08577149       2.96088674       6.55788935        8       0.12014575       0.08933543       0.05265973
O        0.65125907       0.42168816       4.87908017        9      -0.12014575       0.08933543      -0.05265973
O        0.65125907       2.11751042       2.74556618       10      -0.12014575      -0.08933543       0.05265973
O        2.08577149       4.65670900       1.06675699       11       0.12014575      -0.08933543      -0.05265973
O        3.38828962       2.11751042       1.06675699       12      -0.12014575      -0.08933543      -0.05265973
O        4.82280204       4.65670900       2.74556618       13       0.12014575      -0.08933543       0.05265973
O        4.82280204       2.96088674       4.87908017       14       0.12014575       0.08933543      -0.05265973
O        3.38828962       0.42168816       6.55788935       15      -0.12014575       0.08933543       0.05265973
O        5.29671368       3.80879787       0.00000000       16      -0.00295175      -0.00000000       0.00000000
O        2.91437798       1.26959929       3.81232317       17       0.00295175      -0.00000000      -0.00000000
O        0.17734743       1.26959929       0.00000000       18       0.00295175      -0.00000000       0.00000000
O        2.55968312       3.80879787       3.81232317       19      -0.00295175      -0.00000000       0.00000000
20
Lattice="5.467319489962837 3.931452858909861e-59 -3.5407478210721864e-43 -3.6152586096565622e-59 5.093538765840297 -3.1427652354001567e-16 5.0766158458098665e-43 7.390418375892587e-16 7.611354315077167" Properties=species:S:1:pos:R:3:spacegroup_kinds:I:1:forces:R:3 spacegroup="P 1" unit_cell=conventional occupancy="_JSON {\"0\": {\"In\": 1}, \"1\": {\"In\": 1}, \"2\": {\"In\": 1}, \"3\": {\"In\": 1}, \"4\": {\"In\": 1}, \"5\": {\"In\": 1}, \"6\": {\"In\": 1}, \"7\": {\"In\": 1}, \"8\": {\"O\": 1}, \"9\": {\"O\": 1}, \"10\": {\"O\": 1}, \"11\": {\"O\": 1}, \"12\": {\"O\": 1}, \"13\": {\"O\": 1}, \"14\": {\"O\": 1}, \"15\": {\"O\": 1}, \"16\": {\"O\": 1}, \"17\": {\"O\": 1}, \"18\": {\"O\": 1}, \"19\": {\"O\": 1}}" n_minim_iter=3 energy=-22572.192369826316 stress="-0.216422227408268 9.575276848137774e-14 -7.825153704675314e-13 9.575276848137774e-14 -0.21206765265649688 -1.3970954766658098e-13 -7.825153704675314e-13 -1.3970954766658098e-13 -0.21691781089674161" free_energy=-22572.192369826316 pbc="T T T"
In       1.38748844       2.65067088       0.91690294        0      -0.03153464       0.15730046       0.02540019
In       1.34617130       0.10390150       2.88877422        1       0.03153464       0.15730046      -0.02540019
In       1.34617130       2.44286788       4.72258010        2       0.03153464      -0.15730046       0.02540019
In       1.38748844       4.98963727       6.69445138        3      -0.03153464      -0.15730046      -0.02540019
In       4.07983105       2.44286788       6.69445138        4       0.03153464      -0.15730046      -0.02540019
In       4.12114819       4.98963727       4.72258010        5      -0.03153464      -0.15730046       0.02540019
In       4.12114819       2.65067088       2.88877422        6      -0.03153464       0.15730046      -0.02540019
In       4.07983105       0.10390150       0.91690294        7       0.03153464       0.15730046       0.02540019
O        2.08551545       2.97155046       6.54757238        8       0.05995176       0.09070371      -0.06713515
O        0.64814430       0.42478108       4.86945909        9      -0.05995176       0.09070371       0.06713515
O        0.64814430       2.12198830       2.74189522       10      -0.05995176      -0.09070371      -0.06713515
O        2.08551545       4.66875769       1.06378193       11       0.05995176      -0.09070371       0.06713515
O        3.38180404       2.12198830       1.06378193       12      -0.05995176      -0.09070371       0.06713515
O        4.81917519       4.66875769       2.74189522       13       0.05995176      -0.09070371      -0.06713515
O        4.81917519       2.97155046       4.86945909       14       0.05995176       0.09070371       0.06713515
O        3.38180404       0.42478108       6.54757238       15      -0.05995176       0.09070371      -0.06713515
O        5.29015512       3.82015407       0.00000000       16      -0.07094697      -0.00000000       0.00000000
O        2.91082412       1.27338469       3.80567716       17       0.07094697       0.00000000       0.00000000
O        0.17716437       1.27338469       0.00000000       18       0.07094697       0.00000000      -0.00000000
O        2.55649537       3.82015407       3.80567716       19      -0.07094697       0.00000000      -0.00000000
20
Lattice="5.476335680998903 5.149945627664164e-59 -3.429887386948305e-43 -4.036996777649793e-59 5.0827330865686955 -2.861980533437982e-16 6.061049864199153e-43 7.802070848841123e-16 7.614977830031937" Properties=species:S:1:pos:R:3:spacegroup_kinds:I:1:forces:R:3 spacegroup="P 1" unit_cell=conventional occupancy="_JSON {\"0\": {\"In\": 1}, \"1\": {\"In\": 1}, \"2\": {\"In\": 1}, \"3\": {\"In\": 1}, \"4\": {\"In\": 1}, \"5\": {\"In\": 1}, \"6\": {\"In\": 1}, \"7\": {\"In\": 1}, \"8\": {\"O\": 1}, \"9\": {\"O\": 1}, \"10\": {\"O\": 1}, \"11\": {\"O\": 1}, \"12\": {\"O\": 1}, \"13\": {\"O\": 1}, \"14\": {\"O\": 1}, \"15\": {\"O\": 1}, \"16\": {\"O\": 1}, \"17\": {\"O\": 1}, \"18\": {\"O\": 1}, \"19\": {\"O\": 1}}" n_minim_iter=4 energy=-22572.196599288018 stress="-0.2107985320728387 -9.212324980433476e-13 -6.235802232579812e-14 -9.212324980433476e-13 -0.21519506436052985 -3.906985645374527e-13 -6.235802232579812e-14 -3.906985645374527e-13 -0.21234676650642834" free_energy=-22572.196599288018 pbc="T T T"
In       1.39041609       2.64870627       0.91648315        0      -0.07101765       0.06068982       0.08104947
In       1.34775175       0.10733973       2.89100577        1       0.07101765       0.06068982      -0.08104947
In       1.34775175       2.43402682       4.72397206        2       0.07101765      -0.06068982       0.08104947
In       1.39041609       4.97539336       6.69849468        3      -0.07101765      -0.06068982      -0.08104947
In       4.08591959       2.43402682       6.69849468        4       0.07101765      -0.06068982      -0.08104947
In       4.12858393       4.97539336       4.72397206        5      -0.07101765      -0.06068982       0.08104947
In       4.12858393       2.64870627       2.89100577        6      -0.07101765       0.06068982      -0.08104947
In       4.08591959       0.10733973       0.91648315        7       0.07101765       0.06068982       0.08104947
O        2.09060412       2.96682449       6.55091939        8       0.05667750       0.03323896      -0.12450635
O        0.64756372       0.42545794       4.87154735        9      -0.05667750       0.03323896       0.12450635
O        0.64756372       2.11590860       2.74343048       10      -0.05667750      -0.03323896      -0.12450635
O        2.09060412       4.65727514       1.06405844       11       0.05667750      -0.03323896       0.12450635
O        3.38573156       2.11590860       1.06405844       12      -0.05667750      -0.03323896       0.12450635
O        4.82877196       4.65727514       2.74343048       13       0.05667750      -0.03323896      -0.12450635
O        4.82877196       2.96682449       4.87154735       14       0.05667750       0.03323896       0.12450635
O        3.38573156       0.42545794       6.55091939       15      -0.05667750       0.03323896      -0.12450635
O        5.29843256       3.81204981       0.00000000       16      -0.10234369      -0.00000000      -0.00000000
O        2.91607096       1.27068327       3.80748892       17       0.10234369       0.00000000      -0.00000000
O        0.17790312       1.27068327       0.00000000       18       0.10234369       0.00000000      -0.00000000
O        2.56026472       3.81204981       3.80748892       19      -0.10234369      -0.00000000      -0.00000000
20
Lattice="5.456656307549546 2.2309416622571763e-59 -4.966229438393014e-43 -6.338000254648684e-59 5.123207941201918 -3.0542624280531027e-16 4.688043022501141e-43 7.559002603836596e-16 7.582063626734833" Properties=species:S:1:pos:R:3:spacegroup_kinds:I:1:forces:R:3 spacegroup="P 1" unit_cell=conventional occupancy="_JSON {\"0\": {\"In\": 1}, \"1\": {\"In\": 1}, \"2\": {\"In\": 1}, \"3\": {\"In\": 1}, \"4\": {\"In\": 1}, \"5\": {\"In\": 1}, \"6\": {\"In\": 1}, \"7\": {\"In\": 1}, \"8\": {\"O\": 1}, \"9\": {\"O\": 1}, \"10\": {\"O\": 1}, \"11\": {\"O\": 1}, \"12\": {\"O\": 1}, \"13\": {\"O\": 1}, \"14\": {\"O\": 1}, \"15\": {\"O\": 1}, \"16\": {\"O\": 1}, \"17\": {\"O\": 1}, \"18\": {\"O\": 1}, \"19\": {\"O\": 1}}" n_minim_iter=5 energy=-22572.20907810998 stress="-0.20894519858730326 -2.209866066938737e-13 -1.224370636973843e-13 -2.209866066938737e-13 -0.2026971863244416 2.0181909193684744e-13 -1.224370636973843e-13 2.0181909193684744e-13 -0.20281669118533455" free_energy=-22572.20907810998 pbc="T T T"
In       1.38427403       2.68797508       0.91303414        0      -0.17186096      -0.06802187       0.10441054
In       1.34405412       0.12637111       2.87799767        1       0.17186096      -0.06802187      -0.10441054
In       1.34405412       2.43523287       4.70406596        2       0.17186096       0.06802187       0.10441054
In       1.38427403       4.99683684       6.66902948        3      -0.17186096       0.06802187      -0.10441054
In       4.07238228       2.43523287       6.66902948        4       0.17186096       0.06802187      -0.10441054
In       4.11260219       4.99683684       4.70406596        5      -0.17186096       0.06802187       0.10441054
In       4.11260219       2.68797508       2.87799767        6      -0.17186096      -0.06802187      -0.10441054
In       4.07238228       0.12637111       0.91303414        7       0.17186096      -0.06802187       0.10441054
O        2.09213962       2.99876635       6.51748073        8      -0.03141469       0.06509871      -0.07832583
O        0.63618854       0.43716238       4.85561471        9       0.03141469       0.06509871       0.07832583
O        0.63618854       2.12444159       2.72644891       10       0.03141469      -0.06509871      -0.07832583
O        2.09213962       4.68604556       1.06458290       11      -0.03141469      -0.06509871       0.07832583
O        3.36451669       2.12444159       1.06458290       12       0.03141469      -0.06509871       0.07832583
O        4.82046777       4.68604556       2.72644891       13      -0.03141469      -0.06509871      -0.07832583
O        4.82046777       2.99876635       4.85561471       14      -0.03141469       0.06509871       0.07832583
O        3.36451669       0.43716238       6.51748073       15       0.03141469       0.06509871      -0.07832583
O        5.27259305       3.84240596       0.00000000       16      -0.18254342       0.00000000      -0.00000000
O        2.91239141       1.28080199       3.79103181       17       0.18254342       0.00000000       0.00000000
O        0.18406326       1.28080199       0.00000000       18       0.18254342      -0.00000000       0.00000000
O        2.54426490       3.84240596       3.79103181       19      -0.18254342       0.00000000      -0.00000000
20
Lattice="5.465504915067176 -8.352983119534093e-60 -4.98799300680016e-43 -8.751145971619886e-59 5.122658429770734 -2.5798941814750574e-16 9.909106404352326e-43 8.266255202730453e-16 7.570600344966307" Properties=species:S:1:pos:R:3:spacegroup_kinds:I:1:forces:R:3 spacegroup="P 1" unit_cell=conventional occupancy="_JSON {\"0\": {\"In\": 1}, \"1\": {\"In\": 1}, \"2\": {\"In\": 1}, \"3\": {\"In\": 1}, \"4\": {\"In\": 1}, \"5\": {\"In\": 1}, \"6\": {\"In\": 1}, \"7\": {\"In\": 1}, \"8\": {\"O\": 1}, \"9\": {\"O\": 1}, \"10\": {\"O\": 1}, \"11\": {\"O\": 1}, \"12\": {\"O\": 1}, \"13\": {\"O\": 1}, \"14\": {\"O\": 1}, \"15\": {\"O\": 1}, \"16\": {\"O\": 1}, \"17\": {\"O\": 1}, \"18\": {\"O\": 1}, \"19\": {\"O\": 1}}" n_minim_iter=6 energy=-22572.21798704557 stress="-0.20205076973043254 -3.95418941115088e-14 4.674766091327222e-13 -3.95418941115088e-14 -0.20464034898945457 -1.1136411308725533e-12 4.674766091327222e-13 -1.1136411308725533e-12 -0.2050016669538299" free_energy=-22572.21798704557 pbc="T T T"
In       1.38203224       2.68936453       0.91445094        0      -0.00268622      -0.01941216      -0.03082431
In       1.35072022       0.12803532       2.87084923        1       0.00268622      -0.01941216       0.03082431
In       1.35072022       2.43329390       4.69975111        2       0.00268622       0.01941216      -0.03082431
In       1.38203224       4.99462311       6.65614941        3      -0.00268622       0.01941216       0.03082431
In       4.08347268       2.43329390       6.65614941        4       0.00268622       0.01941216       0.03082431
In       4.11478469       4.99462311       4.69975111        5      -0.00268622       0.01941216      -0.03082431
In       4.11478469       2.68936453       2.87084923        6      -0.00268622      -0.01941216       0.03082431
In       4.08347268       0.12803532       0.91445094        7       0.00268622      -0.01941216      -0.03082431
O        2.09749067       3.00198122       6.50458267        8       0.04141580       0.08387001       0.10297132
O        0.63526179       0.44065200       4.85131785        9      -0.04141580       0.08387001      -0.10297132
O        0.63526179       2.12067721       2.71928250       10      -0.04141580      -0.08387001       0.10297132
O        2.09749067       4.68200643       1.06601767       11       0.04141580      -0.08387001      -0.10297132
O        3.36801424       2.12067721       1.06601767       12      -0.04141580      -0.08387001      -0.10297132
O        4.83024313       4.68200643       2.71928250       13       0.04141580      -0.08387001       0.10297132
O        4.83024313       3.00198122       4.85131785       14       0.04141580       0.08387001      -0.10297132
O        3.36801424       0.44065200       6.50458267       15      -0.04141580       0.08387001       0.10297132
O        5.27442113       3.84199382       0.00000000       16      -0.05001708       0.00000000      -0.00000000
O        2.92383624       1.28066461       3.78530017       17       0.05001708       0.00000000       0.00000000
O        0.19108379       1.28066461       0.00000000       18       0.05001708      -0.00000000       0.00000000
O        2.54166867       3.84199382       3.78530017       19      -0.05001708      -0.00000000      -0.00000000
20
Lattice="5.44846835719004 -9.030874560513694e-60 -6.557296540731741e-43 -9.44530404336741e-59 5.160160895165011 -2.58686556969498e-16 1.1756410909153194e-42 8.300200216114456e-16 7.539079655606346" Properties=species:S:1:pos:R:3:spacegroup_kinds:I:1:forces:R:3 spacegroup="P 1" unit_cell=conventional occupancy="_JSON {\"0\": {\"In\": 1}, \"1\": {\"In\": 1}, \"2\": {\"In\": 1}, \"3\": {\"In\": 1}, \"4\": {\"In\": 1}, \"5\": {\"In\": 1}, \"6\": {\"In\": 1}, \"7\": {\"In\": 1}, \"8\": {\"O\": 1}, \"9\": {\"O\": 1}, \"10\": {\"O\": 1}, \"11\": {\"O\": 1}, \"12\": {\"O\": 1}, \"13\": {\"O\": 1}, \"14\": {\"O\": 1}, \"15\": {\"O\": 1}, \"16\": {\"O\": 1}, \"17\": {\"O\": 1}, \"18\": {\"O\": 1}, \"19\": {\"O\": 1}}" n_minim_iter=7 energy=-22572.226853668308 stress="-0.19722409967571025 -5.545376372521741e-13 -5.860861570433933e-13 -5.545376372521741e-13 -0.19902389900570977 6.22975835894738e-13 -5.860861570433933e-13 6.22975835894738e-13 -0.1957548965973659" free_energy=-22572.226853668308 pbc="T T T"
In       1.37058892       2.72371746       0.91218451        0       0.01150011      -0.06332769       0.06758088
In       1.35364526       0.14363702       2.85735531        1      -0.01150011      -0.06332769      -0.06758088
In       1.35364526       2.43644343       4.68172434        2      -0.01150011       0.06332769       0.06758088
In       1.37058892       5.01652388       6.62689514        3       0.01150011       0.06332769      -0.06758088
In       4.07787944       2.43644343       6.62689514        4      -0.01150011       0.06332769      -0.06758088
In       4.09482310       5.01652388       4.68172434        5       0.01150011       0.06332769       0.06758088
In       4.09482310       2.72371746       2.85735531        6       0.01150011      -0.06332769      -0.06758088
In       4.07787944       0.14363702       0.91218451        7      -0.01150011      -0.06332769       0.06758088
O        2.10217626       3.04103517       6.47743471        8      -0.01269955       0.07071255       0.04020489
O        0.62205792       0.46095472       4.83118477        9       0.01269955       0.07071255      -0.04020489
O        0.62205792       2.11912573       2.70789488       10       0.01269955      -0.07071255       0.04020489
O        2.10217626       4.69920617       1.06164494       11      -0.01269955      -0.07071255      -0.04020489
O        3.34629210       2.11912573       1.06164494       12       0.01269955      -0.07071255      -0.04020489
O        4.82641043       4.69920617       2.70789488       13      -0.01269955      -0.07071255       0.04020489
O        4.82641043       3.04103517       4.83118477       14      -0.01269955       0.07071255      -0.04020489
O        3.34629210       0.46095472       6.47743471       15       0.01269955       0.07071255       0.04020489
O        5.24110889       3.87012067       0.00000000       16       0.08065810       0.00000000       0.00000000
O        2.93159365       1.29004022       3.76953983       17      -0.08065810       0.00000000      -0.00000000
O        0.20735947       1.29004022       0.00000000       18      -0.08065810       0.00000000       0.00000000
O        2.51687471       3.87012067       3.76953983       19       0.08065810      -0.00000000      -0.00000000
20
Lattice="5.44033322353739 -4.2766814054550657e-60 -6.383009266992724e-43 -6.7144124374802214e-59 5.1802152146931295 -2.439751200748768e-16 9.990185748935047e-43 8.543858374350193e-16 7.521123219131958" Properties=species:S:1:pos:R:3:spacegroup_kinds:I:1:forces:R:3 spacegroup="P 1" unit_cell=conventional occupancy="_JSON {\"0\": {\"In\": 1}, \"1\": {\"In\": 1}, \"2\": {\"In\": 1}, \"3\": {\"In\": 1}, \"4\": {\"In\": 1}, \"5\": {\"In\": 1}, \"6\": {\"In\": 1}, \"7\": {\"In\": 1}, \"8\": {\"O\": 1}, \"9\": {\"O\": 1}, \"10\": {\"O\": 1}, \"11\": {\"O\": 1}, \"12\": {\"O\": 1}, \"13\": {\"O\": 1}, \"14\": {\"O\": 1}, \"15\": {\"O\": 1}, \"16\": {\"O\": 1}, \"17\": {\"O\": 1}, \"18\": {\"O\": 1}, \"19\": {\"O\": 1}}" n_minim_iter=8 energy=-22572.23168689318 stress="-0.2003875904717197 3.5640844586951446e-13 6.951858612580756e-14 3.5640844586951446e-13 -0.1957398891899548 -5.911002904637882e-13 6.951858612580756e-14 -5.911002904637882e-13 -0.1995624098380965" free_energy=-22572.23168689318 pbc="T T T"
In       1.36632745       2.73172203       0.91285810        0       0.03321392       0.03290171       0.04050226
In       1.35383917       0.14161442       2.84770351        1      -0.03321392       0.03290171      -0.04050226
In       1.35383917       2.44849318       4.67341971        2      -0.03321392      -0.03290171       0.04050226
In       1.36632745       5.03860079       6.60826512        3       0.03321392      -0.03290171      -0.04050226
In       4.07400578       2.44849318       6.60826512        4      -0.03321392      -0.03290171      -0.04050226
In       4.08649406       5.03860079       4.67341971        5       0.03321392      -0.03290171       0.04050226
In       4.08649406       2.73172203       2.84770351        6       0.03321392       0.03290171      -0.04050226
In       4.07400578       0.14161442       0.91285810        7      -0.03321392       0.03290171       0.04050226
O        2.10024844       3.06067101       6.46563226        8      -0.00912701       0.08178664      -0.01623494
O        0.61991817       0.47056341       4.81605257        9       0.00912701       0.08178664       0.01623494
O        0.61991817       2.11954420       2.70507065       10       0.00912701      -0.08178664      -0.01623494
O        2.10024844       4.70965181       1.05549096       11      -0.00912701      -0.08178664       0.01623494
O        3.34008478       2.11954420       1.05549096       12       0.00912701      -0.08178664       0.01623494
O        4.82041505       4.70965181       2.70507065       13      -0.00912701      -0.08178664      -0.01623494
O        4.82041505       3.06067101       4.81605257       14      -0.00912701       0.08178664       0.01623494
O        3.34008478       0.47056341       6.46563226       15       0.00912701       0.08178664      -0.01623494
O        5.23129087       3.88516141       0.00000000       16       0.10210258      -0.00000000       0.00000000
O        2.92920896       1.29505380       3.76056161       17      -0.10210258       0.00000000      -0.00000000
O        0.20904235       1.29505380       0.00000000       18      -0.10210258       0.00000000      -0.00000000
O        2.51112426       3.88516141       3.76056161       19       0.10210258      -0.00000000       0.00000000
20
Lattice="5.44529133113081 3.7014169646521867e-60 -6.920990589074698e-43 -5.436369587475355e-59 5.18118681913636 -1.6078642714981498e-16 1.0386215974323677e-42 9.796004818535605e-16 7.512865883981495" Properties=species:S:1:pos:R:3:spacegroup_kinds:I:1:forces:R:3 spacegroup="P 1" unit_cell=conventional occupancy="_JSON {\"0\": {\"In\": 1}, \"1\": {\"In\": 1}, \"2\": {\"In\": 1}, \"3\": {\"In\": 1}, \"4\": {\"In\": 1}, \"5\": {\"In\": 1}, \"6\": {\"In\": 1}, \"7\": {\"In\": 1}, \"8\": {\"O\": 1}, \"9\": {\"O\": 1}, \"10\": {\"O\": 1}, \"11\": {\"O\": 1}, \"12\": {\"O\": 1}, \"13\": {\"O\": 1}, \"14\": {\"O\": 1}, \"15\": {\"O\": 1}, \"16\": {\"O\": 1}, \"17\": {\"O\": 1}, \"18\": {\"O\": 1}, \"19\": {\"O\": 1}}" n_minim_iter=9 energy=-22572.235287905187 stress="-0.19667458542449298 -7.82039404355657e-13 -1.4359042132055608e-13 -7.82039404355657e-13 -0.19812613311894006 4.1488387797785486e-13 -1.4359042132055608e-13 4.1488387797785486e-13 -0.19807619392766326" free_energy=-22572.235287905187 pbc="T T T"
In       1.36733067       2.73341306       0.91508550        0       0.00639216      -0.02664173       0.00759196
In       1.35531500       0.14281965       2.84134744        1      -0.00639216      -0.02664173      -0.00759196
In       1.35531500       2.44777376       4.67151844        2      -0.00639216       0.02664173       0.00759196
In       1.36733067       5.03836717       6.59778039        3       0.00639216       0.02664173      -0.00759196
In       4.07796066       2.44777376       6.59778039        4      -0.00639216       0.02664173      -0.00759196
In       4.08997633       5.03836717       4.67151844        5       0.00639216       0.02664173       0.00759196
In       4.08997633       2.73341306       2.84134744        6       0.00639216      -0.02664173      -0.00759196
In       4.07796066       0.14281965       0.91508550        7      -0.00639216      -0.02664173       0.00759196
O        2.10419794       3.07004686       6.46009166        8       0.03268918       0.00317562      -0.05546309
O        0.61844773       0.47945345       4.80920716        9      -0.03268918       0.00317562       0.05546309
O        0.61844773       2.11113996       2.70365872       10      -0.03268918      -0.00317562      -0.05546309
O        2.10419794       4.70173337       1.05277422       11       0.03268918      -0.00317562       0.05546309
O        3.34109339       2.11113996       1.05277422       12      -0.03268918      -0.00317562       0.05546309
O        4.82684360       4.70173337       2.70365872       13       0.03268918      -0.00317562      -0.05546309
O        4.82684360       3.07004686       4.80920716       14       0.03268918       0.00317562       0.05546309
O        3.34109339       0.47945345       6.46009166       15      -0.03268918       0.00317562      -0.05546309
O        5.23740125       3.88589011       0.00000000       16       0.02510564       0.00000000       0.00000000
O        2.93053574       1.29529670       3.75643294       17      -0.02510564      -0.00000000      -0.00000000
O        0.20789008       1.29529670       0.00000000       18      -0.02510564       0.00000000      -0.00000000
O        2.51475559       3.88589011       3.75643294       19       0.02510564       0.00000000      -0.00000000
20