20
Lattice="5.4215754409867625 2.0659861775684035e-59 -6.583457084728121e-45 8.117975812681693e-60 5.411743847561191 1.7912822304065875e-16 1.1619818934994488e-43 -1.0443972362508724e-16 7.662092228431398" Properties=species:S:1:pos:R:3:spacegroup_kinds:I:1:forces:R:3 spacegroup="P 1" unit_cell=conventional occupancy="_JSON {\"0\": {\"In\": 1}, \"1\": {\"In\": 1}, \"2\": {\"In\": 1}, \"3\": {\"In\": 1}, \"4\": {\"In\": 1}, \"5\": {\"In\": 1}, \"6\": {\"In\": 1}, \"7\": {\"In\": 1}, \"8\": {\"O\": 1}, \"9\": {\"O\": 1}, \"10\": {\"O\": 1}, \"11\": {\"O\": 1}, \"12\": {\"O\": 1}, \"13\": {\"O\": 1}, \"14\": {\"O\": 1}, \"15\": {\"O\": 1}, \"16\": {\"O\": 1}, \"17\": {\"O\": 1}, \"18\": {\"O\": 1}, \"19\": {\"O\": 1}}" n_minim_iter=12 energy=-22574.281800118308 stress="-0.054546330113219625 -9.12242638000825e-13 -4.1150783308405974e-13 -9.12242638000825e-13 -0.054449911199553544 4.2891262384446815e-13 -4.1150783308405974e-13 4.2891262384446815e-13 -0.05463134882600899" free_energy=-22574.281800118308 pbc="T T T"
In       1.35136489       2.87077529       0.91035209        0      -0.00026008       0.00133075       0.00236709
In       1.35942283       0.16490337       2.92069403        1       0.00026008       0.00133075      -0.00236709
In       1.35942283       2.54096855       4.74139820        2       0.00026008      -0.00133075       0.00236709
In       1.35136489       5.24684048       6.75174014        3      -0.00026008      -0.00133075      -0.00236709
In       4.07021055       2.54096855       6.75174014        4       0.00026008      -0.00133075      -0.00236709
In       4.06215262       5.24684048       4.74139820        5      -0.00026008      -0.00133075       0.00236709
In       4.06215262       2.87077529       2.92069403        6      -0.00026008       0.00133075      -0.00236709
In       4.07021055       0.16490337       0.91035209        7       0.00026008       0.00133075       0.00236709
O        2.10137113       3.24802143       6.54556814        8       0.00010853       0.00178245      -0.00091331
O        0.60941659       0.54214951       4.94757020        9      -0.00010853       0.00178245       0.00091331
O        0.60941659       2.16372242       2.71452203       10      -0.00010853      -0.00178245      -0.00091331
O        2.10137113       4.86959434       1.11652409       11       0.00010853      -0.00178245       0.00091331
O        3.32020431       2.16372242       1.11652409       12      -0.00010853      -0.00178245       0.00091331
O        4.81215885       4.86959434       2.71452203       13       0.00010853      -0.00178245      -0.00091331
O        4.81215885       3.24802143       4.94757020       14       0.00010853       0.00178245       0.00091331
O        3.32020431       0.54214951       6.54556814       15      -0.00010853       0.00178245      -0.00091331
O        5.20290598       4.05880789      -0.00000000       16      -0.00112227       0.00000000       0.00000000
O        2.92945718       1.35293596       3.83104611       17       0.00112227       0.00000000       0.00000000
O        0.21866946       1.35293596      -0.00000000       18       0.00112227       0.00000000       0.00000000
O        2.49211826       4.05880789       3.83104611       19      -0.00112227       0.00000000       0.00000000
