20
Lattice="5.741085660789469 2.836785019537574e-62 -1.6012157279753685e-44 -5.907109321948949e-62 5.7904852943204475 4.50654653843059e-18 -3.5121383341382343e-44 -2.0229341648134012e-17 8.308096533355847" Properties=species:S:1:pos:R:3:spacegroup_kinds:I:1:forces:R:3 spacegroup="P 1" unit_cell=conventional occupancy="_JSON {\"0\": {\"In\": 1}, \"1\": {\"In\": 1}, \"2\": {\"In\": 1}, \"3\": {\"In\": 1}, \"4\": {\"In\": 1}, \"5\": {\"In\": 1}, \"6\": {\"In\": 1}, \"7\": {\"In\": 1}, \"8\": {\"O\": 1}, \"9\": {\"O\": 1}, \"10\": {\"O\": 1}, \"11\": {\"O\": 1}, \"12\": {\"O\": 1}, \"13\": {\"O\": 1}, \"14\": {\"O\": 1}, \"15\": {\"O\": 1}, \"16\": {\"O\": 1}, \"17\": {\"O\": 1}, \"18\": {\"O\": 1}, \"19\": {\"O\": 1}}" n_minim_iter=5 energy=-22574.788909216382 stress="0.026362756719267095 -8.787338895680918e-13 -4.2170382304737094e-13 -8.787338895680918e-13 0.026555660392453596 -2.108089128235424e-13 -4.2170382304737094e-13 -2.108089128235424e-13 0.0263937118257024" free_energy=-22574.788909216382 pbc="T T T"
In       1.42273167       3.04204199       0.95889616        0      -0.00087202      -0.00527564      -0.00103745
In       1.44781116       0.14679934       3.19515211        1       0.00087202      -0.00527564       0.00103745
In       1.44781116       2.74844331       5.11294443        2       0.00087202       0.00527564      -0.00103745
In       1.42273167       5.64368595       7.34920037        3      -0.00087202       0.00527564       0.00103745
In       4.31835399       2.74844331       7.34920037        4       0.00087202       0.00527564       0.00103745
In       4.29327450       5.64368595       5.11294443        5      -0.00087202       0.00527564      -0.00103745
In       4.29327450       3.04204199       3.19515211        6      -0.00087202      -0.00527564       0.00103745
In       4.31835399       0.14679934       0.95889616        7       0.00087202      -0.00527564      -0.00103745
O        2.24252917       3.49317808       7.05379748        8      -0.00098833       0.00355683       0.00230818
O        0.62801366       0.59793543       5.40834732        9       0.00098833       0.00355683      -0.00230818
O        0.62801366       2.29730721       2.89974922       10       0.00098833      -0.00355683       0.00230818
O        2.24252917       5.19254986       1.25429905       11      -0.00098833      -0.00355683      -0.00230818
O        3.49855649       2.29730721       1.25429905       12       0.00098833      -0.00355683      -0.00230818
O        5.11307200       5.19254986       2.89974922       13      -0.00098833      -0.00355683       0.00230818
O        5.11307200       3.49317808       5.40834732       14      -0.00098833       0.00355683      -0.00230818
O        3.49855649       0.59793543       7.05379748       15       0.00098833       0.00355683       0.00230818
O        5.49817977       4.34286397      -0.00000000       16       0.00932073      -0.00000000       0.00000000
O        3.11344872       1.44762132       4.15404827       17      -0.00932073      -0.00000000      -0.00000000
O        0.24290589       1.44762132      -0.00000000       18      -0.00932073       0.00000000       0.00000000
O        2.62763694       4.34286397       4.15404827       19       0.00932073       0.00000000      -0.00000000
