20
Lattice="5.752563646396044 1.3715811992095597e-59 7.0840675402843064e-43 -7.219747620225436e-60 6.0165013891397665 -7.099408586186899e-18 -1.1411509585213751e-42 2.7765402695063277e-17 9.279116320708438" Properties=species:S:1:pos:R:3:spacegroup_kinds:I:1:forces:R:3 spacegroup="P 1" unit_cell=conventional occupancy="_JSON {\"0\": {\"In\": 1}, \"1\": {\"In\": 1}, \"2\": {\"In\": 1}, \"3\": {\"In\": 1}, \"4\": {\"In\": 1}, \"5\": {\"In\": 1}, \"6\": {\"In\": 1}, \"7\": {\"In\": 1}, \"8\": {\"O\": 1}, \"9\": {\"O\": 1}, \"10\": {\"O\": 1}, \"11\": {\"O\": 1}, \"12\": {\"O\": 1}, \"13\": {\"O\": 1}, \"14\": {\"O\": 1}, \"15\": {\"O\": 1}, \"16\": {\"O\": 1}, \"17\": {\"O\": 1}, \"18\": {\"O\": 1}, \"19\": {\"O\": 1}}" n_minim_iter=8 energy=-22571.549950612563 stress="0.10895635485426546 -2.5126786788149767e-14 1.4287196064348035e-13 -2.5126786788149767e-14 0.10890986769477078 8.567196253787319e-13 1.4287196064348035e-13 8.567196253787319e-13 0.1089004074909486" free_energy=-22571.549950612563 pbc="T T T"
In       1.36206937       3.21643040       1.14667030        0      -0.00726915       0.00241003      -0.00032402
In       1.51421245       0.20817971       3.49288786        1       0.00726915       0.00241003       0.00032402
In       1.51421245       2.80007099       5.78622846        2       0.00726915      -0.00241003      -0.00032402
In       1.36206937       5.80832168       8.13244602        3      -0.00726915      -0.00241003       0.00032402
In       4.39049428       2.80007099       8.13244602        4       0.00726915      -0.00241003       0.00032402
In       4.23835119       5.80832168       5.78622846        5      -0.00726915      -0.00241003      -0.00032402
In       4.23835119       3.21643040       3.49288786        6      -0.00726915       0.00241003       0.00032402
In       4.39049428       0.20817971       1.14667030        7       0.00726915       0.00241003      -0.00032402
O        2.31923528       3.63052974       7.72074781        8      -0.00365690      -0.00716921       0.00064866
O        0.55704654       0.62227905       6.19792667        9       0.00365690      -0.00716921      -0.00064866
O        0.55704654       2.38597165       3.08118965       10       0.00365690       0.00716921       0.00064866
O        2.31923528       5.39422234       1.55836851       11      -0.00365690       0.00716921      -0.00064866
O        3.43332836       2.38597165       1.55836851       12       0.00365690       0.00716921      -0.00064866
O        5.19551711       5.39422234       3.08118965       13      -0.00365690       0.00716921       0.00064866
O        5.19551711       3.63052974       6.19792667       14      -0.00365690      -0.00716921      -0.00064866
O        3.43332836       0.62227905       7.72074781       15       0.00365690      -0.00716921       0.00064866
O        5.51840181       4.51237604      -0.00000000       16      -0.00252505      -0.00000000       0.00000000
O        3.11044366       1.50412535       4.63955816       17       0.00252505      -0.00000000      -0.00000000
O        0.23416184       1.50412535      -0.00000000       18       0.00252505       0.00000000       0.00000000
O        2.64211999       4.51237604       4.63955816       19      -0.00252505      -0.00000000      -0.00000000
