20
Lattice="5.39203665355774 2.2311532678619916e-59 -7.41481333567773e-43 -6.316904128124471e-59 5.137353000809907 -3.0477849727115413e-16 1.0203453491729019e-42 4.4019460729954967e-16 7.419929906468224" Properties=species:S:1:pos:R:3:spacegroup_kinds:I:1:forces:R:3 spacegroup="P 1" unit_cell=conventional occupancy="_JSON {\"0\": {\"In\": 1}, \"1\": {\"In\": 1}, \"2\": {\"In\": 1}, \"3\": {\"In\": 1}, \"4\": {\"In\": 1}, \"5\": {\"In\": 1}, \"6\": {\"In\": 1}, \"7\": {\"In\": 1}, \"8\": {\"O\": 1}, \"9\": {\"O\": 1}, \"10\": {\"O\": 1}, \"11\": {\"O\": 1}, \"12\": {\"O\": 1}, \"13\": {\"O\": 1}, \"14\": {\"O\": 1}, \"15\": {\"O\": 1}, \"16\": {\"O\": 1}, \"17\": {\"O\": 1}, \"18\": {\"O\": 1}, \"19\": {\"O\": 1}}" n_minim_iter=1 energy=-22570.64435540788 stress="-0.3151224096973035 -9.19027010434736e-14 -1.0335716081879563e-13 -9.19027010434736e-14 -0.30236432047597234 6.94835598611065e-13 -1.0335716081879563e-13 6.94835598611065e-13 -0.3021541990978138" free_energy=-22570.64435540788 pbc="T T T"
In       1.35329429       2.70568236       0.89799328        0       0.03075567       0.31169757      -0.30409822
In       1.34272404       0.13700586       2.81197167        1      -0.03075567       0.31169757       0.30409822
In       1.34272404       2.43167064       4.60795823        2      -0.03075567      -0.31169757      -0.30409822
In       1.35329429       5.00034714       6.52193663        3       0.03075567      -0.31169757       0.30409822
In       4.03874237       2.43167064       6.52193663        4      -0.03075567      -0.31169757       0.30409822
In       4.04931261       5.00034714       4.60795823        5       0.03075567      -0.31169757      -0.30409822
In       4.04931261       2.70568236       2.81197167        6       0.03075567       0.31169757       0.30409822
In       4.03874237       0.13700586       0.89799328        7      -0.03075567       0.31169757      -0.30409822
O        2.09103347       3.05690270       6.37216063        8       0.09662611       0.05815591      -0.00354349
O        0.60498486       0.48822620       4.75773423        9      -0.09662611       0.05815591       0.00354349
O        0.60498486       2.08045031       2.66219568       10      -0.09662611      -0.05815591      -0.00354349
O        2.09103347       4.64912681       1.04776928       11       0.09662611      -0.05815591       0.00354349
O        3.30100319       2.08045031       1.04776928       12      -0.09662611      -0.05815591       0.00354349
O        4.78705179       4.64912681       2.66219568       13       0.09662611      -0.05815591      -0.00354349
O        4.78705179       3.05690270       4.75773423       14       0.09662611       0.05815591       0.00354349
O        3.30100319       0.48822620       6.37216063       15      -0.09662611       0.05815591      -0.00354349
O        5.19226335       3.85301475       0.00000000       16      -0.08551419       0.00000000       0.00000000
O        2.89579163       1.28433825       3.70996495       17       0.08551419       0.00000000      -0.00000000
O        0.19977330       1.28433825       0.00000000       18       0.08551419      -0.00000000       0.00000000
O        2.49624502       3.85301475       3.70996495       19      -0.08551419       0.00000000      -0.00000000
20
Lattice="5.416164469889711 2.548275983496269e-59 -7.495173933057285e-43 -6.475112996275588e-59 5.126177731244408 -3.3901596344159224e-16 1.0116547861087398e-42 3.888075452884196e-16 7.402979438126295" Properties=species:S:1:pos:R:3:spacegroup_kinds:I:1:forces:R:3 spacegroup="P 1" unit_cell=conventional occupancy="_JSON {\"0\": {\"In\": 1}, \"1\": {\"In\": 1}, \"2\": {\"In\": 1}, \"3\": {\"In\": 1}, \"4\": {\"In\": 1}, \"5\": {\"In\": 1}, \"6\": {\"In\": 1}, \"7\": {\"In\": 1}, \"8\": {\"O\": 1}, \"9\": {\"O\": 1}, \"10\": {\"O\": 1}, \"11\": {\"O\": 1}, \"12\": {\"O\": 1}, \"13\": {\"O\": 1}, \"14\": {\"O\": 1}, \"15\": {\"O\": 1}, \"16\": {\"O\": 1}, \"17\": {\"O\": 1}, \"18\": {\"O\": 1}, \"19\": {\"O\": 1}}" n_minim_iter=2 energy=-22570.65224778625 stress="-0.30068478452927694 -6.391008966582874e-15 1.2668695571850328e-13 -6.391008966582874e-15 -0.30510264245337565 -7.552983584256495e-14 1.2668695571850328e-13 -7.552983584256495e-14 -0.3050248150257394" free_energy=-22570.65224778625 pbc="T T T"
In       1.35942815       2.70058453       0.89517332        0       0.07938709       0.25094389      -0.28763964
In       1.34865409       0.13749566       2.80631640        1      -0.07938709       0.25094389       0.28763964
In       1.34865409       2.42559320       4.59666304        2      -0.07938709      -0.25094389      -0.28763964
In       1.35942815       4.98868207       6.50780612        3       0.07938709      -0.25094389       0.28763964
In       4.05673632       2.42559320       6.50780612        4      -0.07938709      -0.25094389       0.28763964
In       4.06751038       4.98868207       4.59666304        5       0.07938709      -0.25094389      -0.28763964
In       4.06751038       2.70058453       2.80631640        6       0.07938709       0.25094389       0.28763964
In       4.05673632       0.13749566       0.89517332        7      -0.07938709       0.25094389      -0.28763964
O        2.10063610       3.05040002       6.35759478        8       0.17247241       0.01639124      -0.01247246
O        0.60744614       0.48731115       4.74687437        9      -0.17247241       0.01639124       0.01247246
O        0.60744614       2.07577772       2.65610507       10      -0.17247241      -0.01639124      -0.01247246
O        2.10063610       4.63886658       1.04538465       11       0.17247241      -0.01639124       0.01247246
O        3.31552837       2.07577772       1.04538465       12      -0.17247241      -0.01639124       0.01247246
O        4.80871833       4.63886658       2.65610507       13       0.17247241      -0.01639124      -0.01247246
O        4.80871833       3.05040002       4.74687437       14       0.17247241       0.01639124       0.01247246
O        3.31552837       0.48731115       6.35759478       15      -0.17247241       0.01639124      -0.01247246
O        5.21527965       3.84463330       0.00000000       16      -0.07058408      -0.00000000       0.00000000
O        2.90896705       1.28154443       3.70148972       17       0.07058408      -0.00000000       0.00000000
O        0.20088482       1.28154443       0.00000000       18       0.07058408      -0.00000000      -0.00000000
O        2.50719742       3.84463330       3.70148972       19      -0.07058408      -0.00000000      -0.00000000
20
Lattice="5.41410163800038 2.3214879218873007e-59 -7.433496429240999e-43 -6.786165000365652e-59 5.128240988638337 -3.4458353011826235e-16 1.0155733978278952e-42 3.809122313465062e-16 7.402820461042205" Properties=species:S:1:pos:R:3:spacegroup_kinds:I:1:forces:R:3 spacegroup="P 1" unit_cell=conventional occupancy="_JSON {\"0\": {\"In\": 1}, \"1\": {\"In\": 1}, \"2\": {\"In\": 1}, \"3\": {\"In\": 1}, \"4\": {\"In\": 1}, \"5\": {\"In\": 1}, \"6\": {\"In\": 1}, \"7\": {\"In\": 1}, \"8\": {\"O\": 1}, \"9\": {\"O\": 1}, \"10\": {\"O\": 1}, \"11\": {\"O\": 1}, \"12\": {\"O\": 1}, \"13\": {\"O\": 1}, \"14\": {\"O\": 1}, \"15\": {\"O\": 1}, \"16\": {\"O\": 1}, \"17\": {\"O\": 1}, \"18\": {\"O\": 1}, \"19\": {\"O\": 1}}" n_minim_iter=3 energy=-22570.671873998806 stress="-0.2969415374818439 -7.629245089129973e-13 3.157770043984414e-13 -7.629245089129973e-13 -0.30164239069158366 -4.1615572957787385e-13 3.157770043984414e-13 -4.1615572957787385e-13 -0.29619351890385376" free_energy=-22570.671873998806 pbc="T T T"
In       1.36018200       2.70662638       0.88972154        0      -0.03673887       0.12347999      -0.06967889
In       1.34686882       0.14250589       2.81168869        1       0.03673887       0.12347999       0.06967889
In       1.34686882       2.42161460       4.59113177        2       0.03673887      -0.12347999      -0.06967889
In       1.36018200       4.98573510       6.51309892        3      -0.03673887      -0.12347999       0.06967889
In       4.05391964       2.42161460       6.51309892        4       0.03673887      -0.12347999       0.06967889
In       4.06723282       4.98573510       4.59113177        5      -0.03673887      -0.12347999      -0.06967889
In       4.06723282       2.70662638       2.81168869        6      -0.03673887       0.12347999       0.06967889
In       4.05391964       0.14250589       0.88972154        7       0.03673887       0.12347999      -0.06967889
O        2.10273600       3.05212453       6.35726683        8       0.10718151      -0.02154727      -0.18432001
O        0.60431481       0.48800404       4.74696386        9      -0.10718151      -0.02154727       0.18432001
O        0.60431481       2.07611646       2.65585660       10      -0.10718151       0.02154727      -0.18432001
O        2.10273600       4.64023695       1.04555363       11       0.10718151       0.02154727       0.18432001
O        3.31136563       2.07611646       1.04555363       12      -0.10718151       0.02154727       0.18432001
O        4.80978682       4.64023695       2.65585660       13       0.10718151       0.02154727      -0.18432001
O        4.80978682       3.05212453       4.74696386       14       0.10718151      -0.02154727       0.18432001
O        3.31136563       0.48800404       6.35726683       15      -0.10718151      -0.02154727      -0.18432001
O        5.21189475       3.84618074       0.00000000       16      -0.09232941       0.00000000       0.00000000
O        2.90925770       1.28206025       3.70141023       17       0.09232941      -0.00000000       0.00000000
O        0.20220689       1.28206025       0.00000000       18       0.09232941       0.00000000       0.00000000
O        2.50484393       3.84618074       3.70141023       19      -0.09232941      -0.00000000      -0.00000000
20
Lattice="5.412589601964436 3.080315105160453e-59 -7.666138472366655e-43 -5.572356593285326e-59 5.1504344905898 -3.0706265368099574e-16 1.0043146093310821e-42 4.33718230294431e-16 7.372980412149105" Properties=species:S:1:pos:R:3:spacegroup_kinds:I:1:forces:R:3 spacegroup="P 1" unit_cell=conventional occupancy="_JSON {\"0\": {\"In\": 1}, \"1\": {\"In\": 1}, \"2\": {\"In\": 1}, \"3\": {\"In\": 1}, \"4\": {\"In\": 1}, \"5\": {\"In\": 1}, \"6\": {\"In\": 1}, \"7\": {\"In\": 1}, \"8\": {\"O\": 1}, \"9\": {\"O\": 1}, \"10\": {\"O\": 1}, \"11\": {\"O\": 1}, \"12\": {\"O\": 1}, \"13\": {\"O\": 1}, \"14\": {\"O\": 1}, \"15\": {\"O\": 1}, \"16\": {\"O\": 1}, \"17\": {\"O\": 1}, \"18\": {\"O\": 1}, \"19\": {\"O\": 1}}" n_minim_iter=4 energy=-22570.67897644374 stress="-0.29431996391085413 1.3359574928151937e-12 -2.239761175709182e-13 1.3359574928151937e-12 -0.29103673415642106 2.501996707593231e-15 -2.239761175709182e-13 2.501996707593231e-15 -0.3001171043273761" free_energy=-22570.67897644374 pbc="T T T"
In       1.36008243       2.72158920       0.88311602        0      -0.05401428       0.13800459       0.00815246
In       1.34621238       0.14637195       2.80337418        1       0.05401428       0.13800459      -0.00815246
In       1.34621238       2.42884529       4.56960623        2       0.05401428      -0.13800459       0.00815246
In       1.36008243       5.00406254       6.48986439        3      -0.05401428      -0.13800459      -0.00815246
In       4.05250718       2.42884529       6.48986439        4       0.05401428      -0.13800459      -0.00815246
In       4.06637723       5.00406254       4.56960623        5      -0.05401428      -0.13800459       0.00815246
In       4.06637723       2.72158920       2.80337418        6      -0.05401428       0.13800459      -0.00815246
In       4.05250718       0.14637195       0.88311602        7       0.05401428       0.13800459       0.00815246
O        2.10421472       3.06544043       6.33023198        8       0.08150847       0.05583465      -0.22695184
O        0.60208008       0.49022318       4.72923864        9      -0.08150847       0.05583465       0.22695184
O        0.60208008       2.08499406       2.64374177       10      -0.08150847      -0.05583465      -0.22695184
O        2.10421472       4.66021131       1.04274843       11       0.08150847      -0.05583465       0.22695184
O        3.30837488       2.08499406       1.04274843       12      -0.08150847      -0.05583465       0.22695184
O        4.81050952       4.66021131       2.64374177       13       0.08150847      -0.05583465      -0.22695184
O        4.81050952       3.06544043       4.72923864       14       0.08150847       0.05583465       0.22695184
O        3.30837488       0.49022318       6.33023198       15      -0.08150847       0.05583465      -0.22695184
O        5.20910426       3.86282587       0.00000000       16      -0.10322535       0.00000000       0.00000000
O        2.90978014       1.28760862       3.68649021       17       0.10322535       0.00000000      -0.00000000
O        0.20348534       1.28760862       0.00000000       18       0.10322535       0.00000000      -0.00000000
O        2.50280946       3.86282587       3.68649021       19      -0.10322535       0.00000000       0.00000000
20
Lattice="5.4079783844916065 3.387271955562067e-59 -7.660476875890768e-43 -4.986394449240513e-59 5.15080836475673 -2.913310552534364e-16 1.0091933859251447e-42 4.568039839679354e-16 7.3787314986126065" Properties=species:S:1:pos:R:3:spacegroup_kinds:I:1:forces:R:3 spacegroup="P 1" unit_cell=conventional occupancy="_JSON {\"0\": {\"In\": 1}, \"1\": {\"In\": 1}, \"2\": {\"In\": 1}, \"3\": {\"In\": 1}, \"4\": {\"In\": 1}, \"5\": {\"In\": 1}, \"6\": {\"In\": 1}, \"7\": {\"In\": 1}, \"8\": {\"O\": 1}, \"9\": {\"O\": 1}, \"10\": {\"O\": 1}, \"11\": {\"O\": 1}, \"12\": {\"O\": 1}, \"13\": {\"O\": 1}, \"14\": {\"O\": 1}, \"15\": {\"O\": 1}, \"16\": {\"O\": 1}, \"17\": {\"O\": 1}, \"18\": {\"O\": 1}, \"19\": {\"O\": 1}}" n_minim_iter=5 energy=-22570.69563698687 stress="-0.28595399922602716 -4.864930375605212e-13 -3.096819768764923e-13 -4.864930375605212e-13 -0.2872193657232168 -1.1571950834510602e-13 -3.096819768764923e-13 -1.1571950834510602e-13 -0.28440604629406463" free_energy=-22570.69563698687 pbc="T T T"
In       1.35838927       2.73173586       0.87692062        0      -0.10804119      -0.04295923       0.16813255
In       1.34559992       0.15633168       2.81244512        1       0.10804119      -0.04295923      -0.16813255
In       1.34559992       2.41907250       4.56628637        2       0.10804119       0.04295923       0.16813255
In       1.35838927       4.99447668       6.50181087        3      -0.10804119       0.04295923      -0.16813255
In       4.04958911       2.41907250       6.50181087        4       0.10804119       0.04295923      -0.16813255
In       4.06237847       4.99447668       4.56628637        5      -0.10804119       0.04295923       0.16813255
In       4.06237847       2.73173586       2.81244512        6      -0.10804119      -0.04295923      -0.16813255
In       4.04958911       0.15633168       0.87692062        7       0.10804119      -0.04295923       0.16813255
O        2.10866337       3.06661503       6.32762736        8       0.01149278       0.03255189      -0.19176802
O        0.59532582       0.49121085       4.74046989        9      -0.01149278       0.03255189       0.19176802
O        0.59532582       2.08419334       2.63826161       10      -0.01149278      -0.03255189      -0.19176802
O        2.10866337       4.65959752       1.05110414       11       0.01149278      -0.03255189       0.19176802
O        3.29931501       2.08419334       1.05110414       12      -0.01149278      -0.03255189       0.19176802
O        4.81265256       4.65959752       2.63826161       13       0.01149278      -0.03255189      -0.19176802
O        4.81265256       3.06661503       4.74046989       14       0.01149278       0.03255189       0.19176802
O        3.29931501       0.49121085       6.32762736       15      -0.01149278       0.03255189      -0.19176802
O        5.19962213       3.86310627       0.00000000       16      -0.06133283      -0.00000000       0.00000000
O        2.91234545       1.28770209       3.68936575       17       0.06133283      -0.00000000      -0.00000000
O        0.20835626       1.28770209       0.00000000       18       0.06133283      -0.00000000       0.00000000
O        2.49563294       3.86310627       3.68936575       19      -0.06133283      -0.00000000      -0.00000000
20
Lattice="5.405492847419585 3.502767779114694e-59 -7.725297179422443e-43 -4.830287718434218e-59 5.155188059862656 -2.8420097972838965e-16 1.007713741258455e-42 4.673284518206211e-16 7.375852729963702" Properties=species:S:1:pos:R:3:spacegroup_kinds:I:1:forces:R:3 spacegroup="P 1" unit_cell=conventional occupancy="_JSON {\"0\": {\"In\": 1}, \"1\": {\"In\": 1}, \"2\": {\"In\": 1}, \"3\": {\"In\": 1}, \"4\": {\"In\": 1}, \"5\": {\"In\": 1}, \"6\": {\"In\": 1}, \"7\": {\"In\": 1}, \"8\": {\"O\": 1}, \"9\": {\"O\": 1}, \"10\": {\"O\": 1}, \"11\": {\"O\": 1}, \"12\": {\"O\": 1}, \"13\": {\"O\": 1}, \"14\": {\"O\": 1}, \"15\": {\"O\": 1}, \"16\": {\"O\": 1}, \"17\": {\"O\": 1}, \"18\": {\"O\": 1}, \"19\": {\"O\": 1}}" n_minim_iter=6 energy=-22570.70125942361 stress="-0.28565981249903594 -5.93963281419318e-13 -5.235453262976019e-13 -5.93963281419318e-13 -0.2857897950025602 -8.514556230828945e-13 -5.235453262976019e-13 -8.514556230828945e-13 -0.28432272236349615" free_energy=-22570.70125942361 pbc="T T T"
In       1.35648760       2.73539965       0.87728629        0      -0.05464194      -0.01241591       0.08123863
In       1.34625882       0.15780562       2.81064008        1       0.05464194      -0.01241591      -0.08123863
In       1.34625882       2.41978841       4.56521265        2       0.05464194       0.01241591       0.08123863
In       1.35648760       4.99738244       6.49856644        3      -0.05464194       0.01241591      -0.08123863
In       4.04900525       2.41978841       6.49856644        4       0.05464194       0.01241591      -0.08123863
In       4.05923402       4.99738244       4.56521265        5      -0.05464194       0.01241591       0.08123863
In       4.05923402       2.73539965       2.81064008        6      -0.05464194      -0.01241591      -0.08123863
In       4.04900525       0.15780562       0.87728629        7       0.05464194      -0.01241591       0.08123863
O        2.10899230       3.07008195       6.32183611        8       0.01583941       0.06089307      -0.06380435
O        0.59375413       0.49248792       4.74194299        9      -0.01583941       0.06089307       0.06380435
O        0.59375413       2.08510611       2.63390974       10      -0.01583941      -0.06089307      -0.06380435
O        2.10899230       4.66270014       1.05401662       11       0.01583941      -0.06089307       0.06380435
O        3.29650055       2.08510611       1.05401662       12      -0.01583941      -0.06089307       0.06380435
O        4.81173872       4.66270014       2.63390974       13       0.01583941      -0.06089307      -0.06380435
O        4.81173872       3.07008195       4.74194299       14       0.01583941       0.06089307       0.06380435
O        3.29650055       0.49248792       6.32183611       15      -0.01583941       0.06089307      -0.06380435
O        5.19564082       3.86639104       0.00000000       16      -0.02875297      -0.00000000       0.00000000
O        2.91259846       1.28879701       3.68792636       17       0.02875297      -0.00000000      -0.00000000
O        0.20985203       1.28879701       0.00000000       18       0.02875297       0.00000000      -0.00000000
O        2.49289439       3.86639104       3.68792636       19      -0.02875297       0.00000000      -0.00000000
20
Lattice="5.404219550326542 3.69505435213386e-59 -7.734677515957851e-43 -4.473018525543383e-59 5.160409928665347 -2.721670685602418e-16 1.0053674770066708e-42 4.848541796074914e-16 7.370125111434993" Properties=species:S:1:pos:R:3:spacegroup_kinds:I:1:forces:R:3 spacegroup="P 1" unit_cell=conventional occupancy="_JSON {\"0\": {\"In\": 1}, \"1\": {\"In\": 1}, \"2\": {\"In\": 1}, \"3\": {\"In\": 1}, \"4\": {\"In\": 1}, \"5\": {\"In\": 1}, \"6\": {\"In\": 1}, \"7\": {\"In\": 1}, \"8\": {\"O\": 1}, \"9\": {\"O\": 1}, \"10\": {\"O\": 1}, \"11\": {\"O\": 1}, \"12\": {\"O\": 1}, \"13\": {\"O\": 1}, \"14\": {\"O\": 1}, \"15\": {\"O\": 1}, \"16\": {\"O\": 1}, \"17\": {\"O\": 1}, \"18\": {\"O\": 1}, \"19\": {\"O\": 1}}" n_minim_iter=7 energy=-22570.70371546527 stress="-0.2845808456587476 1.4556287353015193e-13 7.467152623243765e-14 1.4556287353015193e-13 -0.2845161161910248 -2.5832467820224726e-13 7.467152623243765e-14 -2.5832467820224726e-13 -0.28467001476570186" free_energy=-22570.70371546527 pbc="T T T"
In       1.35481967       2.73962208       0.87742720        0      -0.00781786       0.00689790       0.00779139
In       1.34729010       0.15941711       2.80763535        1       0.00781786       0.00689790      -0.00779139
In       1.34729010       2.42078785       4.56248976        2       0.00781786      -0.00689790       0.00779139
In       1.35481967       5.00099281       6.49269791        3      -0.00781786      -0.00689790      -0.00779139
In       4.04939988       2.42078785       6.49269791        4       0.00781786      -0.00689790      -0.00779139
In       4.05692945       5.00099281       4.56248976        5      -0.00781786      -0.00689790       0.00779139
In       4.05692945       2.73962208       2.80763535        6      -0.00781786       0.00689790      -0.00779139
In       4.04939988       0.15941711       0.87742720        7       0.00781786       0.00689790       0.00779139
O        2.11008158       3.07519106       6.31427644        8       0.02636813       0.07604409       0.03702108
O        0.59202820       0.49498609       4.74091123        9      -0.02636813       0.07604409      -0.03702108
O        0.59202820       2.08521887       2.62921388       10      -0.02636813      -0.07604409       0.03702108
O        2.11008158       4.66542384       1.05584867       11       0.02636813      -0.07604409      -0.03702108
O        3.29413797       2.08521887       1.05584867       12      -0.02636813      -0.07604409      -0.03702108
O        4.81219135       4.66542384       2.62921388       13       0.02636813      -0.07604409       0.03702108
O        4.81219135       3.07519106       4.74091123       14       0.02636813       0.07604409      -0.03702108
O        3.29413797       0.49498609       6.31427644       15      -0.02636813       0.07604409       0.03702108
O        5.19285738       3.87030745       0.00000000       16      -0.00505113      -0.00000000       0.00000000
O        2.91347195       1.29010248       3.68506256       17       0.00505113      -0.00000000      -0.00000000
O        0.21136217       1.29010248       0.00000000       18       0.00505113       0.00000000       0.00000000
O        2.49074760       3.87030745       3.68506256       19      -0.00505113       0.00000000      -0.00000000
20
Lattice="5.400720848689589 2.5176330006046353e-59 -7.873975310445086e-43 -4.65109341146529e-59 5.17202881218296 -2.560036267004944e-16 9.921785385448227e-43 5.087711938537995e-16 7.358332035884537" Properties=species:S:1:pos:R:3:spacegroup_kinds:I:1:forces:R:3 spacegroup="P 1" unit_cell=conventional occupancy="_JSON {\"0\": {\"In\": 1}, \"1\": {\"In\": 1}, \"2\": {\"In\": 1}, \"3\": {\"In\": 1}, \"4\": {\"In\": 1}, \"5\": {\"In\": 1}, \"6\": {\"In\": 1}, \"7\": {\"In\": 1}, \"8\": {\"O\": 1}, \"9\": {\"O\": 1}, \"10\": {\"O\": 1}, \"11\": {\"O\": 1}, \"12\": {\"O\": 1}, \"13\": {\"O\": 1}, \"14\": {\"O\": 1}, \"15\": {\"O\": 1}, \"16\": {\"O\": 1}, \"17\": {\"O\": 1}, \"18\": {\"O\": 1}, \"19\": {\"O\": 1}}" n_minim_iter=8 energy=-22570.706106311776 stress="-0.2830037314560354 5.042835389452121e-13 4.759018193608182e-14 5.042835389452121e-13 -0.28278135929489584 1.8225490369195514e-12 4.759018193608182e-14 1.8225490369195514e-12 -0.28432068142527284" free_energy=-22570.706106311776 pbc="T T T"
In       1.35131138       2.74851740       0.87766880        0       0.03563828       0.01151756      -0.07137908
In       1.34904905       0.16250299       2.80149722        1      -0.03563828       0.01151756       0.07137908
In       1.34904905       2.42351141       4.55683482        2      -0.03563828      -0.01151756      -0.07137908
In       1.35131138       5.00952582       6.48066324        3       0.03563828      -0.01151756       0.07137908
In       4.04940947       2.42351141       6.48066324        4      -0.03563828      -0.01151756       0.07137908
In       4.05167180       5.00952582       4.55683482        5       0.03563828      -0.01151756      -0.07137908
In       4.05167180       2.74851740       2.80149722        6       0.03563828       0.01151756       0.07137908
In       4.04940947       0.16250299       0.87766880        7      -0.03563828       0.01151756      -0.07137908
O        2.11275568       3.08922480       6.30163577        8       0.03576473       0.06012424       0.12238902
O        0.58760474       0.50321039       4.73586228        9      -0.03576473       0.06012424      -0.12238902
O        0.58760474       2.08280401       2.62246975       10      -0.03576473      -0.06012424       0.12238902
O        2.11275568       4.66881842       1.05669626       11       0.03576473      -0.06012424      -0.12238902
O        3.28796517       2.08280401       1.05669626       12      -0.03576473      -0.06012424      -0.12238902
O        4.81311610       4.66881842       2.62246975       13       0.03576473      -0.06012424       0.12238902
O        4.81311610       3.08922480       4.73586228       14       0.03576473       0.06012424      -0.12238902
O        3.28796517       0.50321039       6.30163577       15      -0.03576473       0.06012424       0.12238902
O        5.18662127       3.87902161       0.00000000       16       0.01731485      -0.00000000      -0.00000000
O        2.91446001       1.29300720       3.67916602       17      -0.01731485      -0.00000000       0.00000000
O        0.21409958       1.29300720       0.00000000       18      -0.01731485       0.00000000      -0.00000000
O        2.48626084       3.87902161       3.67916602       19       0.01731485       0.00000000      -0.00000000
20
Lattice="5.398664786821791 2.5417806019042e-59 -8.254949468162595e-43 -3.810309348009651e-59 5.178116746831134 -2.449161865914074e-16 1.0549649598645636e-42 5.251622174562805e-16 7.352479911757975" Properties=species:S:1:pos:R:3:spacegroup_kinds:I:1:forces:R:3 spacegroup="P 1" unit_cell=conventional occupancy="_JSON {\"0\": {\"In\": 1}, \"1\": {\"In\": 1}, \"2\": {\"In\": 1}, \"3\": {\"In\": 1}, \"4\": {\"In\": 1}, \"5\": {\"In\": 1}, \"6\": {\"In\": 1}, \"7\": {\"In\": 1}, \"8\": {\"O\": 1}, \"9\": {\"O\": 1}, \"10\": {\"O\": 1}, \"11\": {\"O\": 1}, \"12\": {\"O\": 1}, \"13\": {\"O\": 1}, \"14\": {\"O\": 1}, \"15\": {\"O\": 1}, \"16\": {\"O\": 1}, \"17\": {\"O\": 1}, \"18\": {\"O\": 1}, \"19\": {\"O\": 1}}" n_minim_iter=9 energy=-22570.70928004494 stress="-0.2830422879285401 5.670842769099934e-13 6.112354867888154e-14 5.670842769099934e-13 -0.2830538147050346 1.593769742117981e-13 6.112354867888154e-14 1.593769742117981e-13 -0.2827858847228719" free_energy=-22570.70928004494 pbc="T T T"
In       1.34958742       2.75205122       0.87756487        0      -0.01122145      -0.02177912      -0.01060495
In       1.34974497       0.16299285       2.79867508        1       0.01122145      -0.02177912       0.01060495
In       1.34974497       2.42606552       4.55380483        2       0.01122145       0.02177912      -0.01060495
In       1.34958742       5.01512390       6.47491504        3      -0.01122145       0.02177912       0.01060495
In       4.04907737       2.42606552       6.47491504        4       0.01122145       0.02177912       0.01060495
In       4.04891981       5.01512390       4.55380483        5      -0.01122145       0.02177912      -0.01060495
In       4.04891981       2.75205122       2.79867508        6      -0.01122145      -0.02177912       0.01060495
In       4.04907737       0.16299285       0.87756487        7       0.01122145      -0.02177912      -0.01060495
O        2.11519033       3.10019225       6.29959567        8       0.01625279      -0.00671789      -0.00458902
O        0.58414206       0.51113388       4.72912420        9      -0.01625279      -0.00671789       0.00458902
O        0.58414206       2.07792449       2.62335571       10      -0.01625279       0.00671789      -0.00458902
O        2.11519033       4.66698287       1.05288425       11       0.01625279       0.00671789       0.00458902
O        3.28347445       2.07792449       1.05288425       12      -0.01625279       0.00671789       0.00458902
O        4.81452273       4.66698287       2.62335571       13       0.01625279       0.00671789      -0.00458902
O        4.81452273       3.10019225       4.72912420       14       0.01625279      -0.00671789       0.00458902
O        3.28347445       0.51113388       6.29959567       15      -0.01625279      -0.00671789      -0.00458902
O        5.18373488       3.88358756       0.00000000       16       0.00492648      -0.00000000      -0.00000000
O        2.91426230       1.29452919       3.67623996       17      -0.00492648       0.00000000      -0.00000000
O        0.21492990       1.29452919       0.00000000       18      -0.00492648       0.00000000       0.00000000
O        2.48440249       3.88358756       3.67623996       19       0.00492648       0.00000000       0.00000000
20