20
Lattice="5.462800243767485 7.203504990675829e-61 -1.9550817290319706e-43 2.1651241534235105e-60 5.576661122103151 1.3816746316858876e-17 1.0598068162952973e-43 -1.172629414059454e-16 7.801070771451238" Properties=species:S:1:pos:R:3:spacegroup_kinds:I:1:forces:R:3 spacegroup="P 1" unit_cell=conventional occupancy="_JSON {\"0\": {\"In\": 1}, \"1\": {\"In\": 1}, \"2\": {\"In\": 1}, \"3\": {\"In\": 1}, \"4\": {\"In\": 1}, \"5\": {\"In\": 1}, \"6\": {\"In\": 1}, \"7\": {\"In\": 1}, \"8\": {\"O\": 1}, \"9\": {\"O\": 1}, \"10\": {\"O\": 1}, \"11\": {\"O\": 1}, \"12\": {\"O\": 1}, \"13\": {\"O\": 1}, \"14\": {\"O\": 1}, \"15\": {\"O\": 1}, \"16\": {\"O\": 1}, \"17\": {\"O\": 1}, \"18\": {\"O\": 1}, \"19\": {\"O\": 1}}" n_minim_iter=7 energy=-22574.796144212076 stress="-0.02560253727941769 1.2014960538368371e-12 -3.939687591003329e-13 1.2014960538368371e-12 -0.0256178511184066 -4.735094156271655e-13 -3.939687591003329e-13 -4.735094156271655e-13 -0.025606502017943428" free_energy=-22574.796144212076 pbc="T T T"
In       1.35899416       2.95943884       0.89684198        0      -0.00260920       0.00321152      -0.00019226
In       1.37240597       0.17110828       3.00369340        1       0.00260920       0.00321152       0.00019226
In       1.37240597       2.61722228       4.79737737        2       0.00260920      -0.00321152      -0.00019226
In       1.35899416       5.40555284       6.90422879        3      -0.00260920      -0.00321152       0.00019226
In       4.10380609       2.61722228       6.90422879        4       0.00260920      -0.00321152       0.00019226
In       4.09039428       5.40555284       4.79737737        5      -0.00260920      -0.00321152      -0.00019226
In       4.09039428       2.95943884       3.00369340        6      -0.00260920       0.00321152       0.00019226
In       4.10380609       0.17110828       0.89684198        7       0.00260920       0.00321152      -0.00019226
O        2.12670272       3.36705348       6.63334176        8       0.00061884      -0.00020669      -0.00262303
O        0.60469740       0.57872292       5.06826439        9      -0.00061884      -0.00020669       0.00262303
O        0.60469740       2.20960764       2.73280638       10      -0.00061884       0.00020669      -0.00262303
O        2.12670272       4.99793820       1.16772901       11       0.00061884       0.00020669       0.00262303
O        3.33609752       2.20960764       1.16772901       12      -0.00061884       0.00020669       0.00262303
O        4.85810284       4.99793820       2.73280638       13       0.00061884       0.00020669      -0.00262303
O        4.85810284       3.36705348       5.06826439       14       0.00061884      -0.00020669       0.00262303
O        3.33609752       0.57872292       6.63334176       15      -0.00061884      -0.00020669      -0.00262303
O        5.23149079       4.18249584      -0.00000000       16      -0.00031219      -0.00000000      -0.00000000
O        2.96270958       1.39416528       3.90053539       17       0.00031219       0.00000000       0.00000000
O        0.23130946       1.39416528      -0.00000000       18       0.00031219       0.00000000      -0.00000000
O        2.50009067       4.18249584       3.90053539       19      -0.00031219      -0.00000000      -0.00000000
