20
Lattice="5.718572421478262 7.011021553500736e-60 1.6865859775456693e-42 -9.0209526963592e-61 5.8653544453222235 4.169249043256839e-17 -9.295997068098567e-43 2.4016596654905764e-17 9.00032182851549" Properties=species:S:1:pos:R:3:spacegroup_kinds:I:1:forces:R:3 spacegroup="P 1" unit_cell=conventional occupancy="_JSON {\"0\": {\"In\": 1}, \"1\": {\"In\": 1}, \"2\": {\"In\": 1}, \"3\": {\"In\": 1}, \"4\": {\"In\": 1}, \"5\": {\"In\": 1}, \"6\": {\"In\": 1}, \"7\": {\"In\": 1}, \"8\": {\"O\": 1}, \"9\": {\"O\": 1}, \"10\": {\"O\": 1}, \"11\": {\"O\": 1}, \"12\": {\"O\": 1}, \"13\": {\"O\": 1}, \"14\": {\"O\": 1}, \"15\": {\"O\": 1}, \"16\": {\"O\": 1}, \"17\": {\"O\": 1}, \"18\": {\"O\": 1}, \"19\": {\"O\": 1}}" n_minim_iter=19 energy=-22573.57369264046 stress="0.05238895434661012 6.95696216048278e-13 -2.1645491466730063e-13 6.95696216048278e-13 0.05256447556815886 -3.887783863519627e-13 -2.1645491466730063e-13 -3.887783863519627e-13 0.052567143205042015" free_energy=-22573.57369264046 pbc="T T T"
In       1.39642346       3.07940946       1.08890306        0      -0.00033808       0.00485775      -0.00160868
In       1.46286275       0.14673224       3.41125786        1       0.00033808       0.00485775       0.00160868
In       1.46286275       2.78594498       5.58906397        2       0.00033808      -0.00485775      -0.00160868
In       1.39642346       5.71862221       7.91141877        3      -0.00033808      -0.00485775       0.00160868
In       4.32214896       2.78594498       7.91141877        4       0.00033808      -0.00485775       0.00160868
In       4.25570967       5.71862221       5.58906397        5      -0.00033808      -0.00485775      -0.00160868
In       4.25570967       3.07940946       3.41125786        6      -0.00033808       0.00485775       0.00160868
In       4.32214896       0.14673224       1.08890306        7       0.00033808       0.00485775      -0.00160868
O        2.24380923       3.55861232       7.52801092        8       0.00169813       0.00250725      -0.00002601
O        0.61547698       0.62593510       5.97247182        9      -0.00169813       0.00250725       0.00002601
O        0.61547698       2.30674212       3.02785001       10      -0.00169813      -0.00250725      -0.00002601
O        2.24380923       5.23941934       1.47231090       11       0.00169813      -0.00250725       0.00002601
O        3.47476319       2.30674212       1.47231090       12      -0.00169813      -0.00250725       0.00002601
O        5.10309544       5.23941934       3.02785001       13       0.00169813      -0.00250725      -0.00002601
O        5.10309544       3.55861232       5.97247182       14       0.00169813       0.00250725       0.00002601
O        3.47476319       0.62593510       7.52801092       15      -0.00169813       0.00250725      -0.00002601
O        5.44391810       4.39901583      -0.00000000       16      -0.00415027       0.00000000       0.00000000
O        3.13394054       1.46633861       4.50016091       17       0.00415027      -0.00000000      -0.00000000
O        0.27465433       1.46633861      -0.00000000       18       0.00415027       0.00000000       0.00000000
O        2.58463188       4.39901583       4.50016091       19      -0.00415027       0.00000000      -0.00000000
