20
Lattice="5.500610714643958 -6.407083358503424e-61 -1.386861570046499e-43 1.8907740379940137e-60 5.614746933339276 4.905317816436271e-17 1.9925387286475995e-43 -6.904329859267924e-17 7.902865085355679" Properties=species:S:1:pos:R:3:spacegroup_kinds:I:1:forces:R:3 spacegroup="P 1" unit_cell=conventional occupancy="_JSON {\"0\": {\"In\": 1}, \"1\": {\"In\": 1}, \"2\": {\"In\": 1}, \"3\": {\"In\": 1}, \"4\": {\"In\": 1}, \"5\": {\"In\": 1}, \"6\": {\"In\": 1}, \"7\": {\"In\": 1}, \"8\": {\"O\": 1}, \"9\": {\"O\": 1}, \"10\": {\"O\": 1}, \"11\": {\"O\": 1}, \"12\": {\"O\": 1}, \"13\": {\"O\": 1}, \"14\": {\"O\": 1}, \"15\": {\"O\": 1}, \"16\": {\"O\": 1}, \"17\": {\"O\": 1}, \"18\": {\"O\": 1}, \"19\": {\"O\": 1}}" n_minim_iter=1 energy=-22574.79159456861 stress="-0.028925261475402052 -4.348580328121987e-13 1.2613026113901661e-13 -4.348580328121987e-13 -0.02781926270315755 -3.35528197689131e-14 1.2613026113901661e-13 -3.35528197689131e-14 -0.02405024495761535" free_energy=-22574.79159456861 pbc="T T T"
In       1.36681306       2.97388723       0.90520892        0       0.00921035       0.06091439       0.01421305
In       1.38349230       0.16651376       3.04622363        1      -0.00921035       0.06091439      -0.01421305
In       1.38349230       2.64085970       4.85664146        2      -0.00921035      -0.06091439       0.01421305
In       1.36681306       5.44823317       6.99765617        3       0.00921035      -0.06091439      -0.01421305
In       4.13379765       2.64085970       6.99765617        4      -0.00921035      -0.06091439      -0.01421305
In       4.11711842       5.44823317       4.85664146        5       0.00921035      -0.06091439       0.01421305
In       4.11711842       2.97388723       3.04622363        6       0.00921035       0.06091439      -0.01421305
In       4.13379765       0.16651376       0.90520892        7      -0.00921035       0.06091439       0.01421305
O        2.14408207       3.39344321       6.71512380        8      -0.03699357       0.00742229       0.02026604
O        0.60622328       0.58606975       5.13917382        9       0.03699357       0.00742229      -0.02026604
O        0.60622328       2.22130372       2.76369126       10       0.03699357      -0.00742229       0.02026604
O        2.14408207       5.02867719       1.18774128       11      -0.03699357      -0.00742229      -0.02026604
O        3.35652864       2.22130372       1.18774128       12       0.03699357      -0.00742229      -0.02026604
O        4.89438743       5.02867719       2.76369126       13      -0.03699357      -0.00742229       0.02026604
O        4.89438743       3.39344321       5.13917382       14      -0.03699357       0.00742229      -0.02026604
O        3.35652864       0.58606975       6.71512380       15       0.03699357       0.00742229       0.02026604
O        5.26707100       4.21106020      -0.00000000       16       0.04994722       0.00000000       0.00000000
O        2.98384507       1.40368673       3.95143254       17      -0.04994722       0.00000000       0.00000000
O        0.23353971       1.40368673      -0.00000000       18      -0.04994722       0.00000000       0.00000000
O        2.51676565       4.21106020       3.95143254       19       0.04994722       0.00000000       0.00000000
20
Lattice="5.513974430112784 -6.439334176211797e-61 -1.4404970160143235e-43 1.9039418330011736e-60 5.620816440784697 4.8881451909683486e-17 2.0153576773005098e-43 -6.911793398049635e-17 7.875198592110408" Properties=species:S:1:pos:R:3:spacegroup_kinds:I:1:forces:R:3 spacegroup="P 1" unit_cell=conventional occupancy="_JSON {\"0\": {\"In\": 1}, \"1\": {\"In\": 1}, \"2\": {\"In\": 1}, \"3\": {\"In\": 1}, \"4\": {\"In\": 1}, \"5\": {\"In\": 1}, \"6\": {\"In\": 1}, \"7\": {\"In\": 1}, \"8\": {\"O\": 1}, \"9\": {\"O\": 1}, \"10\": {\"O\": 1}, \"11\": {\"O\": 1}, \"12\": {\"O\": 1}, \"13\": {\"O\": 1}, \"14\": {\"O\": 1}, \"15\": {\"O\": 1}, \"16\": {\"O\": 1}, \"17\": {\"O\": 1}, \"18\": {\"O\": 1}, \"19\": {\"O\": 1}}" n_minim_iter=2 energy=-22574.793684120963 stress="-0.026014031466770993 1.4564216735413543e-13 1.1664957751715437e-13 1.4564216735413543e-13 -0.026588475767194218 -7.143688445187088e-14 1.1664957751715437e-13 -7.143688445187088e-14 -0.02650010874519102" free_energy=-22574.793684120963 pbc="T T T"
In       1.37017977       2.97740607       0.90211057        0       0.04027927       0.06170528       0.00050391
In       1.38680745       0.16699785       3.03548872        1      -0.04027927       0.06170528      -0.00050391
In       1.38680745       2.64341037       4.83970987        2      -0.04027927      -0.06170528       0.00050391
In       1.37017977       5.45381859       6.97308802        3       0.04027927      -0.06170528      -0.00050391
In       4.14379466       2.64341037       6.97308802        4      -0.04027927      -0.06170528      -0.00050391
In       4.12716698       5.45381859       4.83970987        5       0.04027927      -0.06170528       0.00050391
In       4.12716698       2.97740607       3.03548872        6       0.04027927       0.06170528      -0.00050391
In       4.14379466       0.16699785       0.90211057        7      -0.04027927       0.06170528       0.00050391
O        2.14910619       3.39714856       6.69171608        8      -0.01282047       0.00767425       0.04074201
O        0.60788102       0.58674034       5.12108181        9       0.01282047       0.00767425      -0.04074201
O        0.60788102       2.22366788       2.75411679       10       0.01282047      -0.00767425       0.04074201
O        2.14910619       5.03407610       1.18348251       11      -0.01282047      -0.00767425      -0.04074201
O        3.36486824       2.22366788       1.18348251       12       0.01282047      -0.00767425      -0.04074201
O        4.90609341       5.03407610       2.75411679       13      -0.01282047      -0.00767425       0.04074201
O        4.90609341       3.39714856       5.12108181       14      -0.01282047       0.00767425      -0.04074201
O        3.36486824       0.58674034       6.69171608       15       0.01282047       0.00767425       0.04074201
O        5.28011701       4.21561233      -0.00000000       16       0.05470789      -0.00000000      -0.00000000
O        2.99084463       1.40520411       3.93759930       17      -0.05470789      -0.00000000      -0.00000000
O        0.23385742       1.40520411      -0.00000000       18      -0.05470789      -0.00000000       0.00000000
O        2.52312980       4.21561233       3.93759930       19       0.05470789       0.00000000      -0.00000000
20
Lattice="5.506805338218527 -7.520850027097024e-61 -1.4419447980526484e-43 1.9070991321734424e-60 5.634843768173676 5.3285639041850273e-17 2.009783023816225e-43 -6.300951926010341e-17 7.865821033442339" Properties=species:S:1:pos:R:3:spacegroup_kinds:I:1:forces:R:3 spacegroup="P 1" unit_cell=conventional occupancy="_JSON {\"0\": {\"In\": 1}, \"1\": {\"In\": 1}, \"2\": {\"In\": 1}, \"3\": {\"In\": 1}, \"4\": {\"In\": 1}, \"5\": {\"In\": 1}, \"6\": {\"In\": 1}, \"7\": {\"In\": 1}, \"8\": {\"O\": 1}, \"9\": {\"O\": 1}, \"10\": {\"O\": 1}, \"11\": {\"O\": 1}, \"12\": {\"O\": 1}, \"13\": {\"O\": 1}, \"14\": {\"O\": 1}, \"15\": {\"O\": 1}, \"16\": {\"O\": 1}, \"17\": {\"O\": 1}, \"18\": {\"O\": 1}, \"19\": {\"O\": 1}}" n_minim_iter=3 energy=-22574.79505014805 stress="-0.026759634557959648 3.267426432112793e-13 -1.7511309742044309e-13 3.267426432112793e-13 -0.02482461510942759 3.5277312072854095e-13 -1.7511309742044309e-13 3.5277312072854095e-13 -0.02636387007258986" free_energy=-22574.79505014805 pbc="T T T"
In       1.36977269       2.98709582       0.90109861        0       0.00641083       0.03865156       0.00032926
In       1.38362998       0.16967394       3.03181191        1      -0.00641083       0.03865156      -0.00032926
In       1.38362998       2.64774794       4.83400913        2      -0.00641083      -0.03865156       0.00032926
In       1.36977269       5.46516983       6.96472242        3       0.00641083      -0.03865156      -0.00032926
In       4.13703264       2.64774794       6.96472242        4      -0.00641083      -0.03865156      -0.00032926
In       4.12317536       5.46516983       4.83400913        5       0.00641083      -0.03865156       0.00032926
In       4.12317536       2.98709582       3.03181191        6       0.00641083       0.03865156      -0.00032926
In       4.13703264       0.16967394       0.90109861        7      -0.00641083       0.03865156       0.00032926
O        2.14576457       3.40590699       6.68515703        8      -0.01216619       0.00230111       0.01720797
O        0.60763809       0.58848510       5.11357452        9       0.01216619       0.00230111      -0.01720797
O        0.60763809       2.22893678       2.75224651       10       0.01216619      -0.00230111       0.01720797
O        2.14576457       5.04635866       1.18066400       11      -0.01216619      -0.00230111      -0.01720797
O        3.36104076       2.22893678       1.18066400       12       0.01216619      -0.00230111      -0.01720797
O        4.89916724       5.04635866       2.75224651       13      -0.01216619      -0.00230111       0.01720797
O        4.89916724       3.40590699       5.11357452       14      -0.01216619       0.00230111      -0.01720797
O        3.36104076       0.58848510       6.68515703       15       0.01216619       0.00230111       0.01720797
O        5.27523955       4.22613283      -0.00000000       16       0.00475603       0.00000000      -0.00000000
O        2.98496846       1.40871094       3.93291052       17      -0.00475603      -0.00000000       0.00000000
O        0.23156579       1.40871094      -0.00000000       18      -0.00475603       0.00000000      -0.00000000
O        2.52183688       4.22613283       3.93291052       19       0.00475603      -0.00000000       0.00000000
20
Lattice="5.512252286223548 -1.0136464321606636e-60 -1.2740050884996174e-43 1.588811664138592e-60 5.628064292892456 4.5108470314589753e-17 2.294172463867444e-43 -7.44430327016356e-17 7.867514077780534" Properties=species:S:1:pos:R:3:spacegroup_kinds:I:1:forces:R:3 spacegroup="P 1" unit_cell=conventional occupancy="_JSON {\"0\": {\"In\": 1}, \"1\": {\"In\": 1}, \"2\": {\"In\": 1}, \"3\": {\"In\": 1}, \"4\": {\"In\": 1}, \"5\": {\"In\": 1}, \"6\": {\"In\": 1}, \"7\": {\"In\": 1}, \"8\": {\"O\": 1}, \"9\": {\"O\": 1}, \"10\": {\"O\": 1}, \"11\": {\"O\": 1}, \"12\": {\"O\": 1}, \"13\": {\"O\": 1}, \"14\": {\"O\": 1}, \"15\": {\"O\": 1}, \"16\": {\"O\": 1}, \"17\": {\"O\": 1}, \"18\": {\"O\": 1}, \"19\": {\"O\": 1}}" n_minim_iter=4 energy=-22574.795604111718 stress="-0.02578952391656146 -1.185836277287069e-12 -6.957426185887139e-13 -1.185836277287069e-12 -0.025816628225085243 6.639240786115932e-14 -6.957426185887139e-13 6.639240786115932e-14 -0.025844083055239588" free_energy=-22574.795604111718 pbc="T T T"
In       1.37172742       2.98470975       0.90132070        0      -0.00097821       0.00278396       0.01694963
In       1.38439872       0.17067760       3.03243634        1       0.00097821       0.00278396      -0.01694963
In       1.38439872       2.64335454       4.83507774        2       0.00097821      -0.00278396       0.01694963
In       1.37172742       5.45738669       6.96619338        3      -0.00097821      -0.00278396      -0.01694963
In       4.14052487       2.64335454       6.96619338        4       0.00097821      -0.00278396      -0.01694963
In       4.12785356       5.45738669       4.83507774        5      -0.00097821      -0.00278396       0.01694963
In       4.12785356       2.98470975       3.03243634        6      -0.00097821       0.00278396      -0.01694963
In       4.14052487       0.17067760       0.90132070        7       0.00097821       0.00278396       0.01694963
O        2.14757096       3.40193952       6.68729287        8      -0.00595235      -0.01287284       0.00214879
O        0.60855518       0.58790738       5.11397824        9       0.00595235      -0.01287284      -0.00214879
O        0.60855518       2.22612477       2.75353583       10       0.00595235       0.01287284       0.00214879
O        2.14757096       5.04015692       1.18022121       11      -0.00595235       0.01287284      -0.00214879
O        3.36468132       2.22612477       1.18022121       12       0.00595235       0.01287284      -0.00214879
O        4.90369711       5.04015692       2.75353583       13      -0.00595235       0.01287284       0.00214879
O        4.90369711       3.40193952       5.11397824       14      -0.00595235      -0.01287284      -0.00214879
O        3.36468132       0.58790738       6.68729287       15       0.00595235      -0.01287284       0.00214879
O        5.28129141       4.22104822      -0.00000000       16      -0.00809997       0.00000000      -0.00000000
O        2.98708702       1.40701607       3.93375704       17       0.00809997      -0.00000000       0.00000000
O        0.23096088       1.40701607      -0.00000000       18       0.00809997       0.00000000      -0.00000000
O        2.52516526       4.22104822       3.93375704       19      -0.00809997       0.00000000       0.00000000
20
Lattice="5.511593723154114 -2.1173762813257655e-60 -1.274597823256102e-43 -4.539473334777237e-62 5.625185940839893 2.2978714421093562e-17 2.296094398376688e-43 -1.0557055807662789e-16 7.872480352614664" Properties=species:S:1:pos:R:3:spacegroup_kinds:I:1:forces:R:3 spacegroup="P 1" unit_cell=conventional occupancy="_JSON {\"0\": {\"In\": 1}, \"1\": {\"In\": 1}, \"2\": {\"In\": 1}, \"3\": {\"In\": 1}, \"4\": {\"In\": 1}, \"5\": {\"In\": 1}, \"6\": {\"In\": 1}, \"7\": {\"In\": 1}, \"8\": {\"O\": 1}, \"9\": {\"O\": 1}, \"10\": {\"O\": 1}, \"11\": {\"O\": 1}, \"12\": {\"O\": 1}, \"13\": {\"O\": 1}, \"14\": {\"O\": 1}, \"15\": {\"O\": 1}, \"16\": {\"O\": 1}, \"17\": {\"O\": 1}, \"18\": {\"O\": 1}, \"19\": {\"O\": 1}}" n_minim_iter=5 energy=-22574.795946067796 stress="-0.02579984252400184 -5.728963142121995e-13 -6.477660624505755e-13 -5.728963142121995e-13 -0.02579309362706923 3.522773155451437e-13 -6.477660624505755e-13 3.522773155451437e-13 -0.025444974760695592" free_energy=-22574.795946067796 pbc="T T T"
In       1.37180902       2.98444606       0.90455735        0      -0.00910338      -0.00159266      -0.00674886
In       1.38398784       0.17185309       3.03168282        1       0.00910338      -0.00159266       0.00674886
In       1.38398784       2.64073988       4.84079753        2       0.00910338       0.00159266      -0.00674886
In       1.37180902       5.45333285       6.96792300        3      -0.00910338       0.00159266       0.00674886
In       4.13978471       2.64073988       6.96792300        4       0.00910338       0.00159266       0.00674886
In       4.12760588       5.45333285       4.84079753        5      -0.00910338       0.00159266      -0.00674886
In       4.12760588       2.98444606       3.03168282        6      -0.00910338      -0.00159266       0.00674886
In       4.13978471       0.17185309       0.90455735        7       0.00910338      -0.00159266      -0.00674886
O        2.14614583       3.39826053       6.69231600        8       0.00024434      -0.00848647       0.01023495
O        0.60965103       0.58566756       5.11640452        9      -0.00024434      -0.00848647      -0.01023495
O        0.60965103       2.22692541       2.75607583       10      -0.00024434       0.00848647       0.01023495
O        2.14614583       5.03951838       1.18016435       11       0.00024434       0.00848647      -0.01023495
O        3.36544789       2.22692541       1.18016435       12      -0.00024434       0.00848647      -0.01023495
O        4.90194269       5.03951838       2.75607583       13       0.00024434       0.00848647       0.01023495
O        4.90194269       3.39826053       5.11640452       14       0.00024434      -0.00848647      -0.01023495
O        3.36544789       0.58566756       6.69231600       15      -0.00024434      -0.00848647       0.01023495
O        5.27996846       4.21888946      -0.00000000       16      -0.01320043      -0.00000000       0.00000000
O        2.98742212       1.40629649       3.93624018       17       0.01320043       0.00000000      -0.00000000
O        0.23162526       1.40629649      -0.00000000       18       0.01320043      -0.00000000       0.00000000
O        2.52417160       4.21888946       3.93624018       19      -0.01320043       0.00000000      -0.00000000
20
Lattice="5.512966060254765 8.676470338957588e-61 -1.9578647631083988e-43 2.6278286728069537e-60 5.626689330814011 2.2912634126967558e-17 9.878842324578563e-44 -1.0567509156180136e-16 7.868417746777593" Properties=species:S:1:pos:R:3:spacegroup_kinds:I:1:forces:R:3 spacegroup="P 1" unit_cell=conventional occupancy="_JSON {\"0\": {\"In\": 1}, \"1\": {\"In\": 1}, \"2\": {\"In\": 1}, \"3\": {\"In\": 1}, \"4\": {\"In\": 1}, \"5\": {\"In\": 1}, \"6\": {\"In\": 1}, \"7\": {\"In\": 1}, \"8\": {\"O\": 1}, \"9\": {\"O\": 1}, \"10\": {\"O\": 1}, \"11\": {\"O\": 1}, \"12\": {\"O\": 1}, \"13\": {\"O\": 1}, \"14\": {\"O\": 1}, \"15\": {\"O\": 1}, \"16\": {\"O\": 1}, \"17\": {\"O\": 1}, \"18\": {\"O\": 1}, \"19\": {\"O\": 1}}" n_minim_iter=6 energy=-22574.79603760534 stress="-0.025434160378978724 3.2536003254311176e-13 1.7254265365376605e-13 3.2536003254311176e-13 -0.025476284797187797 3.429698241114972e-15 1.7254265365376605e-13 3.429698241114972e-15 -0.025902631790662652" free_energy=-22574.79603760534 pbc="T T T"
In       1.37184395       2.98537916       0.90448500        0      -0.00133748       0.00575422      -0.01071497
In       1.38463908       0.17203449       3.02972387        1       0.00133748       0.00575422       0.01071497
In       1.38463908       2.64131017       4.83869388        2       0.00133748      -0.00575422      -0.01071497
In       1.37184395       5.45465484       6.96393274        3      -0.00133748      -0.00575422       0.01071497
In       4.14112211       2.64131017       6.96393274        4       0.00133748      -0.00575422       0.01071497
In       4.12832698       5.45465484       4.83869388        5      -0.00133748      -0.00575422      -0.01071497
In       4.12832698       2.98537916       3.02972387        6      -0.00133748       0.00575422       0.01071497
In       4.14112211       0.17203449       0.90448500        7       0.00133748       0.00575422      -0.01071497
O        2.14646701       3.39835167       6.68939111        8       0.00335068      -0.00286593       0.01217809
O        0.61001602       0.58500701       5.11323551        9      -0.00335068      -0.00286593      -0.01217809
O        0.61001602       2.22833766       2.75518223       10      -0.00335068       0.00286593       0.01217809
O        2.14646701       5.04168232       1.17902664       11       0.00335068       0.00286593      -0.01217809
O        3.36649905       2.22833766       1.17902664       12      -0.00335068       0.00286593      -0.01217809
O        4.90295004       5.04168232       2.75518223       13       0.00335068       0.00286593       0.01217809
O        4.90295004       3.39835167       5.11323551       14       0.00335068      -0.00286593      -0.01217809
O        3.36649905       0.58500701       6.68939111       15      -0.00335068      -0.00286593       0.01217809
O        5.28050184       4.22001700      -0.00000000       16      -0.00507449       0.00000000      -0.00000000
O        2.98894725       1.40667233       3.93420887       17       0.00507449       0.00000000      -0.00000000
O        0.23246422       1.40667233      -0.00000000       18       0.00507449      -0.00000000       0.00000000
O        2.52401881       4.22001700       3.93420887       19      -0.00507449      -0.00000000       0.00000000
20
Lattice="5.5115778268874465 7.26782540287443e-61 -1.9725387395922554e-43 2.184456642009221e-60 5.626455374002731 1.39401166510912e-17 1.0692698778692445e-43 -1.18309987356023e-16 7.870726874731474" Properties=species:S:1:pos:R:3:spacegroup_kinds:I:1:forces:R:3 spacegroup="P 1" unit_cell=conventional occupancy="_JSON {\"0\": {\"In\": 1}, \"1\": {\"In\": 1}, \"2\": {\"In\": 1}, \"3\": {\"In\": 1}, \"4\": {\"In\": 1}, \"5\": {\"In\": 1}, \"6\": {\"In\": 1}, \"7\": {\"In\": 1}, \"8\": {\"O\": 1}, \"9\": {\"O\": 1}, \"10\": {\"O\": 1}, \"11\": {\"O\": 1}, \"12\": {\"O\": 1}, \"13\": {\"O\": 1}, \"14\": {\"O\": 1}, \"15\": {\"O\": 1}, \"16\": {\"O\": 1}, \"17\": {\"O\": 1}, \"18\": {\"O\": 1}, \"19\": {\"O\": 1}}" n_minim_iter=7 energy=-22574.796144212076 stress="-0.02560253727941769 1.2014960538368371e-12 -3.939687591003329e-13 1.2014960538368371e-12 -0.0256178511184066 -4.735094156271655e-13 -3.939687591003329e-13 -4.735094156271655e-13 -0.025606502017943428" free_energy=-22574.796144212076 pbc="T T T"
In       1.37112867       2.98586380       0.90484993        0      -0.00260920       0.00321152      -0.00019226
In       1.38466024       0.17263612       3.03051351        1       0.00260920       0.00321152       0.00019226
In       1.38466024       2.64059157       4.84021336        2       0.00260920      -0.00321152      -0.00019226
In       1.37112867       5.45381926       6.96587695        3      -0.00260920      -0.00321152       0.00019226
In       4.14044915       2.64059157       6.96587695        4       0.00260920      -0.00321152       0.00019226
In       4.12691759       5.45381926       4.84021336        5      -0.00260920      -0.00321152      -0.00019226
In       4.12691759       2.98586380       3.03051351        6      -0.00260920       0.00321152       0.00019226
In       4.14044915       0.17263612       0.90484993        7       0.00260920       0.00321152      -0.00019226
O        2.14569214       3.39711805       6.69257116        8       0.00061884      -0.00020669      -0.00262303
O        0.61009677       0.58389036       5.11351915        9      -0.00061884      -0.00020669       0.00262303
O        0.61009677       2.22933732       2.75720773       10      -0.00061884       0.00020669      -0.00262303
O        2.14569214       5.04256501       1.17815571       11       0.00061884       0.00020669       0.00262303
O        3.36588568       2.22933732       1.17815571       12      -0.00061884       0.00020669       0.00262303
O        4.90148106       5.04256501       2.75720773       13       0.00061884       0.00020669      -0.00262303
O        4.90148106       3.39711805       5.11351915       14       0.00061884      -0.00020669       0.00262303
O        3.36588568       0.58389036       6.69257116       15      -0.00061884      -0.00020669      -0.00262303
O        5.27820300       4.21984153      -0.00000000       16      -0.00031219      -0.00000000      -0.00000000
O        2.98916374       1.40661384       3.93536344       17       0.00031219       0.00000000       0.00000000
O        0.23337483       1.40661384      -0.00000000       18       0.00031219       0.00000000      -0.00000000
O        2.52241408       4.21984153       3.93536344       19      -0.00031219      -0.00000000      -0.00000000
