20
Lattice="5.447628579254792 2.2629897032531576e-59 -7.4763707814011e-43 -6.126228690115029e-59 5.190319136734096 -5.161862833765548e-16 1.030865114983308e-42 4.447330159702498e-16 7.4964294220576715" Properties=species:S:1:pos:R:3:spacegroup_kinds:I:1:forces:R:3 spacegroup="P 1" unit_cell=conventional occupancy="_JSON {\"0\": {\"In\": 1}, \"1\": {\"In\": 1}, \"2\": {\"In\": 1}, \"3\": {\"In\": 1}, \"4\": {\"In\": 1}, \"5\": {\"In\": 1}, \"6\": {\"In\": 1}, \"7\": {\"In\": 1}, \"8\": {\"O\": 1}, \"9\": {\"O\": 1}, \"10\": {\"O\": 1}, \"11\": {\"O\": 1}, \"12\": {\"O\": 1}, \"13\": {\"O\": 1}, \"14\": {\"O\": 1}, \"15\": {\"O\": 1}, \"16\": {\"O\": 1}, \"17\": {\"O\": 1}, \"18\": {\"O\": 1}, \"19\": {\"O\": 1}}" n_minim_iter=16 energy=-22572.238610919718 stress="-0.19615239970337425 8.138711748520088e-13 -3.282522163077459e-14 8.138711748520088e-13 -0.19608806725760333 -3.8559688495783746e-13 -3.282522163077459e-14 -3.8559688495783746e-13 -0.19619673683264763" free_energy=-22572.238610919718 pbc="T T T"
In       1.36724676       2.73357796       0.90725160        0       0.00092475      -0.00219542       0.00034756
In       1.35656753       0.13841839       2.84096311        1      -0.00092475      -0.00219542      -0.00034756
In       1.35656753       2.45674118       4.65546631        2      -0.00092475       0.00219542       0.00034756
In       1.36724676       5.05190075       6.58917783        3       0.00092475       0.00219542      -0.00034756
In       4.08038182       2.45674118       6.58917783        4      -0.00092475       0.00219542      -0.00034756
In       4.09106105       5.05190075       4.65546631        5       0.00092475       0.00219542       0.00034756
In       4.09106105       2.73357796       2.84096311        6       0.00092475      -0.00219542      -0.00034756
In       4.08038182       0.13841839       0.90725160        7      -0.00092475      -0.00219542       0.00034756
O        2.11259203       3.08841938       6.43785764        8       0.00041981       0.00130565      -0.00004083
O        0.61122226       0.49325981       4.80678649        9      -0.00041981       0.00130565       0.00004083
O        0.61122226       2.10189976       2.68964293       10      -0.00041981      -0.00130565      -0.00004083
O        2.11259203       4.69705933       1.05857178       11       0.00041981      -0.00130565       0.00004083
O        3.33503655       2.10189976       1.05857178       12      -0.00041981      -0.00130565       0.00004083
O        4.83640632       4.69705933       2.68964293       13       0.00041981      -0.00130565      -0.00004083
O        4.83640632       3.08841938       4.80678649       14       0.00041981       0.00130565       0.00004083
O        3.33503655       0.49325981       6.43785764       15      -0.00041981       0.00130565      -0.00004083
O        5.24579561       3.89273935       0.00000000       16      -0.00573675       0.00000000       0.00000000
O        2.92564726       1.29757978       3.74821471       17       0.00573675       0.00000000      -0.00000000
O        0.20183297       1.29757978       0.00000000       18       0.00573675      -0.00000000       0.00000000
O        2.52198132       3.89273935       3.74821471       19      -0.00573675      -0.00000000      -0.00000000
