20
Lattice="5.544684478338964 7.350421757482275e-59 -1.981170400463476e-43 -8.270781940212743e-59 5.067715724856572 -4.3454254721799854e-16 2.7770064987619302e-43 6.664260480105053e-16 7.771984088965582" Properties=species:S:1:pos:R:3:spacegroup_kinds:I:1:forces:R:3 spacegroup="P 1" unit_cell=conventional occupancy="_JSON {\"0\": {\"In\": 1}, \"1\": {\"In\": 1}, \"2\": {\"In\": 1}, \"3\": {\"In\": 1}, \"4\": {\"In\": 1}, \"5\": {\"In\": 1}, \"6\": {\"In\": 1}, \"7\": {\"In\": 1}, \"8\": {\"O\": 1}, \"9\": {\"O\": 1}, \"10\": {\"O\": 1}, \"11\": {\"O\": 1}, \"12\": {\"O\": 1}, \"13\": {\"O\": 1}, \"14\": {\"O\": 1}, \"15\": {\"O\": 1}, \"16\": {\"O\": 1}, \"17\": {\"O\": 1}, \"18\": {\"O\": 1}, \"19\": {\"O\": 1}}" n_minim_iter=1 energy=-22573.27380076801 stress="-0.1393332938078848 2.751826688847528e-13 4.447607186221138e-13 2.751826688847528e-13 -0.151208808806909 -6.786844638145466e-13 4.447607186221138e-13 -6.786844638145466e-13 -0.13872551553869794" free_energy=-22573.27380076801 pbc="T T T"
In       1.41207648       2.61121101       0.92864244        0       0.02312109       0.08740710      -0.01406933
In       1.36026576       0.07735314       2.95734960        1      -0.02312109       0.08740710       0.01406933
In       1.36026576       2.45650472       4.81463449        2      -0.02312109      -0.08740710      -0.01406933
In       1.41207648       4.99036258       6.84334164        3       0.02312109      -0.08740710       0.01406933
In       4.13260800       2.45650472       6.84334164        4      -0.02312109      -0.08740710       0.01406933
In       4.18441872       4.99036258       4.81463449        5       0.02312109      -0.08740710      -0.01406933
In       4.18441872       2.61121101       2.95734960        6       0.02312109       0.08740710       0.01406933
In       4.13260800       0.07735314       0.92864244        7      -0.02312109       0.08740710      -0.01406933
O        2.10391464       2.93618933       6.67766406        8       0.04565515       0.02008423       0.08357384
O        0.66842760       0.40233146       4.98031208        9      -0.04565515       0.02008423      -0.08357384
O        0.66842760       2.13152640       2.79167201       10      -0.04565515      -0.02008423       0.08357384
O        2.10391464       4.66538426       1.09432003       11       0.04565515      -0.02008423      -0.08357384
O        3.44076983       2.13152640       1.09432003       12      -0.04565515      -0.02008423      -0.08357384
O        4.87625688       4.66538426       2.79167201       13       0.04565515      -0.02008423       0.08357384
O        4.87625688       2.93618933       4.98031208       14       0.04565515       0.02008423      -0.08357384
O        3.44076983       0.40233146       6.67766406       15      -0.04565515       0.02008423       0.08357384
O        5.38264993       3.80078679       0.00000000       16      -0.00967110       0.00000000      -0.00000000
O        2.93437679       1.26692893       3.88599204       17       0.00967110       0.00000000       0.00000000
O        0.16203455       1.26692893       0.00000000       18       0.00967110      -0.00000000      -0.00000000
O        2.61030769       3.80078679       3.88599204       19      -0.00967110       0.00000000       0.00000000
20
Lattice="5.532946654055856 8.275565051736077e-59 -1.7803447820110434e-43 -8.896708524061104e-59 5.090985792885988 -4.490941389420935e-16 2.6362507594688773e-43 6.452670898678989e-16 7.752872062551533" Properties=species:S:1:pos:R:3:spacegroup_kinds:I:1:forces:R:3 spacegroup="P 1" unit_cell=conventional occupancy="_JSON {\"0\": {\"In\": 1}, \"1\": {\"In\": 1}, \"2\": {\"In\": 1}, \"3\": {\"In\": 1}, \"4\": {\"In\": 1}, \"5\": {\"In\": 1}, \"6\": {\"In\": 1}, \"7\": {\"In\": 1}, \"8\": {\"O\": 1}, \"9\": {\"O\": 1}, \"10\": {\"O\": 1}, \"11\": {\"O\": 1}, \"12\": {\"O\": 1}, \"13\": {\"O\": 1}, \"14\": {\"O\": 1}, \"15\": {\"O\": 1}, \"16\": {\"O\": 1}, \"17\": {\"O\": 1}, \"18\": {\"O\": 1}, \"19\": {\"O\": 1}}" n_minim_iter=2 energy=-22573.28035062844 stress="-0.14188572538068817 -3.690635190560695e-13 -9.713318391255792e-14 -3.690635190560695e-13 -0.14181823251563 2.570800981575884e-13 -9.713318391255792e-14 2.570800981575884e-13 -0.14172797018578653" free_energy=-22573.28035062844 pbc="T T T"
In       1.40914679       2.62342810       0.92632257        0       0.01008878       0.14126937      -0.01685439
In       1.35732654       0.07793520       2.95011347        1      -0.01008878       0.14126937       0.01685439
In       1.35732654       2.46755769       4.80275860        2      -0.01008878      -0.14126937      -0.01685439
In       1.40914679       5.01305059       6.82654950        3       0.01008878      -0.14126937       0.01685439
In       4.12379986       2.46755769       6.82654950        4      -0.01008878      -0.14126937       0.01685439
In       4.17562012       5.01305059       4.80275860        5       0.01008878      -0.14126937      -0.01685439
In       4.17562012       2.62342810       2.95011347        6       0.01008878       0.14126937       0.01685439
In       4.12379986       0.07793520       0.92632257        7      -0.01008878       0.14126937      -0.01685439
O        2.09957847       2.94972393       6.66145846        8       0.02714251       0.08503092       0.07655831
O        0.66689486       0.40423103       4.96784963        9      -0.02714251       0.08503092      -0.07655831
O        0.66689486       2.14126187       2.78502243       10      -0.02714251      -0.08503092       0.07655831
O        2.09957847       4.68675476       1.09141360       11       0.02714251      -0.08503092      -0.07655831
O        3.43336819       2.14126187       1.09141360       12      -0.02714251      -0.08503092      -0.07655831
O        4.86605179       4.68675476       2.78502243       13       0.02714251      -0.08503092       0.07655831
O        4.86605179       2.94972393       4.96784963       14       0.02714251       0.08503092      -0.07655831
O        3.43336819       0.40423103       6.66145846       15      -0.02714251       0.08503092       0.07655831
O        5.37123019       3.81823934       0.00000000       16      -0.01284351      -0.00000000      -0.00000000
O        2.92818979       1.27274645       3.87643603       17       0.01284351       0.00000000       0.00000000
O        0.16171647       1.27274645       0.00000000       18       0.01284351       0.00000000      -0.00000000
O        2.60475686       3.81823934       3.87643603       19      -0.01284351      -0.00000000      -0.00000000
20
Lattice="5.531561944910609 8.20690822014352e-59 -1.899570915245711e-43 -8.821931414772225e-59 5.102742555995134 -4.332831319281018e-16 2.4229282660296397e-43 6.696941158604725e-16 7.736945673522451" Properties=species:S:1:pos:R:3:spacegroup_kinds:I:1:forces:R:3 spacegroup="P 1" unit_cell=conventional occupancy="_JSON {\"0\": {\"In\": 1}, \"1\": {\"In\": 1}, \"2\": {\"In\": 1}, \"3\": {\"In\": 1}, \"4\": {\"In\": 1}, \"5\": {\"In\": 1}, \"6\": {\"In\": 1}, \"7\": {\"In\": 1}, \"8\": {\"O\": 1}, \"9\": {\"O\": 1}, \"10\": {\"O\": 1}, \"11\": {\"O\": 1}, \"12\": {\"O\": 1}, \"13\": {\"O\": 1}, \"14\": {\"O\": 1}, \"15\": {\"O\": 1}, \"16\": {\"O\": 1}, \"17\": {\"O\": 1}, \"18\": {\"O\": 1}, \"19\": {\"O\": 1}}" n_minim_iter=3 energy=-22573.287026742688 stress="-0.13915309511303867 3.024944902340142e-14 -3.804878621608755e-13 3.024944902340142e-14 -0.13826235310373297 -1.22393723731887e-13 -3.804878621608755e-13 -1.22393723731887e-13 -0.13989945075634488" free_energy=-22573.287026742688 pbc="T T T"
In       1.40930102       2.63639669       0.92360565        0      -0.06117674       0.03386470       0.10124314
In       1.35647995       0.08502541       2.94486719        1       0.06117674       0.03386470      -0.10124314
In       1.35647995       2.46634587       4.79207849        2       0.06117674      -0.03386470       0.10124314
In       1.40930102       5.01771715       6.81334002        3      -0.06117674      -0.03386470      -0.10124314
In       4.12226093       2.46634587       6.81334002        4       0.06117674      -0.03386470      -0.10124314
In       4.17508199       5.01771715       4.79207849        5      -0.06117674      -0.03386470       0.10124314
In       4.17508199       2.63639669       2.94486719        6      -0.06117674       0.03386470      -0.10124314
In       4.12226093       0.08502541       0.92360565        7       0.06117674       0.03386470       0.10124314
O        2.10039599       2.96065397       6.65149622        8       0.01824325       0.04515303      -0.07284531
O        0.66538498       0.40928269       4.95392229        9      -0.01824325       0.04515303       0.07284531
O        0.66538498       2.14208859       2.78302338       10      -0.01824325      -0.04515303      -0.07284531
O        2.10039599       4.69345986       1.08544945       11       0.01824325      -0.04515303       0.07284531
O        3.43116595       2.14208859       1.08544945       12      -0.01824325      -0.04515303       0.07284531
O        4.86617697       4.69345986       2.78302338       13       0.01824325      -0.04515303      -0.07284531
O        4.86617697       2.96065397       4.95392229       14       0.01824325       0.04515303       0.07284531
O        3.43116595       0.40928269       6.65149622       15      -0.01824325       0.04515303      -0.07284531
O        5.36926542       3.82705692       0.00000000       16      -0.09988231       0.00000000      -0.00000000
O        2.92807749       1.27568564       3.86847284       17       0.09988231      -0.00000000       0.00000000
O        0.16229652       1.27568564       0.00000000       18       0.09988231       0.00000000       0.00000000
O        2.60348445       3.82705692       3.86847284       19      -0.09988231       0.00000000      -0.00000000
20
Lattice="5.515018870263421 5.5883697119310265e-59 -2.351772244136829e-43 -3.8360194282151247e-59 5.107156107617942 -4.433973540610854e-16 4.051234977925561e-43 6.561758983207831e-16 7.7534474852731625" Properties=species:S:1:pos:R:3:spacegroup_kinds:I:1:forces:R:3 spacegroup="P 1" unit_cell=conventional occupancy="_JSON {\"0\": {\"In\": 1}, \"1\": {\"In\": 1}, \"2\": {\"In\": 1}, \"3\": {\"In\": 1}, \"4\": {\"In\": 1}, \"5\": {\"In\": 1}, \"6\": {\"In\": 1}, \"7\": {\"In\": 1}, \"8\": {\"O\": 1}, \"9\": {\"O\": 1}, \"10\": {\"O\": 1}, \"11\": {\"O\": 1}, \"12\": {\"O\": 1}, \"13\": {\"O\": 1}, \"14\": {\"O\": 1}, \"15\": {\"O\": 1}, \"16\": {\"O\": 1}, \"17\": {\"O\": 1}, \"18\": {\"O\": 1}, \"19\": {\"O\": 1}}" n_minim_iter=4 energy=-22573.29184441515 stress="-0.14195082269447995 -6.765079345386678e-15 -1.5375790554506783e-13 -6.765079345386678e-15 -0.13874650384126175 9.157658732627346e-13 -1.5375790554506783e-13 9.157658732627346e-13 -0.1330789682402957" free_energy=-22573.29184441515 pbc="T T T"
In       1.40296819       2.64473165       0.92919301        0      -0.07879392      -0.01217574       0.06509867
In       1.35454124       0.09115360       2.94753073        1       0.07879392      -0.01217574      -0.06509867
In       1.35454124       2.46242445       4.80591675        2       0.07879392       0.01217574       0.06509867
In       1.40296819       5.01600251       6.82425448        3      -0.07879392       0.01217574      -0.06509867
In       4.11205068       2.46242445       6.82425448        4       0.07879392       0.01217574      -0.06509867
In       4.16047763       5.01600251       4.80591675        5      -0.07879392       0.01217574       0.06509867
In       4.16047763       2.64473165       2.94753073        6      -0.07879392      -0.01217574      -0.06509867
In       4.11205068       0.09115360       0.92919301        7       0.07879392      -0.01217574       0.06509867
O        2.09587562       2.96774702       6.66531565        8      -0.01015623       0.00593471      -0.03362791
O        0.66163382       0.41416897       4.96485558        9       0.01015623       0.00593471       0.03362791
O        0.66163382       2.13940909       2.78859191       10       0.01015623      -0.00593471      -0.03362791
O        2.09587562       4.69298714       1.08813184       11      -0.01015623      -0.00593471       0.03362791
O        3.41914325       2.13940909       1.08813184       12       0.01015623      -0.00593471       0.03362791
O        4.85338505       4.69298714       2.78859191       13      -0.01015623      -0.00593471      -0.03362791
O        4.85338505       2.96774702       4.96485558       14      -0.01015623       0.00593471       0.03362791
O        3.41914325       0.41416897       6.66531565       15       0.01015623       0.00593471      -0.03362791
O        5.34866873       3.83036708       0.00000000       16      -0.10633992      -0.00000000       0.00000000
O        2.92385957       1.27678903       3.87672374       17       0.10633992       0.00000000      -0.00000000
O        0.16635014       1.27678903       0.00000000       18       0.10633992       0.00000000       0.00000000
O        2.59115930       3.83036708       3.87672374       19      -0.10633992      -0.00000000      -0.00000000
20
Lattice="5.523244950580642 5.0821311153981285e-59 -2.3959131100745353e-43 -4.080162924367144e-59 5.111424588150112 -4.714259902174301e-16 4.0889365180787136e-43 6.123478699228081e-16 7.735434684179587" Properties=species:S:1:pos:R:3:spacegroup_kinds:I:1:forces:R:3 spacegroup="P 1" unit_cell=conventional occupancy="_JSON {\"0\": {\"In\": 1}, \"1\": {\"In\": 1}, \"2\": {\"In\": 1}, \"3\": {\"In\": 1}, \"4\": {\"In\": 1}, \"5\": {\"In\": 1}, \"6\": {\"In\": 1}, \"7\": {\"In\": 1}, \"8\": {\"O\": 1}, \"9\": {\"O\": 1}, \"10\": {\"O\": 1}, \"11\": {\"O\": 1}, \"12\": {\"O\": 1}, \"13\": {\"O\": 1}, \"14\": {\"O\": 1}, \"15\": {\"O\": 1}, \"16\": {\"O\": 1}, \"17\": {\"O\": 1}, \"18\": {\"O\": 1}, \"19\": {\"O\": 1}}" n_minim_iter=5 energy=-22573.296174896157 stress="-0.1350276931245781 -7.915155456445841e-13 6.654248498421656e-13 -7.915155456445841e-13 -0.13924558194785802 2.4609805348067445e-13 6.654248498421656e-13 2.4609805348067445e-13 -0.13548025272091546" free_energy=-22573.296174896157 pbc="T T T"
In       1.40277449       2.65248607       0.93061347        0      -0.00201290      -0.05180081      -0.00376240
In       1.35884799       0.09677378       2.93710387        1       0.00201290      -0.05180081       0.00376240
In       1.35884799       2.45893852       4.79833082        2       0.00201290       0.05180081      -0.00376240
In       1.40277449       5.01465081       6.80482121        3      -0.00201290       0.05180081       0.00376240
In       4.12047046       2.45893852       6.80482121        4       0.00201290       0.05180081       0.00376240
In       4.16439696       5.01465081       4.79833082        5      -0.00201290       0.05180081      -0.00376240
In       4.16439696       2.65248607       2.93710387        6      -0.00201290      -0.05180081       0.00376240
In       4.12047046       0.09677378       0.93061347        7       0.00201290      -0.05180081      -0.00376240
O        2.10056892       2.97445008       6.64936432        8       0.04599658      -0.01038984       0.03817621
O        0.66105355       0.41873779       4.95378770        9      -0.04599658      -0.01038984      -0.03817621
O        0.66105355       2.13697451       2.78164698       10      -0.04599658       0.01038984       0.03817621
O        2.10056892       4.69268680       1.08607036       11       0.04599658       0.01038984      -0.03817621
O        3.42267603       2.13697451       1.08607036       12      -0.04599658       0.01038984      -0.03817621
O        4.86219140       4.69268680       2.78164698       13       0.04599658       0.01038984       0.03817621
O        4.86219140       2.97445008       4.95378770       14       0.04599658      -0.01038984      -0.03817621
O        3.42267603       0.41873779       6.64936432       15      -0.04599658      -0.01038984       0.03817621
O        5.35202198       3.83356844       0.00000000       16      -0.08822824      -0.00000000       0.00000000
O        2.93284545       1.27785615       3.86771734       17       0.08822824       0.00000000       0.00000000
O        0.17122297       1.27785615       0.00000000       18       0.08822824      -0.00000000       0.00000000
O        2.59039950       3.83356844       3.86771734       19      -0.08822824      -0.00000000       0.00000000
20
Lattice="5.518391136581616 4.801966872726243e-59 -2.5122632124400814e-43 -3.9495312370787296e-59 5.120308649890018 -4.671150367748933e-16 4.242868759209564e-43 6.194444194748598e-16 7.728805267100603" Properties=species:S:1:pos:R:3:spacegroup_kinds:I:1:forces:R:3 spacegroup="P 1" unit_cell=conventional occupancy="_JSON {\"0\": {\"In\": 1}, \"1\": {\"In\": 1}, \"2\": {\"In\": 1}, \"3\": {\"In\": 1}, \"4\": {\"In\": 1}, \"5\": {\"In\": 1}, \"6\": {\"In\": 1}, \"7\": {\"In\": 1}, \"8\": {\"O\": 1}, \"9\": {\"O\": 1}, \"10\": {\"O\": 1}, \"11\": {\"O\": 1}, \"12\": {\"O\": 1}, \"13\": {\"O\": 1}, \"14\": {\"O\": 1}, \"15\": {\"O\": 1}, \"16\": {\"O\": 1}, \"17\": {\"O\": 1}, \"18\": {\"O\": 1}, \"19\": {\"O\": 1}}" n_minim_iter=6 energy=-22573.297821840384 stress="-0.13550568739892324 -9.350988291192989e-14 -1.3062477695941907e-12 -9.350988291192989e-14 -0.13622363145175256 9.33135215843579e-13 -1.3062477695941907e-12 9.33135215843579e-13 -0.1357266825354288" free_energy=-22573.297821840384 pbc="T T T"
In       1.40082554       2.65838724       0.93073215        0      -0.00334611      -0.02944380      -0.00686357
In       1.35837003       0.09823291       2.93367048        1       0.00334611      -0.02944380       0.00686357
In       1.35837003       2.46192141       4.79513478        2       0.00334611       0.02944380      -0.00686357
In       1.40082554       5.02207574       6.79807312        3      -0.00334611       0.02944380       0.00686357
In       4.11756560       2.46192141       6.79807312        4       0.00334611       0.02944380       0.00686357
In       4.16002111       5.02207574       4.79513478        5      -0.00334611       0.02944380      -0.00686357
In       4.16002111       2.65838724       2.93367048        6      -0.00334611      -0.02944380       0.00686357
In       4.11756560       0.09823291       0.93073215        7       0.00334611      -0.02944380      -0.00686357
O        2.09978119       2.98107152       6.64418429        8       0.02945959       0.00619087       0.03754307
O        0.65941437       0.42091719       4.94902361        9      -0.02945959       0.00619087      -0.03754306
O        0.65941437       2.13923713       2.77978165       10      -0.02945959      -0.00619087       0.03754307
O        2.09978119       4.69939146       1.08462098       11       0.02945959      -0.00619087      -0.03754306
O        3.41860994       2.13923713       1.08462098       12      -0.02945959      -0.00619087      -0.03754307
O        4.85897676       4.69939146       2.77978165       13       0.02945959      -0.00619087       0.03754307
O        4.85897676       2.98107152       4.94902361       14       0.02945959       0.00619087      -0.03754306
O        3.41860994       0.42091719       6.64418429       15      -0.02945959       0.00619087       0.03754307
O        5.34473163       3.84023149       0.00000000       16      -0.06016642       0.00000000      -0.00000000
O        2.93285508       1.28007716       3.86440263       17       0.06016642       0.00000000      -0.00000000
O        0.17365951       1.28007716       0.00000000       18       0.06016642       0.00000000      -0.00000000
O        2.58553606       3.84023149       3.86440263       19      -0.06016642       0.00000000       0.00000000
20
Lattice="5.515173714641876 2.8520940485100295e-59 -3.4367323346903472e-43 -3.463711335977819e-59 5.126612375104331 -4.980522664572861e-16 4.883243189644663e-43 5.723215888992807e-16 7.7238051220496695" Properties=species:S:1:pos:R:3:spacegroup_kinds:I:1:forces:R:3 spacegroup="P 1" unit_cell=conventional occupancy="_JSON {\"0\": {\"In\": 1}, \"1\": {\"In\": 1}, \"2\": {\"In\": 1}, \"3\": {\"In\": 1}, \"4\": {\"In\": 1}, \"5\": {\"In\": 1}, \"6\": {\"In\": 1}, \"7\": {\"In\": 1}, \"8\": {\"O\": 1}, \"9\": {\"O\": 1}, \"10\": {\"O\": 1}, \"11\": {\"O\": 1}, \"12\": {\"O\": 1}, \"13\": {\"O\": 1}, \"14\": {\"O\": 1}, \"15\": {\"O\": 1}, \"16\": {\"O\": 1}, \"17\": {\"O\": 1}, \"18\": {\"O\": 1}, \"19\": {\"O\": 1}}" n_minim_iter=7 energy=-22573.298743176394 stress="-0.1354385659860086 1.0052946929258576e-13 -1.8760620956012678e-13 1.0052946929258576e-13 -0.1344671480699177 1.1830054557654483e-12 -1.8760620956012678e-13 1.1830054557654483e-12 -0.135295272404755" free_energy=-22573.298743176394 pbc="T T T"
In       1.39906105       2.66323116       0.93121328        0      -0.00737489      -0.01465753       0.00128737
In       1.35852580       0.09992497       2.93068928        1       0.00737489      -0.01465753      -0.00128737
In       1.35852580       2.46338122       4.79311584        2       0.00737489       0.01465753       0.00128737
In       1.39906105       5.02668740       6.79259184        3      -0.00737489       0.01465753      -0.00128737
In       4.11611266       2.46338122       6.79259184        4       0.00737489       0.01465753      -0.00128737
In       4.15664791       5.02668740       4.79311584        5      -0.00737489       0.01465753       0.00128737
In       4.15664791       2.66323116       2.93068928        6      -0.00737489      -0.01465753      -0.00128737
In       4.11611266       0.09992497       0.93121328        7       0.00737489      -0.01465753       0.00128737
O        2.10010390       2.98680107       6.64101240        8       0.00813048       0.01267706       0.02276332
O        0.65748296       0.42349488       4.94469529        9      -0.00813048       0.01267706      -0.02276332
O        0.65748296       2.13981131       2.77910984       10      -0.00813048      -0.01267706       0.02276332
O        2.10010390       4.70311749       1.08279273       11       0.00813048      -0.01267706      -0.02276332
O        3.41506982       2.13981131       1.08279273       12      -0.00813048      -0.01267706      -0.02276332
O        4.85769075       4.70311749       2.77910984       13       0.00813048      -0.01267706       0.02276332
O        4.85769075       2.98680107       4.94469529       14       0.00813048       0.01267706      -0.02276332
O        3.41506982       0.42349488       6.64101240       15      -0.00813048       0.01267706       0.02276332
O        5.33795998       3.84495928       0.00000000       16      -0.01734207      -0.00000000       0.00000000
O        2.93480059       1.28165309       3.86190256       17       0.01734207       0.00000000      -0.00000000
O        0.17721374       1.28165309       0.00000000       18       0.01734207      -0.00000000      -0.00000000
O        2.58037312       3.84495928       3.86190256       19      -0.01734207      -0.00000000       0.00000000
20
Lattice="5.515185500362069 2.809535953200279e-59 -3.4382880188498785e-43 -3.460397799063144e-59 5.127348989330761 -4.913972926921844e-16 4.8803756089870396e-43 5.825047196504406e-16 7.722678988100202" Properties=species:S:1:pos:R:3:spacegroup_kinds:I:1:forces:R:3 spacegroup="P 1" unit_cell=conventional occupancy="_JSON {\"0\": {\"In\": 1}, \"1\": {\"In\": 1}, \"2\": {\"In\": 1}, \"3\": {\"In\": 1}, \"4\": {\"In\": 1}, \"5\": {\"In\": 1}, \"6\": {\"In\": 1}, \"7\": {\"In\": 1}, \"8\": {\"O\": 1}, \"9\": {\"O\": 1}, \"10\": {\"O\": 1}, \"11\": {\"O\": 1}, \"12\": {\"O\": 1}, \"13\": {\"O\": 1}, \"14\": {\"O\": 1}, \"15\": {\"O\": 1}, \"16\": {\"O\": 1}, \"17\": {\"O\": 1}, \"18\": {\"O\": 1}, \"19\": {\"O\": 1}}" n_minim_iter=8 energy=-22573.298993290147 stress="-0.13511686521521798 -2.1184026333284941e-13 -9.35551200597937e-13 -2.1184026333284941e-13 -0.1344325596225718 -5.647827350036448e-13 -9.35551200597937e-13 -5.647827350036448e-13 -0.1350008265348447" free_energy=-22573.298993290147 pbc="T T T"
In       1.39854779       2.66396184       0.93161096        0      -0.00644141      -0.00879289       0.00660985
In       1.35904496       0.10028735       2.92972853        1       0.00644141      -0.00879289      -0.00660985
In       1.35904496       2.46338715       4.79295046        2       0.00644141       0.00879289       0.00660985
In       1.39854779       5.02706164       6.79106803        3      -0.00644141       0.00879289      -0.00660985
In       4.11663771       2.46338715       6.79106803        4       0.00644141       0.00879289      -0.00660985
In       4.15614054       5.02706164       4.79295046        5      -0.00644141       0.00879289       0.00660985
In       4.15614054       2.66396184       2.92972853        6      -0.00644141      -0.00879289      -0.00660985
In       4.11663771       0.10028735       0.93161096        7       0.00644141      -0.00879289       0.00660985
O        2.10086581       2.98822356       6.64080020        8      -0.00060671       0.01114881       0.01254750
O        0.65672694       0.42454906       4.94321828        9       0.00060671       0.01114881      -0.01254750
O        0.65672694       2.13912543       2.77946070       10       0.00060671      -0.01114881       0.01254750
O        2.10086581       4.70279992       1.08187879       11      -0.00060671      -0.01114881      -0.01254750
O        3.41431969       2.13912543       1.08187879       12       0.00060671      -0.01114881      -0.01254750
O        4.85845857       4.70279992       2.77946070       13      -0.00060671      -0.01114881       0.01254750
O        4.85845857       2.98822356       4.94321828       14      -0.00060671       0.01114881      -0.01254750
O        3.41431969       0.42454906       6.64080020       15       0.00060671       0.01114881       0.01254750
O        5.33625598       3.84551174       0.00000000       16       0.00713158      -0.00000000       0.00000000
O        2.93652227       1.28183725       3.86133949       17      -0.00713158       0.00000000       0.00000000
O        0.17892952       1.28183725       0.00000000       18      -0.00713158       0.00000000       0.00000000
O        2.57866323       3.84551174       3.86133949       19       0.00713158      -0.00000000       0.00000000
20
Lattice="5.515914085484868 2.613004757791772e-59 -3.4685767120371028e-43 -3.4884824602011218e-59 5.126532145878787 -4.71616111627621e-16 4.8386995439249326e-43 6.127654384120354e-16 7.722889257938283" Properties=species:S:1:pos:R:3:spacegroup_kinds:I:1:forces:R:3 spacegroup="P 1" unit_cell=conventional occupancy="_JSON {\"0\": {\"In\": 1}, \"1\": {\"In\": 1}, \"2\": {\"In\": 1}, \"3\": {\"In\": 1}, \"4\": {\"In\": 1}, \"5\": {\"In\": 1}, \"6\": {\"In\": 1}, \"7\": {\"In\": 1}, \"8\": {\"O\": 1}, \"9\": {\"O\": 1}, \"10\": {\"O\": 1}, \"11\": {\"O\": 1}, \"12\": {\"O\": 1}, \"13\": {\"O\": 1}, \"14\": {\"O\": 1}, \"15\": {\"O\": 1}, \"16\": {\"O\": 1}, \"17\": {\"O\": 1}, \"18\": {\"O\": 1}, \"19\": {\"O\": 1}}" n_minim_iter=9 energy=-22573.299095319573 stress="-0.134900781889401 1.210281051101701e-14 2.9611173175448296e-13 1.210281051101701e-14 -0.13476272444492712 -1.0464492563086531e-12 2.9611173175448296e-13 -1.0464492563086531e-12 -0.13489818719883528" free_energy=-22573.299095319573 pbc="T T T"
In       1.39846168       2.66329129       0.93191980        0      -0.00399336      -0.00570133       0.00823889
In       1.35949536       0.10002522       2.92952483        1       0.00399336      -0.00570133      -0.00823889
In       1.35949536       2.46324086       4.79336442        2       0.00399336       0.00570133       0.00823889
In       1.39846168       5.02650693       6.79096946        3      -0.00399336       0.00570133      -0.00823889
In       4.11745241       2.46324086       6.79096946        4       0.00399336       0.00570133      -0.00823889
In       4.15641872       5.02650693       4.79336442        5      -0.00399336       0.00570133       0.00823889
In       4.15641872       2.66329129       2.92952483        6      -0.00399336      -0.00570133      -0.00823889
In       4.11745241       0.10002522       0.93191980        7       0.00399336      -0.00570133       0.00823889
O        2.10142431       2.98819254       6.64149436        8      -0.00275790       0.00806202       0.00573785
O        0.65653273       0.42492646       4.94283952        9       0.00275790       0.00806202      -0.00573785
O        0.65653273       2.13833961       2.78004973       10       0.00275790      -0.00806202       0.00573785
O        2.10142431       4.70160568       1.08139489       11      -0.00275790      -0.00806202      -0.00573785
O        3.41448978       2.13833961       1.08139489       12       0.00275790      -0.00806202      -0.00573785
O        4.85938135       4.70160568       2.78004973       13      -0.00275790      -0.00806202       0.00573785
O        4.85938135       2.98819254       4.94283952       14      -0.00275790       0.00806202      -0.00573785
O        3.41448978       0.42492646       6.64149436       15       0.00275790       0.00806202       0.00573785
O        5.33649027       3.84489911       0.00000000       16       0.01658309       0.00000000      -0.00000000
O        2.93738086       1.28163304       3.86144463       17      -0.01658309      -0.00000000       0.00000000
O        0.17942382       1.28163304       0.00000000       18      -0.01658309      -0.00000000       0.00000000
O        2.57853323       3.84489911       3.86144463       19       0.01658309       0.00000000       0.00000000
20