20
Lattice="5.741257475089278 9.960466455559597e-60 7.580528565223069e-43 -7.555159564396423e-60 5.961547353559363 -2.1111557032044435e-17 -1.214128325423508e-42 3.2563673630465766e-17 9.195431775079951" Properties=species:S:1:pos:R:3:spacegroup_kinds:I:1:forces:R:3 spacegroup="P 1" unit_cell=conventional occupancy="_JSON {\"0\": {\"In\": 1}, \"1\": {\"In\": 1}, \"2\": {\"In\": 1}, \"3\": {\"In\": 1}, \"4\": {\"In\": 1}, \"5\": {\"In\": 1}, \"6\": {\"In\": 1}, \"7\": {\"In\": 1}, \"8\": {\"O\": 1}, \"9\": {\"O\": 1}, \"10\": {\"O\": 1}, \"11\": {\"O\": 1}, \"12\": {\"O\": 1}, \"13\": {\"O\": 1}, \"14\": {\"O\": 1}, \"15\": {\"O\": 1}, \"16\": {\"O\": 1}, \"17\": {\"O\": 1}, \"18\": {\"O\": 1}, \"19\": {\"O\": 1}}" n_minim_iter=1 energy=-22572.19825592115 stress="0.09646913346568668 -4.1970583853231197e-13 -9.373447745241196e-14 -4.1970583853231197e-13 0.09668392856139922 -8.19653451174733e-13 -9.373447745241196e-14 -8.19653451174733e-13 0.09567642605804685" free_energy=-22572.19825592115 pbc="T T T"
In       1.37911668       3.16673387       1.13111812        0      -0.01087643       0.02607046       0.01312911
In       1.49151206       0.18596020       3.46659776        1       0.01087643       0.02607046      -0.01312911
In       1.49151206       2.79481348       5.72883401        2       0.01087643      -0.02607046       0.01312911
In       1.37911668       5.77558716       8.06431365        3      -0.01087643      -0.02607046      -0.01312911
In       4.36214079       2.79481348       8.06431365        4       0.01087643      -0.02607046      -0.01312911
In       4.24974542       5.77558716       5.72883401        5      -0.01087643      -0.02607046       0.01312911
In       4.24974542       3.16673387       3.46659776        6      -0.01087643       0.02607046      -0.01312911
In       4.36214079       0.18596020       1.13111812        7       0.01087643       0.02607046       0.01312911
O        2.27874961       3.60773901       7.66786769        8       0.03484108      -0.00979796      -0.03300397
O        0.59187913       0.62696534       6.12527998        9      -0.03484108      -0.00979796       0.03300397
O        0.59187913       2.35380834       3.07015180       10      -0.03484108       0.00979796      -0.03300397
O        2.27874961       5.33458202       1.52756409       11       0.03484108       0.00979796       0.03300397
O        3.46250787       2.35380834       1.52756409       12      -0.03484108       0.00979796       0.03300397
O        5.14937834       5.33458202       3.07015180       13       0.03484108       0.00979796      -0.03300397
O        5.14937834       3.60773901       6.12527998       14       0.03484108      -0.00979796       0.03300397
O        3.46250787       0.62696534       7.66786769       15      -0.03484108      -0.00979796      -0.03300397
O        5.46781501       4.47116052       0.00000000       16       0.01618319       0.00000000       0.00000000
O        3.14407120       1.49038684       4.59771589       17      -0.01618319      -0.00000000      -0.00000000
O        0.27344246       1.49038684       0.00000000       18      -0.01618319       0.00000000       0.00000000
O        2.59718628       4.47116052       4.59771589       19       0.01618319       0.00000000      -0.00000000
20
Lattice="5.739186321014782 1.106960709084364e-59 7.505053876273103e-43 -5.777571595399692e-60 5.956999651128198 -2.573277477203498e-17 -1.2193578078213959e-42 2.5447422443086118e-17 9.205772741873206" Properties=species:S:1:pos:R:3:spacegroup_kinds:I:1:forces:R:3 spacegroup="P 1" unit_cell=conventional occupancy="_JSON {\"0\": {\"In\": 1}, \"1\": {\"In\": 1}, \"2\": {\"In\": 1}, \"3\": {\"In\": 1}, \"4\": {\"In\": 1}, \"5\": {\"In\": 1}, \"6\": {\"In\": 1}, \"7\": {\"In\": 1}, \"8\": {\"O\": 1}, \"9\": {\"O\": 1}, \"10\": {\"O\": 1}, \"11\": {\"O\": 1}, \"12\": {\"O\": 1}, \"13\": {\"O\": 1}, \"14\": {\"O\": 1}, \"15\": {\"O\": 1}, \"16\": {\"O\": 1}, \"17\": {\"O\": 1}, \"18\": {\"O\": 1}, \"19\": {\"O\": 1}}" n_minim_iter=2 energy=-22572.198505269793 stress="0.09615424662539256 2.1185223405454302e-13 4.0052494200511203e-14 2.1185223405454302e-13 0.09579277366701386 -1.7712842082179506e-13 4.0052494200511203e-14 -1.7712842082179506e-13 0.09636970767007126" free_energy=-22572.198505269793 pbc="T T T"
In       1.37855446       3.16447320       1.13246837        0      -0.01444464       0.02346977       0.01939511
In       1.49103870       0.18597337       3.47041800        1       0.01444464       0.02346977      -0.01939511
In       1.49103870       2.79252645       5.73535475        2       0.01444464      -0.02346977       0.01939511
In       1.37855446       5.77102628       8.07330437        3      -0.01444464      -0.02346977      -0.01939511
In       4.36063186       2.79252645       8.07330437        4       0.01444464      -0.02346977      -0.01939511
In       4.24814762       5.77102628       5.73535475        5      -0.01444464      -0.02346977       0.01939511
In       4.24814762       3.16447320       3.47041800        6      -0.01444464       0.02346977      -0.01939511
In       4.36063186       0.18597337       1.13246837        7       0.01444464       0.02346977       0.01939511
O        2.27813482       3.60492862       7.67629416        8       0.03074287      -0.01180155      -0.03343974
O        0.59145834       0.62642880       6.13236496        9      -0.03074287      -0.01180155       0.03343974
O        0.59145834       2.35207103       3.07340778       10      -0.03074287       0.01180155      -0.03343974
O        2.27813482       5.33057085       1.52947859       11       0.03074287       0.01180155       0.03343974
O        3.46105150       2.35207103       1.52947859       12      -0.03074287       0.01180155       0.03343974
O        5.14772798       5.33057085       3.07340778       13       0.03074287       0.01180155      -0.03343974
O        5.14772798       3.60492862       6.13236496       14       0.03074287      -0.01180155       0.03343974
O        3.46105150       0.62642880       7.67629416       15      -0.03074287      -0.01180155      -0.03343974
O        5.46593878       4.46774974       0.00000000       16       0.01361797      -0.00000000      -0.00000000
O        3.14284070       1.48924991       4.60288637       17      -0.01361797      -0.00000000       0.00000000
O        0.27324754       1.48924991       0.00000000       18      -0.01361797      -0.00000000      -0.00000000
O        2.59634562       4.46774974       4.60288637       19       0.01361797       0.00000000      -0.00000000
20
Lattice="5.724064176550339 1.0882038234739445e-59 7.475481262532638e-43 -5.770219121655091e-60 5.96718038849228 -2.720041420533231e-17 -1.2220168462837344e-42 2.3262506284554794e-17 9.214345389392204" Properties=species:S:1:pos:R:3:spacegroup_kinds:I:1:forces:R:3 spacegroup="P 1" unit_cell=conventional occupancy="_JSON {\"0\": {\"In\": 1}, \"1\": {\"In\": 1}, \"2\": {\"In\": 1}, \"3\": {\"In\": 1}, \"4\": {\"In\": 1}, \"5\": {\"In\": 1}, \"6\": {\"In\": 1}, \"7\": {\"In\": 1}, \"8\": {\"O\": 1}, \"9\": {\"O\": 1}, \"10\": {\"O\": 1}, \"11\": {\"O\": 1}, \"12\": {\"O\": 1}, \"13\": {\"O\": 1}, \"14\": {\"O\": 1}, \"15\": {\"O\": 1}, \"16\": {\"O\": 1}, \"17\": {\"O\": 1}, \"18\": {\"O\": 1}, \"19\": {\"O\": 1}}" n_minim_iter=3 energy=-22572.199737865023 stress="0.0943711405008923 -7.29242142344777e-14 4.0733854958594297e-13 -7.29242142344777e-14 0.09649119434870838 -8.607807000050993e-13 4.0733854958594297e-13 -8.607807000050993e-13 0.09616002961844049" free_energy=-22572.199737865023 pbc="T T T"
In       1.37380099       3.17195720       1.13499403        0      -0.02604095       0.02692557      -0.00077079
In       1.48823109       0.18836701       3.47217867        1       0.02604095       0.02692557       0.00077079
In       1.48823109       2.79522319       5.74216672        2       0.02604095      -0.02692557      -0.00077079
In       1.37380099       5.77881338       8.07935136        3      -0.02604095      -0.02692557       0.00077079
In       4.35026318       2.79522319       8.07935136        4       0.02604095      -0.02692557       0.00077079
In       4.23583308       5.77881338       5.74216672        5      -0.02604095      -0.02692557      -0.00077079
In       4.23583308       3.17195720       3.47217867        6      -0.02604095       0.02692557       0.00077079
In       4.35026318       0.18836701       1.13499403        7       0.02604095       0.02692557      -0.00077079
O        2.27486154       3.61014338       7.68060029        8       0.02039325      -0.01062840      -0.01558836
O        0.58717055       0.62655318       6.14091779        9      -0.02039325      -0.01062840       0.01558836
O        0.58717055       2.35703701       3.07342760       10      -0.02039325       0.01062840      -0.01558836
O        2.27486154       5.34062721       1.53374510       11       0.02039325       0.01062840       0.01558836
O        3.44920264       2.35703701       1.53374510       12      -0.02039325       0.01062840       0.01558836
O        5.13689363       5.34062721       3.07342760       13       0.02039325       0.01062840      -0.01558836
O        5.13689363       3.61014338       6.14091779       14       0.02039325      -0.01062840       0.01558836
O        3.44920264       0.62655318       7.68060029       15      -0.02039325      -0.01062840      -0.01558836
O        5.45276763       4.47538529       0.00000000       16       0.02190271      -0.00000000      -0.00000000
O        3.13332863       1.49179510       4.60717269       17      -0.02190271       0.00000000      -0.00000000
O        0.27129654       1.49179510       0.00000000       18      -0.02190271       0.00000000       0.00000000
O        2.59073555       4.47538529       4.60717269       19       0.02190271       0.00000000       0.00000000
20
Lattice="5.733412862191318 1.0886306087804217e-59 7.301709871288313e-43 -5.684401640923625e-60 5.961418588248479 -2.718234871986302e-17 -1.251024345413755e-42 2.3239983139345598e-17 9.20821210833996" Properties=species:S:1:pos:R:3:spacegroup_kinds:I:1:forces:R:3 spacegroup="P 1" unit_cell=conventional occupancy="_JSON {\"0\": {\"In\": 1}, \"1\": {\"In\": 1}, \"2\": {\"In\": 1}, \"3\": {\"In\": 1}, \"4\": {\"In\": 1}, \"5\": {\"In\": 1}, \"6\": {\"In\": 1}, \"7\": {\"In\": 1}, \"8\": {\"O\": 1}, \"9\": {\"O\": 1}, \"10\": {\"O\": 1}, \"11\": {\"O\": 1}, \"12\": {\"O\": 1}, \"13\": {\"O\": 1}, \"14\": {\"O\": 1}, \"15\": {\"O\": 1}, \"16\": {\"O\": 1}, \"17\": {\"O\": 1}, \"18\": {\"O\": 1}, \"19\": {\"O\": 1}}" n_minim_iter=4 energy=-22572.201761132077 stress="0.0951739923294569 -9.81577834988838e-14 3.0428260380564165e-14 -9.81577834988838e-14 0.09513314744541432 1.0957812544639622e-13 3.0428260380564165e-14 1.0957812544639622e-13 0.09524430023938998" free_energy=-22572.201761132077 pbc="T T T"
In       1.37388226       3.17259035       1.13657413        0      -0.01345384       0.01893298      -0.02678314
In       1.49282417       0.19188105       3.46753192        1       0.01345384       0.01893298       0.02678314
In       1.49282417       2.78882824       5.74068019        2       0.01345384      -0.01893298      -0.02678314
In       1.37388226       5.76953754       8.07163798        3      -0.01345384      -0.01893298       0.02678314
In       4.35953060       2.78882824       8.07163798        4       0.01345384      -0.01893298       0.02678314
In       4.24058869       5.76953754       5.74068019        5      -0.01345384      -0.01893298      -0.02678314
In       4.24058869       3.17259035       3.46753192        6      -0.01345384       0.01893298       0.02678314
In       4.35953060       0.19188105       1.13657413        7       0.01345384       0.01893298      -0.02678314
O        2.28323205       3.60499662       7.67072969        8       0.02013316       0.00198064       0.03049446
O        0.58347438       0.62428732       6.14158847        9      -0.02013316       0.00198064      -0.03049446
O        0.58347438       2.35642197       3.06662364       10      -0.02013316      -0.00198064       0.03049446
O        2.28323205       5.33713126       1.53748242       11       0.02013316      -0.00198064      -0.03049446
O        3.45018081       2.35642197       1.53748242       12      -0.02013316      -0.00198064      -0.03049446
O        5.14993848       5.33713126       3.06662364       13       0.02013316      -0.00198064       0.03049446
O        5.14993848       3.60499662       6.14158847       14       0.02013316       0.00198064      -0.03049446
O        3.45018081       0.62428732       7.67072969       15      -0.02013316       0.00198064       0.03049446
O        5.46395335       4.47106394       0.00000000       16       0.02776908      -0.00000000       0.00000000
O        3.13616595       1.49035465       4.60410605       17      -0.02776908       0.00000000      -0.00000000
O        0.26945952       1.49035465       0.00000000       18      -0.02776908       0.00000000      -0.00000000
O        2.59724691       4.47106394       4.60410605       19       0.02776908       0.00000000       0.00000000
20
Lattice="5.73471738113037 1.0597394708055684e-59 7.399035461328929e-43 -5.923944277866122e-60 5.964554457143241 -2.7206344822703254e-17 -1.2719346860166695e-42 2.3179446131324803e-17 9.201277324623575" Properties=species:S:1:pos:R:3:spacegroup_kinds:I:1:forces:R:3 spacegroup="P 1" unit_cell=conventional occupancy="_JSON {\"0\": {\"In\": 1}, \"1\": {\"In\": 1}, \"2\": {\"In\": 1}, \"3\": {\"In\": 1}, \"4\": {\"In\": 1}, \"5\": {\"In\": 1}, \"6\": {\"In\": 1}, \"7\": {\"In\": 1}, \"8\": {\"O\": 1}, \"9\": {\"O\": 1}, \"10\": {\"O\": 1}, \"11\": {\"O\": 1}, \"12\": {\"O\": 1}, \"13\": {\"O\": 1}, \"14\": {\"O\": 1}, \"15\": {\"O\": 1}, \"16\": {\"O\": 1}, \"17\": {\"O\": 1}, \"18\": {\"O\": 1}, \"19\": {\"O\": 1}}" n_minim_iter=5 energy=-22572.203079813542 stress="0.09516334698541477 -3.63442627892912e-13 -2.9148154769437866e-13 -3.63442627892912e-13 0.09495934178170433 -2.804508048967257e-13 -2.9148154769437866e-13 -2.804508048967257e-13 0.09465455686981551" free_energy=-22572.203079813542 pbc="T T T"
In       1.37201165       3.17775595       1.13508922        0      -0.00688719       0.00469843      -0.01155800
In       1.49534704       0.19547872       3.46554945        1       0.00688719       0.00469843       0.01155800
In       1.49534704       2.78679851       5.73572788        2       0.00688719      -0.00469843      -0.01155800
In       1.37201165       5.76907574       8.06618811        3      -0.00688719      -0.00469843       0.01155800
In       4.36270573       2.78679851       8.06618811        4       0.00688719      -0.00469843       0.01155800
In       4.23937034       5.76907574       5.73572788        5      -0.00688719      -0.00469843      -0.01155800
In       4.23937034       3.17775595       3.46554945        6      -0.00688719       0.00469843       0.01155800
In       4.36270573       0.19547872       1.13508922        7       0.00688719       0.00469843      -0.01155800
O        2.28790729       3.60609819       7.66446369        8       0.00894539      -0.00125774       0.02302060
O        0.57945140       0.62382096       6.13745230        9      -0.00894539      -0.00125774      -0.02302060
O        0.57945140       2.35845627       3.06382503       10      -0.00894539       0.00125774       0.02302060
O        2.28790729       5.34073350       1.53681363       11       0.00894539       0.00125774      -0.02302060
O        3.44681009       2.35845627       1.53681363       12      -0.00894539       0.00125774      -0.02302060
O        5.15526598       5.34073350       3.06382503       13       0.00894539       0.00125774       0.02302060
O        5.15526598       3.60609819       6.13745230       14       0.00894539      -0.00125774      -0.02302060
O        3.44681009       0.62382096       7.66446369       15      -0.00894539      -0.00125774       0.02302060
O        5.46852221       4.47341584       0.00000000       16       0.02770173       0.00000000      -0.00000000
O        3.13355386       1.49113861       4.60063866       17      -0.02770173       0.00000000       0.00000000
O        0.26619517       1.49113861       0.00000000       18      -0.02770173      -0.00000000      -0.00000000
O        2.60116352       4.47341584       4.60063866       19       0.02770173       0.00000000       0.00000000
20
Lattice="5.73195694054516 1.1191981715025783e-59 6.614827080132894e-43 -4.752346680612759e-60 5.967255770469927 -2.850596022426587e-17 -1.3969602273141443e-42 2.1185696527619646e-17 9.201541221098983" Properties=species:S:1:pos:R:3:spacegroup_kinds:I:1:forces:R:3 spacegroup="P 1" unit_cell=conventional occupancy="_JSON {\"0\": {\"In\": 1}, \"1\": {\"In\": 1}, \"2\": {\"In\": 1}, \"3\": {\"In\": 1}, \"4\": {\"In\": 1}, \"5\": {\"In\": 1}, \"6\": {\"In\": 1}, \"7\": {\"In\": 1}, \"8\": {\"O\": 1}, \"9\": {\"O\": 1}, \"10\": {\"O\": 1}, \"11\": {\"O\": 1}, \"12\": {\"O\": 1}, \"13\": {\"O\": 1}, \"14\": {\"O\": 1}, \"15\": {\"O\": 1}, \"16\": {\"O\": 1}, \"17\": {\"O\": 1}, \"18\": {\"O\": 1}, \"19\": {\"O\": 1}}" n_minim_iter=6 energy=-22572.203626062998 stress="0.09469820044355275 -3.180043319516492e-13 4.3254954196652504e-13 -3.180043319516492e-13 0.09466305622632468 2.887394681991567e-13 4.3254954196652504e-13 2.887394681991567e-13 0.09458607069056854" free_energy=-22572.203626062998 pbc="T T T"
In       1.36943273       3.18202600       1.13426653        0      -0.00477927      -0.00797363       0.00965698
In       1.49654574       0.19839811       3.46650408        1       0.00477927      -0.00797363      -0.00965698
In       1.49654574       2.78522977       5.73503714        2       0.00477927       0.00797363       0.00965698
In       1.36943273       5.76885766       8.06727469        3      -0.00477927       0.00797363      -0.00965698
In       4.36252421       2.78522977       8.06727469        4       0.00477927       0.00797363      -0.00965698
In       4.23541120       5.76885766       5.73503714        5      -0.00477927       0.00797363       0.00965698
In       4.23541120       3.18202600       3.46650408        6      -0.00477927      -0.00797363      -0.00965698
In       4.36252421       0.19839811       1.13426653        7       0.00477927      -0.00797363       0.00965698
O        2.29020693       3.60708934       7.66501055        8      -0.00410273      -0.00789608       0.00696452
O        0.57577154       0.62346146       6.13730128        9       0.00410273      -0.00789608      -0.00696452
O        0.57577154       2.36016643       3.06423994       10       0.00410273       0.00789608       0.00696452
O        2.29020693       5.34379431       1.53653067       11      -0.00410273       0.00789608      -0.00696452
O        3.44175001       2.36016643       1.53653067       12       0.00410273       0.00789608      -0.00696452
O        5.15618540       5.34379431       3.06423994       13      -0.00410273       0.00789608       0.00696452
O        5.15618540       3.60708934       6.13730128       14      -0.00410273      -0.00789608      -0.00696452
O        3.44175001       0.62346146       7.66501055       15       0.00410273      -0.00789608       0.00696452
O        5.46920538       4.47544183       0.00000000       16       0.02318092       0.00000000       0.00000000
O        3.12873003       1.49181394       4.60077061       17      -0.02318092       0.00000000      -0.00000000
O        0.26275156       1.49181394       0.00000000       18      -0.02318092      -0.00000000       0.00000000
O        2.60322691       4.47544183       4.60077061       19       0.02318092       0.00000000       0.00000000
20
Lattice="5.728818556076002 1.105431332424601e-59 8.555068887709788e-43 -5.979925453684959e-60 5.968207161329793 -2.9830898762795787e-17 -1.02335159629105e-42 1.916285566234537e-17 9.205114426859977" Properties=species:S:1:pos:R:3:spacegroup_kinds:I:1:forces:R:3 spacegroup="P 1" unit_cell=conventional occupancy="_JSON {\"0\": {\"In\": 1}, \"1\": {\"In\": 1}, \"2\": {\"In\": 1}, \"3\": {\"In\": 1}, \"4\": {\"In\": 1}, \"5\": {\"In\": 1}, \"6\": {\"In\": 1}, \"7\": {\"In\": 1}, \"8\": {\"O\": 1}, \"9\": {\"O\": 1}, \"10\": {\"O\": 1}, \"11\": {\"O\": 1}, \"12\": {\"O\": 1}, \"13\": {\"O\": 1}, \"14\": {\"O\": 1}, \"15\": {\"O\": 1}, \"16\": {\"O\": 1}, \"17\": {\"O\": 1}, \"18\": {\"O\": 1}, \"19\": {\"O\": 1}}" n_minim_iter=7 energy=-22572.203828392663 stress="0.09428616010516873 1.0632018766483268e-13 1.2162748314444696e-13 1.0632018766483268e-13 0.09442336949570661 -4.0443717193088975e-13 1.2162748314444696e-13 -4.0443717193088975e-13 0.09468418110131446" free_energy=-22572.203828392663 pbc="T T T"
In       1.36739101       3.18325792       1.13475834        0      -0.00389395      -0.00897810       0.01654033
In       1.49701827       0.19915434       3.46779887        1       0.00389395      -0.00897810      -0.01654033
In       1.49701827       2.78494924       5.73731556        2       0.00389395       0.00897810       0.01654033
In       1.36739101       5.76905282       8.07035608        3      -0.00389395       0.00897810      -0.01654033
In       4.36142755       2.78494924       8.07035608        4       0.00389395       0.00897810      -0.01654033
In       4.23180029       5.76905282       5.73731556        5      -0.00389395       0.00897810       0.01654033
In       4.23180029       3.18325792       3.46779887        6      -0.00389395      -0.00897810      -0.01654033
In       4.36142755       0.19915434       1.13475834        7       0.00389395      -0.00897810       0.01654033
O        2.29017945       3.60684146       7.66904490        8      -0.00831162      -0.01165449      -0.00622594
O        0.57422982       0.62273788       6.13862674        9       0.00831162      -0.01165449       0.00622594
O        0.57422982       2.36136570       3.06648769       10       0.00831162       0.01165449      -0.00622594
O        2.29017945       5.34546929       1.53606953       11      -0.00831162       0.01165449       0.00622594
O        3.43863910       2.36136570       1.53606953       12       0.00831162       0.01165449       0.00622594
O        5.15458873       5.34546929       3.06648769       13      -0.00831162       0.01165449      -0.00622594
O        5.15458873       3.60684146       6.13862674       14      -0.00831162      -0.01165449       0.00622594
O        3.43863910       0.62273788       7.66904490       15       0.00831162      -0.01165449      -0.00622594
O        5.46957633       4.47615537       0.00000000       16       0.00866253      -0.00000000      -0.00000000
O        3.12365151       1.49205179       4.60255721       17      -0.00866253      -0.00000000      -0.00000000
O        0.25924223       1.49205179       0.00000000       18      -0.00866253       0.00000000      -0.00000000
O        2.60516705       4.47615537       4.60255721       19       0.00866253      -0.00000000      -0.00000000
20
Lattice="5.729502077140416 1.1054394943570084e-59 8.849179086420942e-43 -5.625709785167373e-60 5.967531609933604 -2.9830716569932065e-17 -1.1325679755880346e-42 1.916068658651611e-17 9.20505820642319" Properties=species:S:1:pos:R:3:spacegroup_kinds:I:1:forces:R:3 spacegroup="P 1" unit_cell=conventional occupancy="_JSON {\"0\": {\"In\": 1}, \"1\": {\"In\": 1}, \"2\": {\"In\": 1}, \"3\": {\"In\": 1}, \"4\": {\"In\": 1}, \"5\": {\"In\": 1}, \"6\": {\"In\": 1}, \"7\": {\"In\": 1}, \"8\": {\"O\": 1}, \"9\": {\"O\": 1}, \"10\": {\"O\": 1}, \"11\": {\"O\": 1}, \"12\": {\"O\": 1}, \"13\": {\"O\": 1}, \"14\": {\"O\": 1}, \"15\": {\"O\": 1}, \"16\": {\"O\": 1}, \"17\": {\"O\": 1}, \"18\": {\"O\": 1}, \"19\": {\"O\": 1}}" n_minim_iter=8 energy=-22572.20405669747 stress="0.09441173168770418 -4.09015971455775e-13 1.0018707403283385e-13 -4.09015971455775e-13 0.09442779551329185 3.6889613717284224e-14 1.0018707403283385e-13 3.6889613717284224e-14 0.09445588896924834" free_energy=-22572.20405669747 pbc="T T T"
In       1.36712876       3.18194837       1.13611118        0      -0.00132276       0.00120208      -0.00196704
In       1.49762228       0.19818257       3.46641792        1       0.00132276       0.00120208       0.00196704
In       1.49762228       2.78558324       5.73864029        2       0.00132276      -0.00120208      -0.00196704
In       1.36712876       5.76934904       8.06894702        3      -0.00132276      -0.00120208       0.00196704
In       4.36237331       2.78558324       8.06894702        4       0.00132276      -0.00120208       0.00196704
In       4.23187980       5.76934904       5.73864029        5      -0.00132276      -0.00120208      -0.00196704
In       4.23187980       3.18194837       3.46641792        6      -0.00132276       0.00120208       0.00196704
In       4.36237331       0.19818257       1.13611118        7       0.00132276       0.00120208      -0.00196704
O        2.28983393       3.60544490       7.66920348        8      -0.00036221      -0.00693167       0.00038340
O        0.57491710       0.62167910       6.13838383        9       0.00036221      -0.00693167      -0.00038340
O        0.57491710       2.36208671       3.06667438       10       0.00036221       0.00693167       0.00038340
O        2.28983393       5.34585251       1.53585473       11      -0.00036221       0.00693167      -0.00038340
O        3.43966814       2.36208671       1.53585473       12       0.00036221       0.00693167      -0.00038340
O        5.15458497       5.34585251       3.06667438       13      -0.00036221       0.00693167       0.00038340
O        5.15458497       3.60544490       6.13838383       14      -0.00036221      -0.00693167      -0.00038340
O        3.43966814       0.62167910       7.66920348       15       0.00036221      -0.00693167       0.00038340
O        5.47215642       4.47564871       0.00000000       16      -0.00420919       0.00000000      -0.00000000
O        3.12209670       1.49188290       4.60252910       17       0.00420919      -0.00000000       0.00000000
O        0.25734566       1.49188290       0.00000000       18       0.00420919      -0.00000000      -0.00000000
O        2.60740538       4.47564871       4.60252910       19      -0.00420919       0.00000000       0.00000000
