20
Lattice="5.39203665355774 2.239896360231293e-59 -7.400075960101057e-43 -6.063711790295364e-59 5.137353000809907 -5.109187088542051e-16 1.0203453491729022e-42 4.4019460729954967e-16 7.419929906468225" Properties=species:S:1:pos:R:3:spacegroup_kinds:I:1:forces:R:3 spacegroup="P 1" unit_cell=conventional occupancy="_JSON {\"0\": {\"In\": 1}, \"1\": {\"In\": 1}, \"2\": {\"In\": 1}, \"3\": {\"In\": 1}, \"4\": {\"In\": 1}, \"5\": {\"In\": 1}, \"6\": {\"In\": 1}, \"7\": {\"In\": 1}, \"8\": {\"O\": 1}, \"9\": {\"O\": 1}, \"10\": {\"O\": 1}, \"11\": {\"O\": 1}, \"12\": {\"O\": 1}, \"13\": {\"O\": 1}, \"14\": {\"O\": 1}, \"15\": {\"O\": 1}, \"16\": {\"O\": 1}, \"17\": {\"O\": 1}, \"18\": {\"O\": 1}, \"19\": {\"O\": 1}}" n_minim_iter=16 energy=-22572.238610919718 stress="-0.19615239970337425 8.138711748520088e-13 -3.282522163077459e-14 8.138711748520088e-13 -0.19608806725760333 -3.8559688495783746e-13 -3.282522163077459e-14 -3.8559688495783746e-13 -0.19619673683264763" free_energy=-22572.238610919718 pbc="T T T"
In       1.35329429       2.70568236       0.89799328        0       0.00092475      -0.00219542       0.00034756
In       1.34272404       0.13700586       2.81197167        1      -0.00092475      -0.00219542      -0.00034756
In       1.34272404       2.43167064       4.60795823        2      -0.00092475       0.00219542       0.00034756
In       1.35329429       5.00034714       6.52193663        3       0.00092475       0.00219542      -0.00034756
In       4.03874237       2.43167064       6.52193663        4      -0.00092475       0.00219542      -0.00034756
In       4.04931261       5.00034714       4.60795823        5       0.00092475       0.00219542       0.00034756
In       4.04931261       2.70568236       2.81197167        6       0.00092475      -0.00219542      -0.00034756
In       4.03874237       0.13700586       0.89799328        7      -0.00092475      -0.00219542       0.00034756
O        2.09103347       3.05690270       6.37216063        8       0.00041981       0.00130565      -0.00004083
O        0.60498486       0.48822620       4.75773423        9      -0.00041981       0.00130565       0.00004083
O        0.60498486       2.08045031       2.66219568       10      -0.00041981      -0.00130565      -0.00004083
O        2.09103347       4.64912681       1.04776928       11       0.00041981      -0.00130565       0.00004083
O        3.30100319       2.08045031       1.04776928       12      -0.00041981      -0.00130565       0.00004083
O        4.78705179       4.64912681       2.66219568       13       0.00041981      -0.00130565      -0.00004083
O        4.78705179       3.05690270       4.75773423       14       0.00041981       0.00130565       0.00004083
O        3.30100319       0.48822620       6.37216063       15      -0.00041981       0.00130565      -0.00004083
O        5.19226335       3.85301475       0.00000000       16      -0.00573675       0.00000000       0.00000000
O        2.89579163       1.28433825       3.70996495       17       0.00573675       0.00000000      -0.00000000
O        0.19977330       1.28433825       0.00000000       18       0.00573675      -0.00000000       0.00000000
O        2.49624502       3.85301475       3.70996495       19      -0.00573675      -0.00000000      -0.00000000
