20
Lattice="5.3452090969579755 1.0508139351074896e-58 -1.1707321932704333e-42 -2.7484887606940895e-59 5.162757651512345 -3.3507153878679914e-16 5.552796635175738e-43 8.485374993350299e-16 7.215348699786323" Properties=species:S:1:pos:R:3:spacegroup_kinds:I:1:forces:R:3 spacegroup="P 1" unit_cell=conventional occupancy="_JSON {\"0\": {\"In\": 1}, \"1\": {\"In\": 1}, \"2\": {\"In\": 1}, \"3\": {\"In\": 1}, \"4\": {\"In\": 1}, \"5\": {\"In\": 1}, \"6\": {\"In\": 1}, \"7\": {\"In\": 1}, \"8\": {\"O\": 1}, \"9\": {\"O\": 1}, \"10\": {\"O\": 1}, \"11\": {\"O\": 1}, \"12\": {\"O\": 1}, \"13\": {\"O\": 1}, \"14\": {\"O\": 1}, \"15\": {\"O\": 1}, \"16\": {\"O\": 1}, \"17\": {\"O\": 1}, \"18\": {\"O\": 1}, \"19\": {\"O\": 1}}" n_minim_iter=13 energy=-22568.60789209486 stress="-0.3717740111757796 8.895471144221854e-13 -7.080358784676584e-13 8.895471144221854e-13 -0.3717614793235144 -5.373579129746822e-13 -7.080358784676584e-13 -5.373579129746822e-13 -0.37176551441201733" free_energy=-22568.60789209486 pbc="T T T"
In       1.32363407       2.76396123       0.84004222        0       0.00062535       0.00020045      -0.00101185
In       1.34897048       0.18258240       2.76763213        1      -0.00062535       0.00020045       0.00101185
In       1.34897048       2.39879642       4.44771657        2      -0.00062535      -0.00020045      -0.00101185
In       1.32363407       4.98017525       6.37530648        3       0.00062535      -0.00020045       0.00101185
In       4.02157503       2.39879642       6.37530648        4      -0.00062535      -0.00020045       0.00101185
In       3.99623862       4.98017525       4.44771657        5       0.00062535      -0.00020045      -0.00101185
In       3.99623862       2.76396123       2.76763213        6       0.00062535       0.00020045       0.00101185
In       4.02157503       0.18258240       0.84004222        7      -0.00062535       0.00020045      -0.00101185
O        2.13017129       3.11632704       6.15760774        8      -0.00433824       0.00339529      -0.00032271
O        0.54243326       0.53494822       4.66541531        9       0.00433824       0.00339529       0.00032271
O        0.54243326       2.04643061       2.54993339       10       0.00433824      -0.00339529      -0.00032271
O        2.13017129       4.62780943       1.05774096       11      -0.00433824      -0.00339529       0.00032271
O        3.21503781       2.04643061       1.05774096       12       0.00433824      -0.00339529       0.00032271
O        4.80277584       4.62780943       2.54993339       13      -0.00433824      -0.00339529      -0.00032271
O        4.80277584       3.11632704       4.66541531       14      -0.00433824       0.00339529       0.00032271
O        3.21503781       0.53494822       6.15760774       15       0.00433824       0.00339529      -0.00032271
O        5.12235548       3.87206824       0.00000000       16      -0.00554024       0.00000000      -0.00000000
O        2.89545817       1.29068941       3.60767435       17       0.00554024      -0.00000000       0.00000000
O        0.22285362       1.29068941       0.00000000       18       0.00554024       0.00000000      -0.00000000
O        2.44975093       3.87206824       3.60767435       19      -0.00554024       0.00000000      -0.00000000
