20
Lattice="5.868112113409562 -1.1585157898086897e-60 2.9891485847912502e-43 5.256823481533439e-61 5.886538184146403 1.2494810387292903e-17 -4.357030827057411e-43 -1.8155626354145368e-17 8.55345415241043" Properties=species:S:1:pos:R:3:spacegroup_kinds:I:1:forces:R:3 spacegroup="P 1" unit_cell=conventional occupancy="_JSON {\"0\": {\"In\": 1}, \"1\": {\"In\": 1}, \"2\": {\"In\": 1}, \"3\": {\"In\": 1}, \"4\": {\"In\": 1}, \"5\": {\"In\": 1}, \"6\": {\"In\": 1}, \"7\": {\"In\": 1}, \"8\": {\"O\": 1}, \"9\": {\"O\": 1}, \"10\": {\"O\": 1}, \"11\": {\"O\": 1}, \"12\": {\"O\": 1}, \"13\": {\"O\": 1}, \"14\": {\"O\": 1}, \"15\": {\"O\": 1}, \"16\": {\"O\": 1}, \"17\": {\"O\": 1}, \"18\": {\"O\": 1}, \"19\": {\"O\": 1}}" n_minim_iter=1 energy=-22573.539537509052 stress="0.07352905940814713 -1.8146680339128123e-13 1.4642292070321767e-13 -1.8146680339128123e-13 0.07131754227861205 -1.2408415660807228e-13 1.4642292070321767e-13 -1.2408415660807228e-13 0.06976112598450177" free_energy=-22573.539537509052 pbc="T T T"
In       1.45326056       3.08141614       0.99872946        0      -0.01242359       0.01406118       0.00485460
In       1.48079549       0.13814704       3.27799762        1       0.01242359       0.01406118      -0.00485460
In       1.48079549       2.80512205       5.27545654        2       0.01242359      -0.01406118       0.00485460
In       1.45326056       5.74839114       7.55472469        3      -0.01242359      -0.01406118      -0.00485460
In       4.41485155       2.80512205       7.55472469        4       0.01242359      -0.01406118      -0.00485460
In       4.38731662       5.74839114       5.27545654        5      -0.01242359      -0.01406118       0.00485460
In       4.38731662       3.08141614       3.27799762        6      -0.01242359       0.01406118      -0.00485460
In       4.41485155       0.13814704       0.99872946        7       0.01242359       0.01406118       0.00485460
O        2.29640442       3.53675239       7.24423438        8       0.01844162      -0.03076766      -0.05582201
O        0.63765164       0.59348330       5.58594685        9      -0.01844162      -0.03076766       0.05582201
O        0.63765164       2.34978579       2.96750730       10      -0.01844162       0.03076766      -0.05582201
O        2.29640442       5.29305488       1.30921977       11       0.01844162       0.03076766       0.05582201
O        3.57170769       2.34978579       1.30921977       12      -0.01844162       0.03076766       0.05582201
O        5.23046048       5.29305488       2.96750730       13       0.01844162       0.03076766      -0.05582201
O        5.23046048       3.53675239       5.58594685       14       0.01844162      -0.03076766       0.05582201
O        3.57170769       0.59348330       7.24423438       15      -0.01844162      -0.03076766      -0.05582201
O        5.59724190       4.41490364      -0.00000000       16      -0.06156707      -0.00000000      -0.00000000
O        3.20492627       1.47163455       4.27672708       17       0.06156707      -0.00000000       0.00000000
O        0.27087021       1.47163455      -0.00000000       18       0.06156707      -0.00000000       0.00000000
O        2.66318584       4.41490364       4.27672708       19      -0.06156707      -0.00000000      -0.00000000
20
Lattice="5.852171714021091 -1.1588353763729226e-60 2.9771723415803284e-43 5.2114680150789486e-61 5.888292722586481 1.2525111066349566e-17 -4.3731571398326634e-43 -1.8161037810479388e-17 8.57419680164356" Properties=species:S:1:pos:R:3:spacegroup_kinds:I:1:forces:R:3 spacegroup="P 1" unit_cell=conventional occupancy="_JSON {\"0\": {\"In\": 1}, \"1\": {\"In\": 1}, \"2\": {\"In\": 1}, \"3\": {\"In\": 1}, \"4\": {\"In\": 1}, \"5\": {\"In\": 1}, \"6\": {\"In\": 1}, \"7\": {\"In\": 1}, \"8\": {\"O\": 1}, \"9\": {\"O\": 1}, \"10\": {\"O\": 1}, \"11\": {\"O\": 1}, \"12\": {\"O\": 1}, \"13\": {\"O\": 1}, \"14\": {\"O\": 1}, \"15\": {\"O\": 1}, \"16\": {\"O\": 1}, \"17\": {\"O\": 1}, \"18\": {\"O\": 1}, \"19\": {\"O\": 1}}" n_minim_iter=2 energy=-22573.541098601265 stress="0.07063525864608844 6.511241499806533e-13 4.33141871240377e-14 6.511241499806533e-13 0.07121028625380146 3.2279796945930595e-13 4.33141871240377e-14 3.2279796945930595e-13 0.07099404025865064" free_energy=-22573.541098601265 pbc="T T T"
In       1.44925563       3.08239955       1.00117392        0      -0.02765126       0.01794833       0.02054275
In       1.47683022       0.13825319       3.28592448        1       0.02765126       0.01794833      -0.02054275
In       1.47683022       2.80589317       5.28827232        2       0.02765126      -0.01794833       0.02054275
In       1.44925563       5.75003953       7.57302288        3      -0.02765126      -0.01794833      -0.02054275
In       4.40291608       2.80589317       7.57302288        4       0.02765126      -0.01794833      -0.02054275
In       4.37534149       5.75003953       5.28827232        5      -0.02765126      -0.01794833       0.02054275
In       4.37534149       3.08239955       3.28592448        6      -0.02765126       0.01794833      -0.02054275
In       4.40291608       0.13825319       1.00117392        7       0.02765126       0.01794833       0.02054275
O        2.29025132       3.53766440       7.26154362        8       0.00960140      -0.02902223      -0.08166791
O        0.63583454       0.59351803       5.59975158        9      -0.00960140      -0.02902223       0.08166791
O        0.63583454       2.35062833       2.97444522       10      -0.00960140       0.02902223      -0.08166791
O        2.29025132       5.29477469       1.31265318       11       0.00960140       0.02902223       0.08166791
O        3.56192040       2.35062833       1.31265318       12      -0.00960140       0.02902223       0.08166791
O        5.21633717       5.29477469       2.97444522       13       0.00960140       0.02902223      -0.08166791
O        5.21633717       3.53766440       5.59975158       14       0.00960140      -0.02902223       0.08166791
O        3.56192040       0.59351803       7.26154362       15      -0.00960140      -0.02902223      -0.08166791
O        5.58175370       4.41621954      -0.00000000       16      -0.06467923      -0.00000000       0.00000000
O        3.19650388       1.47207318       4.28709840       17       0.06467923      -0.00000000       0.00000000
O        0.27041802       1.47207318      -0.00000000       18       0.06467923      -0.00000000       0.00000000
O        2.65566784       4.41621954       4.28709840       19      -0.06467923       0.00000000      -0.00000000
20
Lattice="5.852585994372254 -1.6285039771625617e-60 2.9685078192668722e-43 5.153392693725216e-61 5.867630276519828 3.2893229067555072e-18 -4.401188643617321e-43 -3.157375881743995e-17 8.603781161595204" Properties=species:S:1:pos:R:3:spacegroup_kinds:I:1:forces:R:3 spacegroup="P 1" unit_cell=conventional occupancy="_JSON {\"0\": {\"In\": 1}, \"1\": {\"In\": 1}, \"2\": {\"In\": 1}, \"3\": {\"In\": 1}, \"4\": {\"In\": 1}, \"5\": {\"In\": 1}, \"6\": {\"In\": 1}, \"7\": {\"In\": 1}, \"8\": {\"O\": 1}, \"9\": {\"O\": 1}, \"10\": {\"O\": 1}, \"11\": {\"O\": 1}, \"12\": {\"O\": 1}, \"13\": {\"O\": 1}, \"14\": {\"O\": 1}, \"15\": {\"O\": 1}, \"16\": {\"O\": 1}, \"17\": {\"O\": 1}, \"18\": {\"O\": 1}, \"19\": {\"O\": 1}}" n_minim_iter=3 energy=-22573.54377443104 stress="0.07083251640342599 4.2898660400414626e-13 -4.786367342279033e-13 4.2898660400414626e-13 0.06761197736871499 4.727411648033023e-13 -4.786367342279033e-13 4.727411648033023e-13 0.07139763489769771" free_energy=-22573.54377443104 pbc="T T T"
In       1.44783801       3.07261972       1.00573792        0      -0.01279492       0.00412454       0.03961029
In       1.47845499       0.13880458       3.29615266        1       0.01279492       0.00412454      -0.03961029
In       1.47845499       2.79501056       5.30762850        2       0.01279492      -0.00412454       0.03961029
In       1.44783801       5.72882569       7.59804324        3      -0.01279492      -0.00412454      -0.03961029
In       4.40474799       2.79501056       7.59804324        4       0.01279492      -0.00412454      -0.03961029
In       4.37413101       5.72882569       5.30762850        5      -0.01279492      -0.00412454       0.03961029
In       4.37413101       3.07261972       3.29615266        6      -0.01279492       0.00412454      -0.03961029
In       4.40474799       0.13880458       1.00573792        7       0.01279492       0.00412454       0.03961029
O        2.29105337       3.52351075       7.28189560        8      -0.00330029      -0.01494571      -0.07421787
O        0.63523963       0.58969561       5.62377614        9       0.00330029      -0.01494571       0.07421787
O        0.63523963       2.34411952       2.98000502       10       0.00330029       0.01494571      -0.07421787
O        2.29105337       5.27793466       1.32188556       11      -0.00330029       0.01494571       0.07421787
O        3.56153263       2.34411952       1.32188556       12       0.00330029       0.01494571       0.07421787
O        5.21734637       5.27793466       2.98000502       13      -0.00330029       0.01494571      -0.07421787
O        5.21734637       3.52351075       5.62377614       14      -0.00330029      -0.01494571       0.07421787
O        3.56153263       0.58969561       7.28189560       15       0.00330029      -0.01494571      -0.07421787
O        5.57833506       4.40072271      -0.00000000       16      -0.02619119      -0.00000000       0.00000000
O        3.20054394       1.46690757       4.30189058       17       0.02619119      -0.00000000       0.00000000
O        0.27425094       1.46690757      -0.00000000       18       0.02619119       0.00000000      -0.00000000
O        2.65204206       4.40072271       4.30189058       19      -0.02619119      -0.00000000       0.00000000
20
Lattice="5.832809681212081 -1.629430726135329e-60 2.540091308087503e-43 4.80944801166401e-61 5.882012927481479 3.29240515685338e-18 -5.320790321114772e-43 -3.1651151961046115e-17 8.611843308754107" Properties=species:S:1:pos:R:3:spacegroup_kinds:I:1:forces:R:3 spacegroup="P 1" unit_cell=conventional occupancy="_JSON {\"0\": {\"In\": 1}, \"1\": {\"In\": 1}, \"2\": {\"In\": 1}, \"3\": {\"In\": 1}, \"4\": {\"In\": 1}, \"5\": {\"In\": 1}, \"6\": {\"In\": 1}, \"7\": {\"In\": 1}, \"8\": {\"O\": 1}, \"9\": {\"O\": 1}, \"10\": {\"O\": 1}, \"11\": {\"O\": 1}, \"12\": {\"O\": 1}, \"13\": {\"O\": 1}, \"14\": {\"O\": 1}, \"15\": {\"O\": 1}, \"16\": {\"O\": 1}, \"17\": {\"O\": 1}, \"18\": {\"O\": 1}, \"19\": {\"O\": 1}}" n_minim_iter=4 energy=-22573.550347260105 stress="0.06821361167502003 -5.497699094756904e-13 7.751602811197707e-13 -5.497699094756904e-13 0.06757023920736813 3.9072256761877074e-14 7.751602811197707e-13 3.9072256761877074e-14 0.06764638652787215" free_energy=-22573.550347260105 pbc="T T T"
In       1.43958134       3.08239101       1.00958856        0       0.00486980       0.02458290       0.03157753
In       1.47682350       0.14138455       3.29633310        1      -0.00486980       0.02458290      -0.03157753
In       1.47682350       2.79962191       5.31551021        2      -0.00486980      -0.02458290       0.03157753
In       1.43958134       5.74062838       7.60225475        3       0.00486980      -0.02458290      -0.03157753
In       4.39322834       2.79962191       7.60225475        4      -0.00486980      -0.02458290      -0.03157753
In       4.35598618       5.74062838       5.31551021        5       0.00486980      -0.02458290       0.03157753
In       4.35598618       3.08239101       3.29633310        6       0.00486980       0.02458290      -0.03157753
In       4.39322834       0.14138455       1.00958856        7      -0.00486980       0.02458290       0.03157753
O        2.28460021       3.52827660       7.27776061        8      -0.00268731       0.00821411      -0.02265419
O        0.63180463       0.58727013       5.64000435        9       0.00268731       0.00821411       0.02265419
O        0.63180463       2.35373633       2.97183896       10       0.00268731      -0.00821411      -0.02265419
O        2.28460021       5.29474279       1.33408270       11      -0.00268731      -0.00821411       0.02265419
O        3.54820947       2.35373633       1.33408270       12       0.00268731      -0.00821411       0.02265419
O        5.20100505       5.29474279       2.97183896       13      -0.00268731      -0.00821411      -0.02265419
O        5.20100505       3.52827660       5.64000435       14      -0.00268731       0.00821411       0.02265419
O        3.54820947       0.58727013       7.27776061       15       0.00268731       0.00821411      -0.02265419
O        5.55113965       4.41150970      -0.00000000       16       0.04498140      -0.00000000       0.00000000
O        3.19807487       1.47050323       4.30592165       17      -0.04498140      -0.00000000      -0.00000000
O        0.28167003       1.47050323      -0.00000000       18      -0.04498140      -0.00000000       0.00000000
O        2.63473481       4.41150970       4.30592165       19       0.04498140       0.00000000      -0.00000000
20
Lattice="5.813902010482427 -1.7098758444322648e-60 2.5550959634067132e-43 4.780972237105887e-61 5.884897347443162 1.4707772574284898e-18 -5.407262663899529e-43 -3.432539091367627e-17 8.63561556822577" Properties=species:S:1:pos:R:3:spacegroup_kinds:I:1:forces:R:3 spacegroup="P 1" unit_cell=conventional occupancy="_JSON {\"0\": {\"In\": 1}, \"1\": {\"In\": 1}, \"2\": {\"In\": 1}, \"3\": {\"In\": 1}, \"4\": {\"In\": 1}, \"5\": {\"In\": 1}, \"6\": {\"In\": 1}, \"7\": {\"In\": 1}, \"8\": {\"O\": 1}, \"9\": {\"O\": 1}, \"10\": {\"O\": 1}, \"11\": {\"O\": 1}, \"12\": {\"O\": 1}, \"13\": {\"O\": 1}, \"14\": {\"O\": 1}, \"15\": {\"O\": 1}, \"16\": {\"O\": 1}, \"17\": {\"O\": 1}, \"18\": {\"O\": 1}, \"19\": {\"O\": 1}}" n_minim_iter=5 energy=-22573.551510696063 stress="0.06560265793553627 -5.644791538488544e-13 -8.68304226585453e-14 -5.644791538488544e-13 0.06637371537219633 -2.1830292336565167e-13 -8.68304226585453e-14 -2.1830292336565167e-13 0.06550814575867583" free_energy=-22573.551510696063 pbc="T T T"
In       1.43278807       3.08645618       1.01556651        0       0.00439962       0.02982849       0.02771704
In       1.47416293       0.14400751       3.30224127        1      -0.00439962       0.02982849      -0.02771704
In       1.47416293       2.79844117       5.33337430        2      -0.00439962      -0.02982849       0.02771704
In       1.43278807       5.74088984       7.62004905        3       0.00439962      -0.02982849      -0.02771704
In       4.38111394       2.79844117       7.62004905        4      -0.00439962      -0.02982849      -0.02771704
In       4.33973908       5.74088984       5.33337430        5       0.00439962      -0.02982849       0.02771704
In       4.33973908       3.08645618       3.30224127        6       0.00439962       0.02982849      -0.02771704
In       4.38111394       0.14400751       1.01556651        7      -0.00439962       0.02982849       0.02771704
O        2.27796154       3.52773468       7.28956218        8      -0.00574230       0.02322761      -0.00572346
O        0.62898947       0.58528601       5.66386118        9       0.00574230       0.02322761       0.00572346
O        0.62898947       2.35716266       2.97175439       10       0.00574230      -0.02322761      -0.00572346
O        2.27796154       5.29961134       1.34605339       11      -0.00574230      -0.02322761       0.00572346
O        3.53594047       2.35716266       1.34605339       12       0.00574230      -0.02322761       0.00572346
O        5.18491254       5.29961134       2.97175439       13      -0.00574230      -0.02322761      -0.00572346
O        5.18491254       3.52773468       5.66386118       14      -0.00574230       0.02322761       0.00572346
O        3.53594047       0.58528601       7.28956218       15       0.00574230       0.02322761      -0.00572346
O        5.52929686       4.41367301      -0.00000000       16       0.07398814      -0.00000000       0.00000000
O        3.19155615       1.47122434       4.31780778       17      -0.07398814       0.00000000      -0.00000000
O        0.28460515       1.47122434      -0.00000000       18      -0.07398814      -0.00000000       0.00000000
O        2.62234586       4.41367301       4.31780778       19       0.07398814       0.00000000       0.00000000
20
Lattice="5.799428916174768 -1.7057911327178498e-60 2.7576409777485036e-43 4.8459103695474604e-61 5.872026274313419 1.4776796260510633e-18 -4.963033107250029e-43 -3.4250316602167865e-17 8.676142576400308" Properties=species:S:1:pos:R:3:spacegroup_kinds:I:1:forces:R:3 spacegroup="P 1" unit_cell=conventional occupancy="_JSON {\"0\": {\"In\": 1}, \"1\": {\"In\": 1}, \"2\": {\"In\": 1}, \"3\": {\"In\": 1}, \"4\": {\"In\": 1}, \"5\": {\"In\": 1}, \"6\": {\"In\": 1}, \"7\": {\"In\": 1}, \"8\": {\"O\": 1}, \"9\": {\"O\": 1}, \"10\": {\"O\": 1}, \"11\": {\"O\": 1}, \"12\": {\"O\": 1}, \"13\": {\"O\": 1}, \"14\": {\"O\": 1}, \"15\": {\"O\": 1}, \"16\": {\"O\": 1}, \"17\": {\"O\": 1}, \"18\": {\"O\": 1}, \"19\": {\"O\": 1}}" n_minim_iter=6 energy=-22573.554432565783 stress="0.06384154569945176 4.68958643866522e-14 3.3160245851611417e-13 4.68958643866522e-14 0.06374834160825173 -1.09956339199934e-13 3.3160245851611417e-13 -1.09956339199934e-13 0.06483523869162494" free_energy=-22573.554432565783 pbc="T T T"
In       1.42845778       3.08421361       1.02578088        0      -0.02046607       0.00402513       0.01697333
In       1.47125667       0.14820047       3.31229040        1       0.02046607       0.00402513      -0.01697333
In       1.47125667       2.78781267       5.36385217        2       0.02046607      -0.00402513       0.01697333
In       1.42845778       5.72382580       7.65036169        3      -0.02046607      -0.00402513      -0.01697333
In       4.37097113       2.78781267       7.65036169        4       0.02046607      -0.00402513      -0.01697333
In       4.32817224       5.72382580       5.36385217        5      -0.02046607      -0.00402513       0.01697333
In       4.32817224       3.08421361       3.31229040        6      -0.02046607       0.00402513      -0.01697333
In       4.37097113       0.14820047       1.02578088        7       0.02046607       0.00402513       0.01697333
O        2.27212737       3.52068546       7.31726668        8      -0.00476458       0.02458145      -0.02048950
O        0.62758708       0.58467233       5.69694718        9       0.00476458       0.02458145       0.02048950
O        0.62758708       2.35134081       2.97919539       10       0.00476458      -0.02458145      -0.02048950
O        2.27212737       5.28735395       1.35887590       11      -0.00476458      -0.02458145       0.02048950
O        3.52730154       2.35134081       1.35887590       12       0.00476458      -0.02458145       0.02048950
O        5.17184183       5.28735395       2.97919539       13      -0.00476458      -0.02458145      -0.02048950
O        5.17184183       3.52068546       5.69694718       14      -0.00476458       0.02458145       0.02048950
O        3.52730154       0.58467233       7.31726668       15       0.00476458       0.02458145      -0.02048950
O        5.52025404       4.40401971      -0.00000000       16       0.02401497       0.00000000      -0.00000000
O        3.17888934       1.46800657       4.33807129       17      -0.02401497      -0.00000000       0.00000000
O        0.27917488       1.46800657      -0.00000000       18      -0.02401497       0.00000000      -0.00000000
O        2.62053958       4.40401971       4.33807129       19       0.02401497       0.00000000       0.00000000
20
Lattice="5.788443088943278 -1.7041578409414495e-60 2.7669856946034833e-43 5.002666300656122e-61 5.869532465628018 1.4811131176069937e-18 -4.033262600050681e-43 -3.423577073111243e-17 8.696302198113253" Properties=species:S:1:pos:R:3:spacegroup_kinds:I:1:forces:R:3 spacegroup="P 1" unit_cell=conventional occupancy="_JSON {\"0\": {\"In\": 1}, \"1\": {\"In\": 1}, \"2\": {\"In\": 1}, \"3\": {\"In\": 1}, \"4\": {\"In\": 1}, \"5\": {\"In\": 1}, \"6\": {\"In\": 1}, \"7\": {\"In\": 1}, \"8\": {\"O\": 1}, \"9\": {\"O\": 1}, \"10\": {\"O\": 1}, \"11\": {\"O\": 1}, \"12\": {\"O\": 1}, \"13\": {\"O\": 1}, \"14\": {\"O\": 1}, \"15\": {\"O\": 1}, \"16\": {\"O\": 1}, \"17\": {\"O\": 1}, \"18\": {\"O\": 1}, \"19\": {\"O\": 1}}" n_minim_iter=7 energy=-22573.555448056195 stress="0.06268908481278489 3.588570082775001e-13 -5.230179699166011e-14 3.588570082775001e-13 0.06246489297172894 5.2704071218296415e-15 -5.230179699166011e-14 5.2704071218296415e-15 0.0627924638488137" free_energy=-22573.555448056195 pbc="T T T"
In       1.42429983       3.08631333       1.03244572        0      -0.02559510      -0.00510231      -0.00241211
In       1.46992171       0.15154709       3.31570538        1       0.02559510      -0.00510231       0.00241211
In       1.46992171       2.78321914       5.38059682        2       0.02559510       0.00510231      -0.00241211
In       1.42429983       5.71798537       7.66385648        3      -0.02559510       0.00510231       0.00241211
In       4.36414326       2.78321914       7.66385648        4       0.02559510       0.00510231       0.00241211
In       4.31852138       5.71798537       5.38059682        5      -0.02559510       0.00510231      -0.00241211
In       4.31852138       3.08631333       3.31570538        6      -0.02559510      -0.00510231       0.00241211
In       4.36414326       0.15154709       1.03244572        7       0.02559510      -0.00510231      -0.00241211
O        2.26793372       3.51931382       7.32772527        8       0.00258096       0.02904202      -0.00945017
O        0.62628782       0.58454759       5.71672803        9      -0.00258096       0.02904202       0.00945017
O        0.62628782       2.35021865       2.97957417       10      -0.00258096      -0.02904202      -0.00945017
O        2.26793372       5.28498488       1.36857693       11       0.00258096      -0.02904202       0.00945017
O        3.52050937       2.35021865       1.36857693       12      -0.00258096      -0.02904202       0.00945017
O        5.16215527       5.28498488       2.97957417       13       0.00258096      -0.02904202      -0.00945017
O        5.16215527       3.51931382       5.71672803       14       0.00258096       0.02904202       0.00945017
O        3.52050937       0.58454759       7.32772527       15      -0.00258096       0.02904202      -0.00945017
O        5.51165383       4.40214935      -0.00000000       16       0.00314905      -0.00000000       0.00000000
O        3.17101081       1.46738312       4.34815110       17      -0.00314905       0.00000000       0.00000000
O        0.27678926       1.46738312      -0.00000000       18      -0.00314905      -0.00000000       0.00000000
O        2.61743228       4.40214935       4.34815110       19       0.00314905       0.00000000      -0.00000000
20
Lattice="5.767947108323861 -1.701376083445952e-60 2.4806601952742465e-43 5.21676667072428e-61 5.8666840853868045 1.487097807618826e-18 -2.773972271638139e-43 -3.4219156717395953e-17 8.73144108945534" Properties=species:S:1:pos:R:3:spacegroup_kinds:I:1:forces:R:3 spacegroup="P 1" unit_cell=conventional occupancy="_JSON {\"0\": {\"In\": 1}, \"1\": {\"In\": 1}, \"2\": {\"In\": 1}, \"3\": {\"In\": 1}, \"4\": {\"In\": 1}, \"5\": {\"In\": 1}, \"6\": {\"In\": 1}, \"7\": {\"In\": 1}, \"8\": {\"O\": 1}, \"9\": {\"O\": 1}, \"10\": {\"O\": 1}, \"11\": {\"O\": 1}, \"12\": {\"O\": 1}, \"13\": {\"O\": 1}, \"14\": {\"O\": 1}, \"15\": {\"O\": 1}, \"16\": {\"O\": 1}, \"17\": {\"O\": 1}, \"18\": {\"O\": 1}, \"19\": {\"O\": 1}}" n_minim_iter=8 energy=-22573.55601833521 stress="0.060417073550150927 2.444849574643424e-13 -1.6220889457275344e-13 2.444849574643424e-13 0.06055489152761128 2.051595966647144e-13 -1.6220889457275344e-13 2.051595966647144e-13 0.05938493729101922" free_energy=-22573.55601833521 pbc="T T T"
In       1.41605605       3.08963381       1.04268188        0      -0.02382824      -0.01449362      -0.02559590
In       1.46791750       0.15629177       3.32303866        1       0.02382824      -0.01449362       0.02559590
In       1.46791750       2.77705027       5.40840243        2       0.02382824       0.01449362      -0.02559590
In       1.41605605       5.71039232       7.68875921        3      -0.02382824       0.01449362       0.02559590
In       4.35189106       2.77705027       7.68875921        4       0.02382824       0.01449362       0.02559590
In       4.30002961       5.71039232       5.40840243        5      -0.02382824       0.01449362      -0.02559590
In       4.30002961       3.08963381       3.32303866        6      -0.02382824      -0.01449362       0.02559590
In       4.35189106       0.15629177       1.04268188        7       0.02382824      -0.01449362      -0.02559590
O        2.26032966       3.51849861       7.34688592        8       0.01243964       0.03650739       0.00307002
O        0.62364389       0.58515657       5.75027571        9      -0.01243964       0.03650739      -0.00307002
O        0.62364389       2.34818547       2.98116538       10      -0.01243964      -0.03650739       0.00307002
O        2.26032966       5.28152751       1.38455517       11       0.01243964      -0.03650739      -0.00307002
O        3.50761745       2.34818547       1.38455517       12      -0.01243964      -0.03650739      -0.00307002
O        5.14430322       5.28152751       2.98116538       13       0.01243964      -0.03650739       0.00307002
O        5.14430322       3.51849861       5.75027571       14       0.01243964       0.03650739      -0.00307002
O        3.50761745       0.58515657       7.34688592       15      -0.01243964       0.03650739       0.00307002
O        5.49404646       4.40001306      -0.00000000       16      -0.01945792       0.00000000      -0.00000000
O        3.15787421       1.46667102       4.36572054       17       0.01945792       0.00000000      -0.00000000
O        0.27390065       1.46667102      -0.00000000       18       0.01945792       0.00000000       0.00000000
O        2.61007290       4.40001306       4.36572054       19      -0.01945792      -0.00000000       0.00000000
20
Lattice="5.682356945184785 -2.8090994836588544e-61 1.1866797747825196e-42 1.3019254664446026e-60 5.831917771986251 1.3646663663913295e-17 4.104614029566084e-43 -1.6393496827774317e-17 8.915793414784451" Properties=species:S:1:pos:R:3:spacegroup_kinds:I:1:forces:R:3 spacegroup="P 1" unit_cell=conventional occupancy="_JSON {\"0\": {\"In\": 1}, \"1\": {\"In\": 1}, \"2\": {\"In\": 1}, \"3\": {\"In\": 1}, \"4\": {\"In\": 1}, \"5\": {\"In\": 1}, \"6\": {\"In\": 1}, \"7\": {\"In\": 1}, \"8\": {\"O\": 1}, \"9\": {\"O\": 1}, \"10\": {\"O\": 1}, \"11\": {\"O\": 1}, \"12\": {\"O\": 1}, \"13\": {\"O\": 1}, \"14\": {\"O\": 1}, \"15\": {\"O\": 1}, \"16\": {\"O\": 1}, \"17\": {\"O\": 1}, \"18\": {\"O\": 1}, \"19\": {\"O\": 1}}" n_minim_iter=9 energy=-22573.562832055148 stress="0.05313031056032099 5.86321525116827e-13 -6.654110927358833e-13 5.86321525116827e-13 0.050526489852566976 3.4816401132200966e-14 -6.654110927358833e-13 3.4816401132200966e-14 0.05092498371498656" free_energy=-22573.562832055148 pbc="T T T"
In       1.37917646       3.08407030       1.08125811        0       0.02972365      -0.04592227      -0.02574105
In       1.46200201       0.16811142       3.37663860        1      -0.02972365      -0.04592227       0.02574105
In       1.46200201       2.74784747       5.53915482        2      -0.02972365       0.04592227      -0.02574105
In       1.37917646       5.66380636       7.83453530        3       0.02972365       0.04592227       0.02574105
In       4.30318049       2.74784747       7.83453530        4      -0.02972365       0.04592227       0.02574105
In       4.22035493       5.66380636       5.53915482        5       0.02972365       0.04592227      -0.02574105
In       4.22035493       3.08407030       3.37663860        6       0.02972365      -0.04592227       0.02574105
In       4.30318049       0.16811142       1.08125811        7      -0.02972365      -0.04592227      -0.02574105
O        2.22994448       3.50649884       7.46471166        8       0.02749613       0.04562544       0.00473614
O        0.61123399       0.59053995       5.90897846        9      -0.02749613       0.04562544      -0.00473614
O        0.61123399       2.32541894       3.00681496       10      -0.02749613      -0.04562544       0.00473614
O        2.22994448       5.24137782       1.45108175       11       0.02749613      -0.04562544      -0.00473614
O        3.45241246       2.32541894       1.45108175       12      -0.02749613      -0.04562544      -0.00473614
O        5.07112295       5.24137782       3.00681496       13       0.02749613      -0.04562544       0.00473615
O        5.07112295       3.50649884       5.90897846       14       0.02749613       0.04562544      -0.00473614
O        3.45241246       0.59053995       7.46471166       15      -0.02749613       0.04562544       0.00473614
O        5.41344797       4.37393833      -0.00000000       16      -0.00854484      -0.00000000      -0.00000000
O        3.11008745       1.45797944       4.45789671       17       0.00854484       0.00000000       0.00000000
O        0.26890897       1.45797944      -0.00000000       18       0.00854484       0.00000000      -0.00000000
O        2.57226950       4.37393833       4.45789671       19      -0.00854484      -0.00000000       0.00000000
20