20
Lattice="5.688882718566676 1.9545541274464325e-62 6.560156855626786e-45 -1.3275530116605217e-62 5.760381805638007 -7.01036646349662e-18 -9.971643896705881e-45 -1.3230311730240716e-17 8.232146835581567" Properties=species:S:1:pos:R:3:spacegroup_kinds:I:1:forces:R:3 spacegroup="P 1" unit_cell=conventional occupancy="_JSON {\"0\": {\"In\": 1}, \"1\": {\"In\": 1}, \"2\": {\"In\": 1}, \"3\": {\"In\": 1}, \"4\": {\"In\": 1}, \"5\": {\"In\": 1}, \"6\": {\"In\": 1}, \"7\": {\"In\": 1}, \"8\": {\"O\": 1}, \"9\": {\"O\": 1}, \"10\": {\"O\": 1}, \"11\": {\"O\": 1}, \"12\": {\"O\": 1}, \"13\": {\"O\": 1}, \"14\": {\"O\": 1}, \"15\": {\"O\": 1}, \"16\": {\"O\": 1}, \"17\": {\"O\": 1}, \"18\": {\"O\": 1}, \"19\": {\"O\": 1}}" n_minim_iter=5 energy=-22574.91823281338 stress="0.013531240030652442 5.399147270558662e-13 -3.1517165614078697e-13 5.399147270558662e-13 0.013840164089059087 5.926714708233205e-14 -3.1517165614078697e-13 5.926714708233205e-14 0.013620966632401928" free_energy=-22574.91823281338 pbc="T T T"
In       1.41028287       3.03480664       0.94668645        0      -0.00244985      -0.00357188      -0.00428611
In       1.43415849       0.15461574       3.16938697        1       0.00244985      -0.00357188       0.00428611
In       1.43415849       2.72557516       5.06275987        2       0.00244985       0.00357188      -0.00428611
In       1.41028287       5.60576606       7.28546038        3      -0.00244985       0.00357188       0.00428611
In       4.27859984       2.72557516       7.28546038        4       0.00244985       0.00357188       0.00428611
In       4.25472423       5.60576606       5.06275987        5      -0.00244985       0.00357188      -0.00428611
In       4.25472423       3.03480664       3.16938697        6      -0.00244985      -0.00357188       0.00428611
In       4.27859984       0.15461574       0.94668645        7       0.00244985      -0.00357188      -0.00428611
O        2.22058149       3.47803503       6.99083616        8      -0.00166515       0.00298450      -0.00102312
O        0.62385987       0.59784413       5.35738410        9       0.00166515       0.00298450       0.00102312
O        0.62385987       2.28234677       2.87476274       10       0.00166515      -0.00298450      -0.00102312
O        2.22058149       5.16253768       1.24131068       11      -0.00166515      -0.00298450       0.00102312
O        3.46830123       2.28234677       1.24131068       12       0.00166515      -0.00298450       0.00102312
O        5.06502285       5.16253768       2.87476274       13      -0.00166515      -0.00298450      -0.00102312
O        5.06502285       3.47803503       5.35738410       14      -0.00166515       0.00298450       0.00102312
O        3.46830123       0.59784413       6.99083616       15       0.00166515       0.00298450      -0.00102312
O        5.45104817       4.32028635      -0.00000000       16       0.00734325      -0.00000000       0.00000000
O        3.08227591       1.44009545       4.11607342       17      -0.00734325      -0.00000000      -0.00000000
O        0.23783455       1.44009545      -0.00000000       18      -0.00734325       0.00000000      -0.00000000
O        2.60660681       4.32028635       4.11607342       19       0.00734325      -0.00000000      -0.00000000
