20
Lattice="5.838906199803584 -1.54167097171835e-60 2.3933406282191e-43 7.155653176515341e-61 5.854212134005501 2.0252654730908275e-17 -3.4659926932383942e-43 -2.925284644331478e-17 8.455798554709913" Properties=species:S:1:pos:R:3:spacegroup_kinds:I:1:forces:R:3 spacegroup="P 1" unit_cell=conventional occupancy="_JSON {\"0\": {\"In\": 1}, \"1\": {\"In\": 1}, \"2\": {\"In\": 1}, \"3\": {\"In\": 1}, \"4\": {\"In\": 1}, \"5\": {\"In\": 1}, \"6\": {\"In\": 1}, \"7\": {\"In\": 1}, \"8\": {\"O\": 1}, \"9\": {\"O\": 1}, \"10\": {\"O\": 1}, \"11\": {\"O\": 1}, \"12\": {\"O\": 1}, \"13\": {\"O\": 1}, \"14\": {\"O\": 1}, \"15\": {\"O\": 1}, \"16\": {\"O\": 1}, \"17\": {\"O\": 1}, \"18\": {\"O\": 1}, \"19\": {\"O\": 1}}" n_minim_iter=1 energy=-22573.950352674627 stress="0.06052293342665667 4.18558961674873e-13 -4.484227847505264e-13 4.18558961674873e-13 0.06137957360407759 -4.682531731120468e-13 -4.484227847505264e-13 -4.682531731120468e-13 0.05852333199681819" free_energy=-22573.950352674627 pbc="T T T"
In       1.44627961       3.06213707       0.98275872        0       0.00362423      -0.00068815       0.01471043
In       1.47317349       0.13503100       3.24514056        1      -0.00362423      -0.00068815      -0.01471043
In       1.47317349       2.79207507       5.21065800        2      -0.00362423       0.00068815       0.01471043
In       1.44627961       5.71918113       7.47303983        3       0.00362423       0.00068815      -0.01471043
In       4.39262659       2.79207507       7.47303983        4      -0.00362423       0.00068815      -0.01471043
In       4.36573271       5.71918113       5.21065800        5       0.00362423       0.00068815       0.01471043
In       4.36573271       3.06213707       3.24514056        6       0.00362423      -0.00068815      -0.01471043
In       4.39262659       0.13503100       0.98275872        7      -0.00362423      -0.00068815       0.01471043
O        2.28416467       3.52343619       7.17249231        8       0.01572417      -0.04463272      -0.06302610
O        0.63528843       0.59633012       5.51120552        9      -0.01572417      -0.04463272       0.06302610
O        0.63528843       2.33077594       2.94459304       10      -0.01572417       0.04463272      -0.06302610
O        2.28416467       5.25788201       1.28330624       11       0.01572417       0.04463272       0.06302610
O        3.55474153       2.33077594       1.28330624       12      -0.01572417       0.04463272       0.06302610
O        5.20361777       5.25788201       2.94459304       13       0.01572417       0.04463272      -0.06302610
O        5.20361777       3.52343619       5.51120552       14       0.01572417      -0.04463272       0.06302610
O        3.55474153       0.59633012       7.17249231       15      -0.01572417      -0.04463272      -0.06302610
O        5.57745940       4.39065910      -0.00000000       16      -0.07463398      -0.00000000       0.00000000
O        3.18089990       1.46355303       4.22789928       17       0.07463398      -0.00000000      -0.00000000
O        0.26144680       1.46355303      -0.00000000       18       0.07463398      -0.00000000       0.00000000
O        2.65800630       4.39065910       4.22789928       19      -0.07463398      -0.00000000       0.00000000
20
Lattice="5.835610134270921 -1.4427721171564018e-60 2.387510698655713e-43 7.095246212137334e-61 5.843483689259721 2.268921291813302e-17 -3.4807912564805687e-43 -2.5750143723565966e-17 8.476107891259764" Properties=species:S:1:pos:R:3:spacegroup_kinds:I:1:forces:R:3 spacegroup="P 1" unit_cell=conventional occupancy="_JSON {\"0\": {\"In\": 1}, \"1\": {\"In\": 1}, \"2\": {\"In\": 1}, \"3\": {\"In\": 1}, \"4\": {\"In\": 1}, \"5\": {\"In\": 1}, \"6\": {\"In\": 1}, \"7\": {\"In\": 1}, \"8\": {\"O\": 1}, \"9\": {\"O\": 1}, \"10\": {\"O\": 1}, \"11\": {\"O\": 1}, \"12\": {\"O\": 1}, \"13\": {\"O\": 1}, \"14\": {\"O\": 1}, \"15\": {\"O\": 1}, \"16\": {\"O\": 1}, \"17\": {\"O\": 1}, \"18\": {\"O\": 1}, \"19\": {\"O\": 1}}" n_minim_iter=2 energy=-22573.951460005213 stress="0.05977843823071819 2.0577755779030275e-13 -1.2804761697279913e-13 2.0577755779030275e-13 0.059709943144725414 9.738956165395223e-14 -1.2804761697279913e-13 9.738956165395223e-14 0.060297702103546014" free_energy=-22573.951460005213 pbc="T T T"
In       1.44548176       3.05652186       0.98519475        0      -0.00026032      -0.00675934       0.02858948
In       1.47232331       0.13478002       3.25285920        1       0.00026032      -0.00675934      -0.02858948
In       1.47232331       2.78696182       5.22324869        2       0.00026032       0.00675934       0.02858948
In       1.44548176       5.70870367       7.49091315        3      -0.00026032       0.00675934      -0.02858948
In       4.39012838       2.78696182       7.49091315        4       0.00026032       0.00675934      -0.02858948
In       4.36328682       5.70870367       5.22324869        5      -0.00026032       0.00675934       0.02858948
In       4.36328682       3.05652186       3.25285920        6      -0.00026032      -0.00675934      -0.02858948
In       4.39012838       0.13478002       0.98519475        7       0.00026032      -0.00675934       0.02858948
O        2.28295585       3.51675069       7.18939542        8       0.00615264      -0.04089366      -0.07440053
O        0.63484922       0.59500884       5.52476642        9      -0.00615264      -0.04089366       0.07440053
O        0.63484922       2.32673300       2.95134147       10      -0.00615264       0.04089366      -0.07440053
O        2.28295585       5.24847485       1.28671247       11       0.00615264       0.04089366       0.07440053
O        3.55265429       2.32673300       1.28671247       12      -0.00615264       0.04089366       0.07440053
O        5.20076091       5.24847485       2.95134147       13       0.00615264       0.04089366      -0.07440053
O        5.20076091       3.51675069       5.52476642       14       0.00615264      -0.04089366       0.07440053
O        3.55265429       0.59500884       7.18939542       15      -0.00615264      -0.04089366      -0.07440053
O        5.57392844       4.38261277      -0.00000000       16      -0.07052169       0.00000000      -0.00000000
O        3.17948677       1.46087092       4.23805395       17       0.07052169      -0.00000000       0.00000000
O        0.26168170       1.46087092      -0.00000000       18       0.07052169       0.00000000      -0.00000000
O        2.65612337       4.38261277       4.23805395       19      -0.07052169      -0.00000000       0.00000000
20
Lattice="5.842884436386544 -1.18789941071316e-60 2.7085073899677344e-43 4.432108690785215e-61 5.8346354708865285 2.863637606590598e-17 -4.403576127173229e-43 -1.7124211006172063e-17 8.478393271449582" Properties=species:S:1:pos:R:3:spacegroup_kinds:I:1:forces:R:3 spacegroup="P 1" unit_cell=conventional occupancy="_JSON {\"0\": {\"In\": 1}, \"1\": {\"In\": 1}, \"2\": {\"In\": 1}, \"3\": {\"In\": 1}, \"4\": {\"In\": 1}, \"5\": {\"In\": 1}, \"6\": {\"In\": 1}, \"7\": {\"In\": 1}, \"8\": {\"O\": 1}, \"9\": {\"O\": 1}, \"10\": {\"O\": 1}, \"11\": {\"O\": 1}, \"12\": {\"O\": 1}, \"13\": {\"O\": 1}, \"14\": {\"O\": 1}, \"15\": {\"O\": 1}, \"16\": {\"O\": 1}, \"17\": {\"O\": 1}, \"18\": {\"O\": 1}, \"19\": {\"O\": 1}}" n_minim_iter=3 energy=-22573.955170953657 stress="0.06122324526189199 -2.2372471215143647e-13 -6.377539313974944e-13 -2.2372471215143647e-13 0.05779578895699392 4.1807227057919073e-13 -6.377539313974944e-13 4.1807227057919073e-13 0.058629813781974044" free_energy=-22573.955170953657 pbc="T T T"
In       1.44732616       3.05140168       0.98776206        0       0.01150237       0.00365754       0.00924920
In       1.47411606       0.13408395       3.25143458        1      -0.01150237       0.00365754      -0.00924920
In       1.47411606       2.78323379       5.22695869        2      -0.01150237      -0.00365754       0.00924920
In       1.44732616       5.70055152       7.49063121        3       0.01150237      -0.00365754      -0.00924920
In       4.39555827       2.78323379       7.49063121        4      -0.01150237      -0.00365754      -0.00924920
In       4.36876838       5.70055152       5.22695869        5       0.01150237      -0.00365754       0.00924920
In       4.36876838       3.05140168       3.25143458        6       0.01150237       0.00365754      -0.00924920
In       4.39555827       0.13408395       0.98776206        7      -0.01150237       0.00365754       0.00924920
O        2.28650661       3.50776892       7.18492564        8       0.00136810      -0.01256562      -0.01342812
O        0.63493561       0.59045119       5.53266426        9      -0.00136810      -0.01256562       0.01342812
O        0.63493561       2.32686655       2.94572901       10      -0.00136810       0.01256562      -0.01342812
O        2.28650661       5.24418428       1.29346763       11       0.00136810       0.01256562       0.01342812
O        3.55637783       2.32686655       1.29346763       12      -0.00136810       0.01256562       0.01342812
O        5.20794883       5.24418428       2.94572901       13       0.00136810       0.01256562      -0.01342812
O        5.20794883       3.50776892       5.53266426       14       0.00136810      -0.01256562       0.01342812
O        3.55637783       0.59045119       7.18492564       15      -0.00136810      -0.01256562      -0.01342812
O        5.57457808       4.37597660      -0.00000000       16      -0.00758366       0.00000000      -0.00000000
O        3.18974857       1.45865887       4.23919664       17       0.00758366       0.00000000       0.00000000
O        0.26830635       1.45865887      -0.00000000       18       0.00758366       0.00000000      -0.00000000
O        2.65313586       4.37597660       4.23919664       19      -0.00758366       0.00000000       0.00000000
20
Lattice="5.827908028721883 -1.2587664161800316e-60 3.22895480627793e-43 4.394763158546693e-61 5.844007727505064 2.7312376091149638e-17 -4.408352566368089e-43 -1.9101709740972978e-17 8.486548765635852" Properties=species:S:1:pos:R:3:spacegroup_kinds:I:1:forces:R:3 spacegroup="P 1" unit_cell=conventional occupancy="_JSON {\"0\": {\"In\": 1}, \"1\": {\"In\": 1}, \"2\": {\"In\": 1}, \"3\": {\"In\": 1}, \"4\": {\"In\": 1}, \"5\": {\"In\": 1}, \"6\": {\"In\": 1}, \"7\": {\"In\": 1}, \"8\": {\"O\": 1}, \"9\": {\"O\": 1}, \"10\": {\"O\": 1}, \"11\": {\"O\": 1}, \"12\": {\"O\": 1}, \"13\": {\"O\": 1}, \"14\": {\"O\": 1}, \"15\": {\"O\": 1}, \"16\": {\"O\": 1}, \"17\": {\"O\": 1}, \"18\": {\"O\": 1}, \"19\": {\"O\": 1}}" n_minim_iter=4 energy=-22573.95661801705 stress="0.05858854628096644 -4.198717101448263e-13 1.1573650307762106e-13 -4.198717101448263e-13 0.058684997786803285 -5.067932370772096e-13 1.1573650307762106e-13 -5.067932370772096e-13 0.058528189966906605" free_energy=-22573.95661801705 pbc="T T T"
In       1.44369424       3.05612319       0.98969242        0      -0.00179354       0.01792470       0.00523336
In       1.47025978       0.13411933       3.25358196        1       0.00179354       0.01792470      -0.00523336
In       1.47025978       2.78788454       5.23296680        2       0.00179354      -0.01792470       0.00523336
In       1.44369424       5.70988840       7.49685634        3      -0.00179354      -0.01792470      -0.00523336
In       4.38421379       2.78788454       7.49685634        4       0.00179354      -0.01792470      -0.00523336
In       4.35764825       5.70988840       5.23296680        5      -0.00179354      -0.01792470       0.00523336
In       4.35764825       3.05612319       3.25358196        6      -0.00179354       0.01792470      -0.00523336
In       4.38421379       0.13411933       0.98969242        7       0.00179354       0.01792470       0.00523336
O        2.28093605       3.51185958       7.18917602        8      -0.00193691      -0.00142894      -0.00525440
O        0.63301796       0.58985572       5.54064713        9       0.00193691      -0.00142894       0.00525440
O        0.63301796       2.33214814       2.94590163       10       0.00193691       0.00142894      -0.00525440
O        2.28093605       5.25415201       1.29737275       11      -0.00193691       0.00142894       0.00525440
O        3.54697198       2.33214814       1.29737275       12       0.00193691       0.00142894       0.00525440
O        5.19489007       5.25415201       2.94590163       13      -0.00193691       0.00142894      -0.00525440
O        5.19489007       3.51185958       5.54064713       14      -0.00193691      -0.00142894       0.00525440
O        3.54697198       0.58985572       7.18917602       15       0.00193691      -0.00142894      -0.00525440
O        5.55771463       4.38300580      -0.00000000       16       0.01079992       0.00000000       0.00000000
O        3.18414741       1.46100193       4.24327438       17      -0.01079992      -0.00000000       0.00000000
O        0.27019339       1.46100193      -0.00000000       18      -0.01079992      -0.00000000      -0.00000000
O        2.64376062       4.38300580       4.24327438       19       0.01079992       0.00000000       0.00000000
20
Lattice="5.826752259935699 -1.258316569244245e-60 3.2549271098303347e-43 4.519398881036126e-61 5.841390707604026 2.733003238419119e-17 -4.368125770788193e-43 -1.909315575595672e-17 8.49203495956557" Properties=species:S:1:pos:R:3:spacegroup_kinds:I:1:forces:R:3 spacegroup="P 1" unit_cell=conventional occupancy="_JSON {\"0\": {\"In\": 1}, \"1\": {\"In\": 1}, \"2\": {\"In\": 1}, \"3\": {\"In\": 1}, \"4\": {\"In\": 1}, \"5\": {\"In\": 1}, \"6\": {\"In\": 1}, \"7\": {\"In\": 1}, \"8\": {\"O\": 1}, \"9\": {\"O\": 1}, \"10\": {\"O\": 1}, \"11\": {\"O\": 1}, \"12\": {\"O\": 1}, \"13\": {\"O\": 1}, \"14\": {\"O\": 1}, \"15\": {\"O\": 1}, \"16\": {\"O\": 1}, \"17\": {\"O\": 1}, \"18\": {\"O\": 1}, \"19\": {\"O\": 1}}" n_minim_iter=5 energy=-22573.956782304424 stress="0.05848633706115516 1.4188902506622525e-13 -3.875778245637285e-13 1.4188902506622525e-13 0.05814210674642693 5.112274032629638e-14 -3.875778245637285e-13 5.112274032629638e-14 0.058688390531311696" free_energy=-22573.956782304424 pbc="T T T"
In       1.44329490       3.05596934       0.99100439        0      -0.00406285       0.01058886       0.00340000
In       1.47008123       0.13527399       3.25501309        1       0.00406285       0.01058886      -0.00340000
In       1.47008123       2.78542137       5.23702187        2       0.00406285      -0.01058886       0.00340000
In       1.44329490       5.70611672       7.50103057        3      -0.00406285      -0.01058886      -0.00340000
In       4.38345736       2.78542137       7.50103057        4       0.00406285      -0.01058886      -0.00340000
In       4.35667103       5.70611672       5.23702187        5      -0.00406285      -0.01058886       0.00340000
In       4.35667103       3.05596934       3.25501309        6      -0.00406285       0.01058886      -0.00340000
In       4.38345736       0.13527399       0.99100439        7       0.00406285       0.01058886       0.00340000
O        2.28040637       3.50977124       7.19269599        8      -0.00137914       0.00031103       0.00011060
O        0.63296976       0.58907588       5.54535645        9       0.00137914       0.00031103      -0.00011060
O        0.63296976       2.33161947       2.94667851       10       0.00137914      -0.00031103       0.00011060
O        2.28040637       5.25231483       1.29933897       11      -0.00137914      -0.00031103      -0.00011060
O        3.54634589       2.33161947       1.29933897       12       0.00137914      -0.00031103      -0.00011060
O        5.19378250       5.25231483       2.94667851       13      -0.00137914      -0.00031103       0.00011060
O        5.19378250       3.50977124       5.54535645       14      -0.00137914       0.00031103      -0.00011060
O        3.54634589       0.58907588       7.19269599       15       0.00137914       0.00031103       0.00011060
O        5.55668693       4.38104303      -0.00000000       16       0.00868934       0.00000000      -0.00000000
O        3.18344146       1.46034768       4.24601748       17      -0.00868934      -0.00000000      -0.00000000
O        0.27006533       1.46034768      -0.00000000       18      -0.00868934       0.00000000      -0.00000000
O        2.64331080       4.38104303       4.24601748       19       0.00868934      -0.00000000       0.00000000
20
Lattice="5.8252776511929 -1.2199631110319771e-60 3.296659712583225e-43 4.6245733278024305e-61 5.843569220267957 2.80704830604287e-17 -4.325226548486807e-43 -1.802309880933085e-17 8.491017954595439" Properties=species:S:1:pos:R:3:spacegroup_kinds:I:1:forces:R:3 spacegroup="P 1" unit_cell=conventional occupancy="_JSON {\"0\": {\"In\": 1}, \"1\": {\"In\": 1}, \"2\": {\"In\": 1}, \"3\": {\"In\": 1}, \"4\": {\"In\": 1}, \"5\": {\"In\": 1}, \"6\": {\"In\": 1}, \"7\": {\"In\": 1}, \"8\": {\"O\": 1}, \"9\": {\"O\": 1}, \"10\": {\"O\": 1}, \"11\": {\"O\": 1}, \"12\": {\"O\": 1}, \"13\": {\"O\": 1}, \"14\": {\"O\": 1}, \"15\": {\"O\": 1}, \"16\": {\"O\": 1}, \"17\": {\"O\": 1}, \"18\": {\"O\": 1}, \"19\": {\"O\": 1}}" n_minim_iter=6 energy=-22573.95691262675 stress="0.05842374565428263 -7.913612601642101e-14 -5.194533495285126e-13 -7.913612601642101e-14 0.058347321451079875 4.4097367878492866e-13 -5.194533495285126e-13 4.4097367878492866e-13 0.058475298569071354" free_energy=-22573.95691262675 pbc="T T T"
In       1.44265244       3.05892325       0.99143920        0      -0.00626560       0.00144925      -0.00176261
In       1.46998638       0.13713864       3.25406977        1       0.00626560       0.00144925       0.00176261
In       1.46998638       2.78464597       5.23694818        2       0.00626560      -0.00144925      -0.00176261
In       1.44265244       5.70643058       7.49957875        3      -0.00626560      -0.00144925       0.00176261
In       4.38262521       2.78464597       7.49957875        4       0.00626560      -0.00144925       0.00176261
In       4.35529127       5.70643058       5.23694818        5      -0.00626560      -0.00144925      -0.00176261
In       4.35529127       3.05892325       3.25406977        6      -0.00626560       0.00144925       0.00176261
In       4.38262521       0.13713864       0.99143920        7       0.00626560       0.00144925      -0.00176261
O        2.27964175       3.51093576       7.19135487        8       0.00395142      -0.00276418       0.00435284
O        0.63299708       0.58915115       5.54517206        9      -0.00395142      -0.00276418      -0.00435284
O        0.63299708       2.33263346       2.94584589       10      -0.00395142       0.00276418       0.00435284
O        2.27964175       5.25441807       1.29966308       11       0.00395142       0.00276418      -0.00435284
O        3.54563590       2.33263346       1.29966308       12      -0.00395142       0.00276418      -0.00435284
O        5.19228057       5.25441807       2.94584589       13       0.00395142       0.00276418       0.00435284
O        5.19228057       3.51093576       5.54517206       14       0.00395142      -0.00276418      -0.00435284
O        3.54563590       0.58915115       7.19135487       15      -0.00395142      -0.00276418       0.00435284
O        5.55638466       4.38267692      -0.00000000       16      -0.00401981      -0.00000000       0.00000000
O        3.18153181       1.46089231       4.24550898       17       0.00401981       0.00000000      -0.00000000
O        0.26889299       1.46089231      -0.00000000       18       0.00401981       0.00000000      -0.00000000
O        2.64374584       4.38267692       4.24550898       19      -0.00401981       0.00000000       0.00000000
