1
Lattice="4.245241559179703 0.8113899371142844 -4.4571127138337507e-10 1.1032565911049264 4.178905887911378 -8.996382254161747e-10 -2.674249074987479 -2.495147912057952 2.3028370128427023" Properties=species:S:1:pos:R:3:spacegroup_kinds:I:1:forces:R:3 spacegroup="P 1" unit_cell=conventional occupancy="_JSON {\"0\": {\"In\": 1}}" n_minim_iter=2 energy=-1969.9041138758514 stress="0.019290428707878976 -0.004438789038889783 1.2284958875427518e-12 -0.004438789038889783 0.01990632082522516 1.0824095282884018e-12 1.2284958875427518e-12 1.0824095282884018e-12 0.02404783303758144" free_energy=-1969.9041138758514 pbc="T T T"
In       0.00000000       0.00000000       0.00000000        0      -0.00000000      -0.00000000       0.00000000
