1
Lattice="4.123712451654957 0.75579446521915 -4.2656101356263823e-10 1.0393834264202935 4.061515942412731 -8.721600166103818e-10 -2.581547938885631 -2.408655203369407 2.2605795734958827" Properties=species:S:1:pos:R:3:spacegroup_kinds:I:1:forces:R:3 spacegroup="P 1" unit_cell=conventional occupancy="_JSON {\"0\": {\"In\": 1}}" n_minim_iter=6 energy=-1969.918194571456 stress="-0.007274218372597211 0.0003270859565100456 1.876815377598032e-12 0.0003270859565100456 -0.00731960229245051 8.797789025902974e-13 1.876815377598032e-12 8.797789025902974e-13 -0.007624782480380541" free_energy=-1969.918194571456 pbc="T T T"
In       0.00000000       0.00000000       0.00000000        0       0.00000000       0.00000000      -0.00000000
