1
Lattice="4.191326312414138 0.7681867409495795 -4.3355228337545074e-10 1.0564255279473194 4.12811000701375 -8.864557474014977e-10 -2.623875920026242 -2.4481483735278107 2.297644842791289" Properties=species:S:1:pos:R:3:spacegroup_kinds:I:1:forces:R:3 spacegroup="P 1" unit_cell=conventional occupancy="_JSON {\"0\": {\"In\": 1}}" n_minim_iter=1 energy=-1969.8956055181802 stress="0.021932161620169435 -0.015443506639517402 3.776082060294384e-12 -0.015443506639517402 0.024074983437913654 4.998238950989073e-12 3.776082060294384e-12 4.998238950989073e-12 0.03848419972996978" free_energy=-1969.8956055181802 pbc="T T T"
In       0.00000000       0.00000000       0.00000000        0      -0.00000000       0.00000000       0.00000000
1
Lattice="4.212074254576436 0.8050506942652873 -4.4222900982134084e-10 1.094637046868718 4.146256851911757 -8.926095146492692e-10 -2.653355650568951 -2.475653772637197 2.284845363700506" Properties=species:S:1:pos:R:3:spacegroup_kinds:I:1:forces:R:3 spacegroup="P 1" unit_cell=conventional occupancy="_JSON {\"0\": {\"In\": 1}}" n_minim_iter=2 energy=-1969.9041138758514 stress="0.019290428707878976 -0.004438789038889783 1.2284958875427518e-12 -0.004438789038889783 0.01990632082522516 1.0824095282884018e-12 1.2284958875427518e-12 1.0824095282884018e-12 0.02404783303758144" free_energy=-1969.9041138758514 pbc="T T T"
In       0.00000000       0.00000000       0.00000000        0      -0.00000000      -0.00000000       0.00000000
