1
Lattice="3.721536563153874 0.43469787501553714 -3.360969327915135e-10 0.6912222772894955 3.682527446851265 -7.738891181180728e-10 -2.2063794200723494 -2.058612660494688 2.2209908604418804" Properties=species:S:1:pos:R:3:spacegroup_kinds:I:1:forces:R:3 spacegroup="P 1" unit_cell=conventional occupancy="_JSON {\"0\": {\"In\": 1}}" n_minim_iter=1 energy=-1969.47749889025 stress="-0.16090937142300218 0.015986900058540195 -4.967342868423924e-12 0.015986900058540195 -0.16312759031869503 -3.6146204032090844e-12 -4.967342868423924e-12 -3.6146204032090844e-12 -0.1780438076143503" free_energy=-1969.47749889025 pbc="T T T"
In       0.00000000       0.00000000       0.00000000        0      -0.00000000      -0.00000000      -0.00000000
1
Lattice="3.6890811082839856 0.3694889873852828 -3.2103388205617806e-10 0.6239235171245149 3.6546629092264826 -7.638600210659254e-10 -2.156502312553198 -2.012075947862125 2.246528364228738" Properties=species:S:1:pos:R:3:spacegroup_kinds:I:1:forces:R:3 spacegroup="P 1" unit_cell=conventional occupancy="_JSON {\"0\": {\"In\": 1}}" n_minim_iter=2 energy=-1969.488122637832 stress="-0.14214699290898866 -0.0008473530180071539 1.1443382233177228e-12 -0.0008473530180071539 -0.14202942074246588 2.452666046847808e-14 1.1443382233177228e-12 2.452666046847808e-14 -0.14123881707822755" free_energy=-1969.488122637832 pbc="T T T"
In       0.00000000       0.00000000       0.00000000        0      -0.00000000       0.00000000       0.00000000
