1
Lattice="3.9388367728367157 0.6526732241891678 -3.937630798466063e-10 0.9237142506252964 3.884220570953197 -8.293598413376087e-10 -2.4312755115824194 -2.268446897134669 2.2098564483431895" Properties=species:S:1:pos:R:3:spacegroup_kinds:I:1:forces:R:3 spacegroup="P 1" unit_cell=conventional occupancy="_JSON {\"0\": {\"In\": 1}}" n_minim_iter=1 energy=-1969.742082406779 stress="-0.08960309162206027 0.02067957645285978 -5.925170664293806e-12 0.02067957645285978 -0.09247243008592151 -4.489207144713256e-12 -5.925170664293806e-12 -4.489207144713256e-12 -0.11176704346333412" free_energy=-1969.742082406779 pbc="T T T"
In       0.00000000       0.00000000       0.00000000        0       0.00000000       0.00000000       0.00000000
1
Lattice="3.917555802144458 0.6133768147167405 -3.845699592074076e-10 0.8830392174752214 3.8657103254316016 -8.229685614849448e-10 -2.4002975096602976 -2.23954356963485 2.2240708272385423" Properties=species:S:1:pos:R:3:spacegroup_kinds:I:1:forces:R:3 spacegroup="P 1" unit_cell=conventional occupancy="_JSON {\"0\": {\"In\": 1}}" n_minim_iter=2 energy=-1969.7541896565226 stress="-0.08143967252835001 0.008318638835500559 -2.072139712934919e-12 0.008318638835500559 -0.08259390266507842 -2.2752397901953044e-12 -2.072139712934919e-12 -2.2752397901953044e-12 -0.09035542141980653" free_energy=-1969.7541896565226 pbc="T T T"
In       0.00000000       0.00000000       0.00000000        0      -0.00000000      -0.00000000       0.00000000
