1
Lattice="3.9749749086406916 0.6586613864237715 -3.9737196895588867e-10 0.9321891666876656 3.919857612694488 -8.36966747926929e-10 -2.453582037514229 -2.2892594991186113 2.2301314932468626" Properties=species:S:1:pos:R:3:spacegroup_kinds:I:1:forces:R:3 spacegroup="P 1" unit_cell=conventional occupancy="_JSON {\"0\": {\"In\": 1}}" n_minim_iter=2 energy=-1969.8171652692613 stress="-0.06682667556936074 0.004973591870391156 -2.5420311975947927e-12 0.004973591870391156 -0.0675167728000232 -3.5341021207917805e-13 -2.5420311975947927e-12 -3.5341021207917805e-13 -0.07215727076536414" free_energy=-1969.8171652692613 pbc="T T T"
In       0.00000000       0.00000000       0.00000000        0      -0.00000000      -0.00000000      -0.00000000
