1
Lattice="3.7215365631538733 0.4346978750155384 -3.3609511799262066e-10 0.6912222772894936 3.6825274468512665 -7.738870207813672e-10 -2.206379420072349 -2.058612660494688 2.2209908604418778" Properties=species:S:1:pos:R:3:spacegroup_kinds:I:1:forces:R:3 spacegroup="P 1" unit_cell=conventional occupancy="_JSON {\"0\": {\"In\": 1}}" n_minim_iter=2 energy=-1969.6001646515886 stress="-0.10566469752795438 -0.0008803502407401846 -3.04948309070249e-13 -0.0008803502407401846 -0.10554254692106543 -7.769781219013224e-14 -3.04948309070249e-13 -7.769781219013224e-14 -0.10472115594310924" free_energy=-1969.6001646515886 pbc="T T T"
In       0.00000000       0.00000000       0.00000000        0      -0.00000000      -0.00000000       0.00000000
