1
Lattice="3.793193285232449 0.5063452117302538 -3.550657554050799e-10 0.767657159307942 3.749053648367539 -7.921672561248472e-10 -2.2804252221210954 -2.1276994296108747 2.2174888311155487" Properties=species:S:1:pos:R:3:spacegroup_kinds:I:1:forces:R:3 spacegroup="P 1" unit_cell=conventional occupancy="_JSON {\"0\": {\"In\": 1}}" n_minim_iter=1 energy=-1969.5886561703978 stress="-0.12522341989107064 0.016623472885731242 -4.130753671044786e-12 0.016623472885731242 -0.1275299647204085 -4.689204126402127e-12 -4.130753671044786e-12 -4.689204126402127e-12 -0.14304012196712815" free_energy=-1969.5886561703978 pbc="T T T"
In       0.00000000       0.00000000       0.00000000        0       0.00000000      -0.00000000      -0.00000000
1
Lattice="3.7587543977727647 0.43904514215828044 -3.3945629214888516e-10 0.698134958641535 3.7193551644272262 -7.816264044107836e-10 -2.228444678056322 -2.0792001528496513 2.2432022425232465" Properties=species:S:1:pos:R:3:spacegroup_kinds:I:1:forces:R:3 spacegroup="P 1" unit_cell=conventional occupancy="_JSON {\"0\": {\"In\": 1}}" n_minim_iter=2 energy=-1969.6001646515886 stress="-0.10566469752795438 -0.0008803502407401846 -3.04948309070249e-13 -0.0008803502407401846 -0.10554254692106543 -7.769781219013224e-14 -3.04948309070249e-13 -7.769781219013224e-14 -0.10472115594310924" free_energy=-1969.6001646515886 pbc="T T T"
In       0.00000000       0.00000000       0.00000000        0      -0.00000000      -0.00000000       0.00000000
