1
Lattice="4.616974447048627 1.1138967106998316 -5.304615493006664e-10 1.4307655460377238 4.528810978510723 -9.907773962079201e-10 -3.0238699963861593 -2.821353844143995 2.3352498063156646" Properties=species:S:1:pos:R:3:spacegroup_kinds:I:1:forces:R:3 spacegroup="P 1" unit_cell=conventional occupancy="_JSON {\"0\": {\"In\": 1}}" n_minim_iter=1 energy=-1969.8495414702875 stress="0.024922881179288453 -0.003767283229738255 1.01563759550076e-12 -0.003767283229738255 0.02544560033001271 9.476186758240048e-13 1.01563759550076e-12 9.476186758240048e-13 0.028960579165488595" free_energy=-1969.8495414702875 pbc="T T T"
In       0.00000000       0.00000000       0.00000000        0       0.00000000       0.00000000      -0.00000000
