1
Lattice="4.445140408596805 1.007944360238504 -4.979734946945366e-10 1.3131746585996575 4.364721915711065 -9.504562122220616e-10 -2.87915753344389 -2.6863331375213564 2.295493684884528" Properties=species:S:1:pos:R:3:spacegroup_kinds:I:1:forces:R:3 spacegroup="P 1" unit_cell=conventional occupancy="_JSON {\"0\": {\"In\": 1}}" n_minim_iter=2 energy=-1969.8717961206414 stress="-0.005719237925964267 0.001896326650808748 -2.695041903056447e-12 0.001896326650808748 -0.005982357576617488 -2.9672598548221984e-12 -2.695041903056447e-12 -2.9672598548221984e-12 -0.007751682480390782" free_energy=-1969.8717961206414 pbc="T T T"
In       0.00000000       0.00000000       0.00000000        0       0.00000000       0.00000000       0.00000000
