10
Lattice="5.822238812223573 -0.002651350744220103 -0.0018307204321792421 3.1925730854377568 4.868875528329073 -0.0018307204321783505 3.1925730854377607 1.7233611209452142 4.553677492830762" Properties=species:S:1:pos:R:3:spacegroup_kinds:I:1:forces:R:3 spacegroup="P 1" unit_cell=conventional occupancy="_JSON {\"0\": {\"In\": 1}, \"1\": {\"In\": 1}, \"2\": {\"In\": 1}, \"3\": {\"In\": 1}, \"4\": {\"O\": 1}, \"5\": {\"O\": 1}, \"6\": {\"O\": 1}, \"7\": {\"O\": 1}, \"8\": {\"O\": 1}, \"9\": {\"O\": 1}}" n_minim_iter=5 energy=-11287.637277418338 stress="-0.02558369701350544 -8.686872874325604e-06 -5.998163017763786e-06 -8.686872874325604e-06 -0.02557229354760783 -3.237827981373742e-06 -5.998163017763786e-06 -3.237827981373742e-06 -0.02556984001893301" free_energy=-11287.637277418338 pbc="T T T"
In      10.46971833       5.65158730       3.90234162        0       0.00006786       0.00003663       0.00002529
In       7.84135916       4.23279065       2.92268247        1      -0.00006786      -0.00003663      -0.00002529
In       4.36602583       2.35679466       1.62733359        2       0.00006786       0.00003663       0.00002529
In       1.73766667       0.93799800       0.64767444        3      -0.00006786      -0.00003663      -0.00002529
O        5.96296566       2.29132178       0.20210022        4      -0.00000000       0.00000544      -0.00000787
O        7.01981904       5.07982294       1.13567329        5      -0.00000454       0.00000842      -0.00000000
O        8.09868536       2.15368782       2.47893897        6       0.00000454      -0.00000298      -0.00000787
O        4.10869963       4.43589749       2.07107709        7      -0.00000454       0.00000298       0.00000787
O        6.24441934       4.29826353       4.34791583        8      -0.00000000      -0.00000544       0.00000787
O        5.18756595       1.50976237       3.41434276        9       0.00000454      -0.00000842      -0.00000000
