10
Lattice="6.189841877745784 0.08284083151062796 0.057200430081031144 3.4657568086752386 5.129282095769546 0.0572004300810365 3.465756808675244 1.8708265649314386 4.7762762348015695" Properties=species:S:1:pos:R:3:spacegroup_kinds:I:1:forces:R:3 spacegroup="P 1" unit_cell=conventional occupancy="_JSON {\"0\": {\"In\": 1}, \"1\": {\"In\": 1}, \"2\": {\"In\": 1}, \"3\": {\"In\": 1}, \"4\": {\"O\": 1}, \"5\": {\"O\": 1}, \"6\": {\"O\": 1}, \"7\": {\"O\": 1}, \"8\": {\"O\": 1}, \"9\": {\"O\": 1}}" n_minim_iter=4 energy=-11286.919821864429 stress="0.08149697203195166 0.00012026332895726522 8.304013905198549e-05 0.00012026332895726522 0.08133909948928603 4.4825331604700633e-05 8.304013905198549e-05 4.4825331604700633e-05 0.08130513222350812" free_energy=-11286.919821864429 pbc="T T T"
In      11.18030111       6.03516215       4.16719466        0      -0.00282486      -0.00152487      -0.00105290
In       8.50173215       4.58926210       3.16882099        1       0.00282486       0.00152487       0.00105290
In       4.61962336       2.49368741       1.72185611        2      -0.00282486      -0.00152487      -0.00105290
In       1.94105440       1.04778735       0.72348244        3       0.00282486       0.00152487       0.00105290
O        6.37525982       2.46500217       0.30578409        4      -0.00000000      -0.00278556       0.00403421
O        7.56235707       5.38787320       1.27986971        5       0.00232875      -0.00431406      -0.00000000
O        8.65391938       2.38934110       2.69392221        6      -0.00232875       0.00152850       0.00403421
O        4.46743613       4.69360840       2.19675489        7       0.00232875      -0.00152850      -0.00403421
O        6.74609569       4.61794733       4.58489300        8      -0.00000000       0.00278556      -0.00403421
O        5.55899844       1.69507631       3.61080739        9      -0.00232875       0.00431406      -0.00000000
