10
Lattice="5.619706256261039 -0.053106129638149896 -0.03666903626929098 3.039258600788628 4.727242941207576 -0.03666903626929764 3.039258600788627 1.6406014737731 4.433576124041556" Properties=species:S:1:pos:R:3:spacegroup_kinds:I:1:forces:R:3 spacegroup="P 1" unit_cell=conventional occupancy="_JSON {\"0\": {\"In\": 1}, \"1\": {\"In\": 1}, \"2\": {\"In\": 1}, \"3\": {\"In\": 1}, \"4\": {\"O\": 1}, \"5\": {\"O\": 1}, \"6\": {\"O\": 1}, \"7\": {\"O\": 1}, \"8\": {\"O\": 1}, \"9\": {\"O\": 1}}" n_minim_iter=4 energy=-11286.922473930577 stress="-0.12443891652702621 -3.819060459444455e-05 -2.6370075158748264e-05 -3.819060459444455e-05 -0.12438878280806409 -1.4234651629257524e-05 -2.6370075158748264e-05 -1.4234651629257524e-05 -0.12437799622513761" free_energy=-11286.922473930577 pbc="T T T"
In      10.06590455       5.43360734       3.75182951        0      -0.00454337      -0.00245252      -0.00169343
In       7.48143065       4.03850010       2.78852757        1       0.00454337       0.00245252       0.00169343
In       4.21679282       2.27623820       1.57171049        2      -0.00454337      -0.00245252      -0.00169343
In       1.63231892       0.88113096       0.60840854        3       0.00454337       0.00245252       0.00169343
O        5.73440900       2.20189771       0.13069759        4       0.00000000       0.00398325      -0.00576876
O        6.71083051       4.92206009       1.05339048        5      -0.00333002       0.00616895      -0.00000000
O        7.79724608       2.01589134       2.34748565        6       0.00333002      -0.00218570      -0.00576876
O        3.90097739       4.29884696       2.01275240        7      -0.00333002       0.00218570       0.00576876
O        5.96381447       4.11284058       4.22954046        8       0.00000000      -0.00398325       0.00576876
O        4.98739295       1.39267820       3.30684758        9       0.00333002      -0.00616895      -0.00000000
