10
Lattice="5.758740225371707 -0.016390846102851936 -0.011317648910313534 3.146243737033938 4.823329554397552 -0.011317648910311706 3.1462437370339433 1.6983523911021832 4.514447389785289" Properties=species:S:1:pos:R:3:spacegroup_kinds:I:1:forces:R:3 spacegroup="P 1" unit_cell=conventional occupancy="_JSON {\"0\": {\"In\": 1}, \"1\": {\"In\": 1}, \"2\": {\"In\": 1}, \"3\": {\"In\": 1}, \"4\": {\"O\": 1}, \"5\": {\"O\": 1}, \"6\": {\"O\": 1}, \"7\": {\"O\": 1}, \"8\": {\"O\": 1}, \"9\": {\"O\": 1}}" n_minim_iter=7 energy=-11287.50591161797 stress="-0.05454514167757489 -6.361017457483665e-05 -4.392193188914276e-05 -6.361017457483665e-05 -0.054461639081392246 -2.3709199482128864e-05 -4.392193188914276e-05 -2.3709199482128864e-05 -0.05444367297608047" free_energy=-11287.50591161797 pbc="T T T"
In      10.34386820       5.58365300       3.85543394        0       0.00179128       0.00096694       0.00066766
In       7.73297336       4.17428366       2.88228421        1      -0.00179128      -0.00096694      -0.00066766
In       4.31825435       2.33100745       1.60952789        2       0.00179128       0.00096694       0.00066766
In       1.70735951       0.92163811       0.63637816        3      -0.00179128      -0.00096694      -0.00066766
O        5.89217704       2.26405856       0.18182085        4      -0.00000000      -0.00140194       0.00203036
O        6.92529720       5.03015990       1.11163538        5       0.00117202      -0.00217121       0.00000000
O        8.00530062       2.11286699       2.43904454        6      -0.00117202       0.00076927       0.00203036
O        4.04592709       4.39242412       2.05276755        7       0.00117202      -0.00076927      -0.00203036
O        6.15905067       4.24123255       4.30999125        8       0.00000000       0.00140194      -0.00203036
O        5.12593051       1.47513121       3.38017672        9      -0.00117203       0.00217121      -0.00000000
