10
Lattice="6.3254122578732055 0.08561836596228511 0.059118278590064355 3.5424692705471785 5.241095515621861 0.05911827859006924 3.5424692705471825 1.9122361962050731 4.8801567500089735" Properties=species:S:1:pos:R:3:spacegroup_kinds:I:1:forces:R:3 spacegroup="P 1" unit_cell=conventional occupancy="_JSON {\"0\": {\"In\": 1}, \"1\": {\"In\": 1}, \"2\": {\"In\": 1}, \"3\": {\"In\": 1}, \"4\": {\"O\": 1}, \"5\": {\"O\": 1}, \"6\": {\"O\": 1}, \"7\": {\"O\": 1}, \"8\": {\"O\": 1}, \"9\": {\"O\": 1}}" n_minim_iter=1 energy=-11285.96498329833 stress="0.10953651505985981 -0.000540450875363056 -0.000373173734038078 -0.000540450875363056 0.11024597782069921 -0.00020144037109113386 -0.000373173734038078 -0.00020144037109113386 0.1103986231789033" free_energy=-11285.96498329833 pbc="T T T"
In      11.41217133       6.16032644       4.25361884        0      -0.05888746      -0.03178764      -0.02194892
In       8.70335488       4.69809869       3.24397113        1       0.05888746       0.03178764       0.02194892
In       4.70699593       2.54085140       1.75442219        2      -0.05888746      -0.03178764      -0.02194892
In       1.99817948       1.07862365       0.74477447        3       0.05888746       0.03178764       0.02194892
O        6.51529383       2.52699755       0.30238039        4       0.00000000       0.06533552      -0.09462253
O        7.72268420       5.51763122       1.30871661        5      -0.05462082       0.10118655      -0.00000000
O        8.85037274       2.43857889       2.74245877        6       0.05462082      -0.03585103      -0.09462253
O        4.55997807       4.80037120       2.25593454        7      -0.05462082       0.03585103       0.09462253
O        6.89505698       4.71195254       4.69601292        8       0.00000000      -0.06533552       0.09462253
O        5.68766661       1.72131887       3.68967670        9       0.05462082      -0.10118655       0.00000000
10
Lattice="6.333101494196692 0.09337442709192265 0.06447372981212471 3.5531726282684275 5.2432678353442075 0.06447372981212958 3.553172628268432 1.9180139027968206 4.880290680243248" Properties=species:S:1:pos:R:3:spacegroup_kinds:I:1:forces:R:3 spacegroup="P 1" unit_cell=conventional occupancy="_JSON {\"0\": {\"In\": 1}, \"1\": {\"In\": 1}, \"2\": {\"In\": 1}, \"3\": {\"In\": 1}, \"4\": {\"O\": 1}, \"5\": {\"O\": 1}, \"6\": {\"O\": 1}, \"7\": {\"O\": 1}, \"8\": {\"O\": 1}, \"9\": {\"O\": 1}}" n_minim_iter=2 energy=-11285.966288662898 stress="0.1100424497257804 0.0005000840143603193 0.00034530098402121357 0.0005000840143603193 0.1093859775092687 0.0001863945713035434 0.00034530098402121357 0.0001863945713035434 0.10924473339764945" free_energy=-11285.966288662898 pbc="T T T"
In      11.43608883       6.17323718       4.26253353        0      -0.05324910      -0.02874404      -0.01984735
In       8.72308131       4.70874708       3.25132369        1       0.05324910       0.02874404       0.01984735
In       4.71636545       2.54590910       1.75791446        2      -0.05324910      -0.02874404      -0.01984735
In       2.00335793       1.08141900       0.74670462        3       0.05324910       0.02874404       0.01984735
O        6.52641244       2.53500398       0.30747696        4       0.00000000       0.05159702      -0.07472567
O        7.73898572       5.52683459       1.31678327        5      -0.04313537       0.07990944       0.00000000
O        8.86701179       2.44916153       2.74762230        6       0.04313537      -0.02831241      -0.07472567
O        4.57243497       4.80549465       2.26161585        7      -0.04313537       0.02831241       0.07472567
O        6.91303432       4.71965220       4.70176119        8      -0.00000000      -0.05159702       0.07472567
O        5.70046105       1.72782159       3.69245488        9       0.04313537      -0.07990944      -0.00000000
10
Lattice="6.332738464912151 0.09300857495092162 0.06422111404970758 3.5526675719554643 5.243165092114532 0.0642211140497125 3.5526675719554697 1.9177412717903075 4.8802841053703245" Properties=species:S:1:pos:R:3:spacegroup_kinds:I:1:forces:R:3 spacegroup="P 1" unit_cell=conventional occupancy="_JSON {\"0\": {\"In\": 1}, \"1\": {\"In\": 1}, \"2\": {\"In\": 1}, \"3\": {\"In\": 1}, \"4\": {\"O\": 1}, \"5\": {\"O\": 1}, \"6\": {\"O\": 1}, \"7\": {\"O\": 1}, \"8\": {\"O\": 1}, \"9\": {\"O\": 1}}" n_minim_iter=3 energy=-11285.96964646405 stress="0.10777101972064353 0.000915881142921117 0.0006324030582410807 0.000915881142921117 0.10656872069204312 0.0003413731854370435 0.0006324030582410807 0.0003413731854370435 0.10631003852104934" free_energy=-11285.96964646405 pbc="T T T"
In      11.42971998       6.16979926       4.26015969        0      -0.02324681      -0.01254870      -0.00866470
In       8.72739044       4.71107316       3.25292982        1       0.02324681       0.01254870       0.00866470
In       4.71068318       2.54284179       1.75579652        2      -0.02324681      -0.01254870      -0.00866470
In       2.00835364       1.08411569       0.74856665        3       0.02324681       0.01254870       0.00866470
O        6.52588764       2.54005085       0.29938025        4       0.00000000      -0.00861880       0.01248222
O        7.73368134       5.53480147       1.31640270        5       0.00720536      -0.01334812      -0.00000000
O        8.87076152       2.44568559       2.73952230        6      -0.00720536       0.00472932       0.01248222
O        4.56731210       4.80822936       2.26920404        7       0.00720536      -0.00472932      -0.01248222
O        6.91218598       4.71386410       4.70934609        8       0.00000000       0.00861880      -0.01248222
O        5.70439228       1.71911348       3.69232364        9      -0.00720536       0.01334812       0.00000000
10
Lattice="6.326664537496025 0.08688253747734515 0.05999117125711053 3.5442132774225215 5.241448749102699 0.059991171257115436 3.5442132774225277 1.9131776166716348 4.880177797700163" Properties=species:S:1:pos:R:3:spacegroup_kinds:I:1:forces:R:3 spacegroup="P 1" unit_cell=conventional occupancy="_JSON {\"0\": {\"In\": 1}, \"1\": {\"In\": 1}, \"2\": {\"In\": 1}, \"3\": {\"In\": 1}, \"4\": {\"O\": 1}, \"5\": {\"O\": 1}, \"6\": {\"O\": 1}, \"7\": {\"O\": 1}, \"8\": {\"O\": 1}, \"9\": {\"O\": 1}}" n_minim_iter=4 energy=-11285.97006824066 stress="0.10697457620446187 0.00012369395749101843 8.540893907153344e-05 0.00012369395749101843 0.10681220019708555 4.6104017190606195e-05 8.540893907153344e-05 4.6104017190606195e-05 0.1067772639801685" free_energy=-11285.97006824066 pbc="T T T"
In      11.40970362       6.15899436       4.25269906        0      -0.02029848      -0.01095719      -0.00756578
In       8.71293303       4.70326901       3.24754116        1       0.02029848       0.01095719       0.00756578
In       4.70215807       2.53823991       1.75261899        2      -0.02029848      -0.01095719      -0.00756578
In       2.00538748       1.08251456       0.74746109        3       0.02029848       0.01095719       0.00756578
O        6.51710505       2.53454759       0.29416605        4      -0.00000000      -0.00632882       0.00916575
O        7.72011878       5.52880288       1.31003121        5       0.00529092      -0.00980158       0.00000000
O        8.85830460       2.43687639       2.73425495        6      -0.00529092       0.00347276       0.00916575
O        4.55678651       4.80463253       2.26590519        7       0.00529092      -0.00347276      -0.00916575
O        6.89798606       4.70696133       4.70599409        8       0.00000000       0.00632882      -0.00916575
O        5.69497233       1.71270603       3.69012894        9      -0.00529092       0.00980158      -0.00000000
10
Lattice="6.323958751368596 0.08415056296992525 0.05810478124936656 3.5404446091555903 5.2406857925047134 0.05810478124937148 3.540444609155597 1.9111432775366608 4.880132694311818" Properties=species:S:1:pos:R:3:spacegroup_kinds:I:1:forces:R:3 spacegroup="P 1" unit_cell=conventional occupancy="_JSON {\"0\": {\"In\": 1}, \"1\": {\"In\": 1}, \"2\": {\"In\": 1}, \"3\": {\"In\": 1}, \"4\": {\"O\": 1}, \"5\": {\"O\": 1}, \"6\": {\"O\": 1}, \"7\": {\"O\": 1}, \"8\": {\"O\": 1}, \"9\": {\"O\": 1}}" n_minim_iter=5 energy=-11285.970145032421 stress="0.10659896550719127 -0.00023470780239453738 -0.00016206244023454308 -0.00023470780239453738 0.10690707203861295 -8.74818212821375e-05 -0.00016206244023454308 -8.74818212821375e-05 0.10697336309046708" free_energy=-11285.970145032421 pbc="T T T"
In      11.40010157       6.15381114       4.24912012        0      -0.01363046      -0.00735776      -0.00508043
In       8.70717040       4.70015832       3.24539327        1       0.01363046       0.00735776       0.00508043
In       4.69767758       2.53582133       1.75094899        2      -0.01363046      -0.00735776      -0.00508043
In       2.00474641       1.08216850       0.74722214        3       0.01363046       0.00735776       0.00508043
O        6.51319137       2.53197044       0.29202050        4      -0.00000000      -0.00365196       0.00528896
O        7.71417768       5.52593818       1.30719035        5       0.00305305      -0.00565586      -0.00000000
O        8.85264968       2.43301700       2.73208685        6      -0.00305305       0.00200391       0.00528896
O        4.55219830       4.80296265       2.26425541        7       0.00305305      -0.00200391      -0.00528896
O        6.89165661       4.70400920       4.70432176        8       0.00000000       0.00365196      -0.00528896
O        5.69067030       1.71004147       3.68915191        9      -0.00305305       0.00565586      -0.00000000
10
Lattice="6.325898167381213 0.08610893647742583 0.05945701063728586 3.5431460191057513 5.241232551634525 0.05945701063729078 3.543146019105759 1.912601507232664 4.880164881534077" Properties=species:S:1:pos:R:3:spacegroup_kinds:I:1:forces:R:3 spacegroup="P 1" unit_cell=conventional occupancy="_JSON {\"0\": {\"In\": 1}, \"1\": {\"In\": 1}, \"2\": {\"In\": 1}, \"3\": {\"In\": 1}, \"4\": {\"O\": 1}, \"5\": {\"O\": 1}, \"6\": {\"O\": 1}, \"7\": {\"O\": 1}, \"8\": {\"O\": 1}, \"9\": {\"O\": 1}}" n_minim_iter=6 energy=-11285.970250309132 stress="0.1067860887404431 -1.328394216983301e-06 -9.172370977535024e-07 -1.328394216983301e-06 0.10678783255814095 -4.951278909491647e-07 -9.172370977535024e-07 -4.951278909491647e-07 0.1067882077496097" free_energy=-11285.970250309132 pbc="T T T"
In      11.40464210       6.15626213       4.25081249        0      -0.00011829      -0.00006385      -0.00004409
In       8.71364322       4.70365237       3.24780586        1       0.00011829       0.00006385       0.00004409
In       4.69854699       2.53629064       1.75127304        2      -0.00011829      -0.00006385      -0.00004409
In       2.00754812       1.08368087       0.74826641        3       0.00011829       0.00006385       0.00004409
O        6.51599664       2.53340460       0.29415685        4       0.00000000       0.00024436      -0.00035389
O        7.71878164       5.52735168       1.30922674        5      -0.00020428       0.00037844      -0.00000000
O        8.85635766       2.43601018       2.73423929        6       0.00020428      -0.00013408      -0.00035389
O        4.55583255       4.80393283       2.26483962        7      -0.00020428       0.00013408       0.00035389
O        6.89619358       4.70653841       4.70492206        8       0.00000000      -0.00024436       0.00035389
O        5.69340858       1.71259133       3.68985217        9       0.00020428      -0.00037844       0.00000000
