10
Lattice="5.9824543760600095 0.012324995051447463 0.008510235892538853 3.2930071651069617 4.99459869035509 0.008510235892546847 3.2930071651069617 1.7775757570671826 4.6675810576463235" Properties=species:S:1:pos:R:3:spacegroup_kinds:I:1:forces:R:3 spacegroup="P 1" unit_cell=conventional occupancy="_JSON {\"0\": {\"In\": 1}, \"1\": {\"In\": 1}, \"2\": {\"In\": 1}, \"3\": {\"In\": 1}, \"4\": {\"O\": 1}, \"5\": {\"O\": 1}, \"6\": {\"O\": 1}, \"7\": {\"O\": 1}, \"8\": {\"O\": 1}, \"9\": {\"O\": 1}}" n_minim_iter=1 energy=-11287.532020926457 stress="0.04359540675545374 0.00020421681329870246 0.00014100884022402938 0.00020421681329870246 0.04332732647172421 7.611702097562237e-05 0.00014100884022402938 7.611702097562237e-05 0.04326964731899727" free_energy=-11287.532020926457 pbc="T T T"
In      10.76275528       5.80976959       4.01156426        0      -0.05975544      -0.03225617      -0.02227244
In       8.08994779       4.36697959       3.01533804        1       0.05975544       0.03225617       0.02227244
In       4.47852093       2.41751987       1.66926349        2      -0.05975544      -0.03225617      -0.02227244
In       1.80571343       0.97472987       0.67303727        3       0.05975544       0.03225617       0.02227244
O        6.13334437       2.35333833       0.23251743        4      -0.00000000      -0.03160586       0.04577336
O        7.23556610       5.20788356       1.17966062        5       0.02642266      -0.04894869      -0.00000000
O        8.32412980       2.23382936       2.56630796        6      -0.02642266       0.01734283       0.04577336
O        4.24433891       4.55067010       2.11829357        7       0.02642266      -0.01734283      -0.04577336
O        6.43512435       4.43116113       4.45208410        8      -0.00000000       0.03160586      -0.04577336
O        5.33290261       1.57661590       3.50494091        9      -0.02642266       0.04894869      -0.00000000
10
Lattice="5.9758368806371625 0.00551423609649822 0.0038075025387410283 3.2836821723618805 4.992803643414767 0.0038075025387490366 3.2836821723618788 1.772542096280129 4.667568664271182" Properties=species:S:1:pos:R:3:spacegroup_kinds:I:1:forces:R:3 spacegroup="P 1" unit_cell=conventional occupancy="_JSON {\"0\": {\"In\": 1}, \"1\": {\"In\": 1}, \"2\": {\"In\": 1}, \"3\": {\"In\": 1}, \"4\": {\"O\": 1}, \"5\": {\"O\": 1}, \"6\": {\"O\": 1}, \"7\": {\"O\": 1}, \"8\": {\"O\": 1}, \"9\": {\"O\": 1}}" n_minim_iter=2 energy=-11287.532878042755 stress="0.04190833819131904 -0.0010721043118771798 -0.0007402729621872426 -0.0010721043118771798 0.04331571510099689 -0.00039960170328256155 -0.0007402729621872426 -0.00039960170328256155 0.043618521063894224" free_energy=-11287.532878042755 pbc="T T T"
In      10.73872629       5.79679866       4.00260802        0      -0.02933807      -0.01583678      -0.01093508
In       8.07607556       4.35949131       3.01016749        1       0.02933807       0.01583678       0.01093508
In       4.46712568       2.41136867       1.66501618        2      -0.02933807      -0.01583678      -0.01093508
In       1.80447494       0.97406133       0.67257566        3       0.02933807       0.01583678       0.01093508
O        6.12371875       2.34590966       0.22869999        4      -0.00000000      -0.01660017       0.02404128
O        7.22179081       5.19922077       1.17260342        5       0.01387782      -0.02570904      -0.00000000
O        8.30932887       2.22483388       2.56248432        6      -0.01387782       0.00910887       0.02404128
O        4.23387237       4.54602611       2.11269935        7       0.01387782      -0.00910887      -0.02404128
O        6.41948248       4.42495032       4.44648369        8       0.00000000       0.01660017      -0.02404128
O        5.32141043       1.57163921       3.50258025        9      -0.01387782       0.02570904       0.00000000
10
Lattice="5.990533536126808 0.020623310011976922 0.014240105765094347 3.304377809410448 4.996799441747846 0.014240105765102344 3.3043778094104463 1.783713667081555 4.667608916300754" Properties=species:S:1:pos:R:3:spacegroup_kinds:I:1:forces:R:3 spacegroup="P 1" unit_cell=conventional occupancy="_JSON {\"0\": {\"In\": 1}, \"1\": {\"In\": 1}, \"2\": {\"In\": 1}, \"3\": {\"In\": 1}, \"4\": {\"O\": 1}, \"5\": {\"O\": 1}, \"6\": {\"O\": 1}, \"7\": {\"O\": 1}, \"8\": {\"O\": 1}, \"9\": {\"O\": 1}}" n_minim_iter=3 energy=-11287.534812968186 stress="0.042033725696855255 -1.1749748936098958e-05 -8.113036012476956e-06 -1.1749748936098958e-05 0.042049149872105125 -4.379442912701796e-06 -8.113036012476956e-06 -4.379442912701796e-06 0.04205246848051453" free_energy=-11287.534812968186 pbc="T T T"
In      10.78025630       5.81921669       4.01808735        0      -0.03395075      -0.01832672      -0.01265435
In       8.11867744       4.38248795       3.02604634        1       0.03395075       0.01832672       0.01265435
In       4.48061172       2.41864848       1.67004279        2      -0.03395075      -0.01832672      -0.01265435
In       1.81903287       0.98191974       0.67800178        3       0.03395075       0.01832672       0.01265435
O        6.14508906       2.35612551       0.24625040        4      -0.00000000       0.01994483      -0.02888521
O        7.25761188       5.20874150       1.18826239        5      -0.01667398       0.03088899      -0.00000000
O        8.33694405       2.24823633       2.58005486        6       0.01667398      -0.01094416      -0.02888521
O        4.26234511       4.55290010       2.11603427        7      -0.01667398       0.01094416       0.02888521
O        6.45420010       4.44501092       4.44983873        8      -0.00000000      -0.01994483       0.02888521
O        5.34167728       1.59239493       3.50782674        9       0.01667398      -0.03088899       0.00000000
10
Lattice="5.994706712559727 0.024902506002631355 0.01719483046549866 3.310245151668134 4.99794014972883 0.017194830465506662 3.310245151668133 1.7868808771217253 4.6676287484592125" Properties=species:S:1:pos:R:3:spacegroup_kinds:I:1:forces:R:3 spacegroup="P 1" unit_cell=conventional occupancy="_JSON {\"0\": {\"In\": 1}, \"1\": {\"In\": 1}, \"2\": {\"In\": 1}, \"3\": {\"In\": 1}, \"4\": {\"O\": 1}, \"5\": {\"O\": 1}, \"6\": {\"O\": 1}, \"7\": {\"O\": 1}, \"8\": {\"O\": 1}, \"9\": {\"O\": 1}}" n_minim_iter=4 energy=-11287.535523439683 stress="0.041775627313736505 4.846127111761757e-06 3.3461826347075738e-06 4.846127111761757e-06 0.04176926568801773 1.8062799249703743e-06 3.3461826347075738e-06 1.8062799249703743e-06 0.041767896943896335" free_energy=-11287.535523439683 pbc="T T T"
In      10.78985194       5.82439645       4.02166390        0      -0.01468344      -0.00792617      -0.00547291
In       8.13294360       4.39018886       3.03136372        1       0.01468344       0.00792617       0.00547291
In       4.48225343       2.41953468       1.67065470        2      -0.01468344      -0.00792617      -0.00547291
In       1.82534509       0.98532710       0.68035451        3       0.01468344       0.00792617       0.00547291
O        6.15115262       2.36058553       0.24895861        4      -0.00000000       0.00780969      -0.01131043
O        7.26646394       5.21386716       1.19269944        5      -0.00652894       0.01209504      -0.00000000
O        8.34608644       2.25401103       2.58277298        6       0.00652894      -0.00428535      -0.01131043
O        4.26911059       4.55571252       2.11924543        7      -0.00652894       0.00428535       0.01131043
O        6.46404441       4.44913802       4.45305981        8       0.00000000      -0.00780969       0.01131043
O        5.34873308       1.59585639       3.50931898        9       0.00652894      -0.01209504      -0.00000000
10
Lattice="5.997798787592693 0.02806999795874875 0.01938193915168922 3.3145898798547515 4.99878706783938 0.0193819391516972 3.3145898798547497 1.7892261752362915 4.667645820219531" Properties=species:S:1:pos:R:3:spacegroup_kinds:I:1:forces:R:3 spacegroup="P 1" unit_cell=conventional occupancy="_JSON {\"0\": {\"In\": 1}, \"1\": {\"In\": 1}, \"2\": {\"In\": 1}, \"3\": {\"In\": 1}, \"4\": {\"O\": 1}, \"5\": {\"O\": 1}, \"6\": {\"O\": 1}, \"7\": {\"O\": 1}, \"8\": {\"O\": 1}, \"9\": {\"O\": 1}}" n_minim_iter=5 energy=-11287.535673657045 stress="0.04152521952147635 -6.191170675525536e-06 -4.2749162120643375e-06 -6.191170675525536e-06 0.04153334681671006 -2.307612511549374e-06 -4.2749162120643375e-06 -2.307612511549374e-06 0.04153509545767925" free_energy=-11287.535673657045 pbc="T T T"
In      10.79684434       5.82817097       4.02427015        0       0.00040578       0.00021904       0.00015125
In       8.14362349       4.39595390       3.03534440        1      -0.00040578      -0.00021904      -0.00015125
In       4.48335507       2.42012935       1.67106531        2       0.00040579       0.00021904       0.00015125
In       1.83013422       0.98791228       0.68213955        3      -0.00040578      -0.00021904      -0.00015125
O        6.15564404       2.36378877       0.25110717        4      -0.00000000      -0.00012007       0.00017389
O        7.27310301       5.21751008       1.19598437        5       0.00010038      -0.00018595       0.00000000
O        8.35277494       2.25834113       2.58493008        6      -0.00010038       0.00006588       0.00017389
O        4.27420362       4.55774213       2.12147963        7       0.00010038      -0.00006588      -0.00017389
O        6.47133452       4.45229449       4.45530254        8      -0.00000000       0.00012007      -0.00017389
O        5.35387555       1.59857318       3.51042534        9      -0.00010038       0.00018595       0.00000000
