10
Lattice="6.325898167381213 0.08610893647742583 0.05945701063728586 3.5431460191057513 5.241232551634525 0.05945701063729078 3.543146019105759 1.912601507232664 4.880164881534077" Properties=species:S:1:pos:R:3:spacegroup_kinds:I:1:forces:R:3 spacegroup="P 1" unit_cell=conventional occupancy="_JSON {\"0\": {\"In\": 1}, \"1\": {\"In\": 1}, \"2\": {\"In\": 1}, \"3\": {\"In\": 1}, \"4\": {\"O\": 1}, \"5\": {\"O\": 1}, \"6\": {\"O\": 1}, \"7\": {\"O\": 1}, \"8\": {\"O\": 1}, \"9\": {\"O\": 1}}" n_minim_iter=6 energy=-11285.970250309132 stress="0.1067860887404431 -1.328394216983301e-06 -9.172370977535024e-07 -1.328394216983301e-06 0.10678783255814095 -4.951278909491647e-07 -9.172370977535024e-07 -4.951278909491647e-07 0.1067882077496097" free_energy=-11285.970250309132 pbc="T T T"
In      11.40464210       6.15626213       4.25081249        0      -0.00011829      -0.00006385      -0.00004409
In       8.71364322       4.70365237       3.24780586        1       0.00011829       0.00006385       0.00004409
In       4.69854699       2.53629064       1.75127304        2      -0.00011829      -0.00006385      -0.00004409
In       2.00754812       1.08368087       0.74826641        3       0.00011829       0.00006385       0.00004409
O        6.51599664       2.53340460       0.29415685        4       0.00000000       0.00024436      -0.00035389
O        7.71878164       5.52735168       1.30922674        5      -0.00020428       0.00037844      -0.00000000
O        8.85635766       2.43601018       2.73423929        6       0.00020428      -0.00013408      -0.00035389
O        4.55583255       4.80393283       2.26483962        7      -0.00020428       0.00013408       0.00035389
O        6.89619358       4.70653841       4.70492206        8       0.00000000      -0.00024436       0.00035389
O        5.69340858       1.71259133       3.68985217        9       0.00020428      -0.00037844       0.00000000
