10
Lattice="5.545803342946605 -0.07508146530808106 -0.05184269675257576 2.9803349676030124 4.67751808397929 -0.05184269675258494 2.9803349676030146 1.608794308887798 4.392453068941099" Properties=species:S:1:pos:R:3:spacegroup_kinds:I:1:forces:R:3 spacegroup="P 1" unit_cell=conventional occupancy="_JSON {\"0\": {\"In\": 1}, \"1\": {\"In\": 1}, \"2\": {\"In\": 1}, \"3\": {\"In\": 1}, \"4\": {\"O\": 1}, \"5\": {\"O\": 1}, \"6\": {\"O\": 1}, \"7\": {\"O\": 1}, \"8\": {\"O\": 1}, \"9\": {\"O\": 1}}" n_minim_iter=6 energy=-11286.44362981213 stress="-0.1658818586265392 4.853602821567912e-05 3.351344336813253e-05 4.853602821567912e-05 -0.1659455730270679 1.8090663532182667e-05 3.351344336813253e-05 1.8090663532182667e-05 -0.16595928158068426" free_energy=-11286.44362981213 pbc="T T T"
In       9.91563524       5.35249149       3.69582016        0      -0.00283116      -0.00152827      -0.00105525
In       7.34407468       3.96435491       2.73733136        1       0.00283116       0.00152827       0.00105525
In       4.16239860       2.24687603       1.55143632        2      -0.00283116      -0.00152827      -0.00105525
In       1.59083805       0.85873945       0.59294752        3       0.00283116       0.00152827       0.00105525
O        5.64952000       2.16662437       0.10293876        4       0.00000000       0.00073143      -0.00105930
O        6.59514948       4.86279742       1.02034922        5      -0.00061148       0.00113278      -0.00000000
O        7.68422548       1.96225014       2.29916529        6       0.00061148      -0.00040135      -0.00105930
O        3.82224781       4.24898079       1.98960239        7      -0.00061148       0.00040135       0.00105930
O        5.85695329       4.04460657       4.18582892        8       0.00000000      -0.00073143       0.00105930
O        4.91132381       1.34843351       3.26841846        9       0.00061148      -0.00113278       0.00000000
