10
Lattice="5.411196059646528 -0.10279327850194786 -0.07097731435731935 2.883305796659603 4.580191801331951 -0.0709773143573107 2.8833057966596054 1.5564176533417573 4.308219911344816" Properties=species:S:1:pos:R:3:spacegroup_kinds:I:1:forces:R:3 spacegroup="P 1" unit_cell=conventional occupancy="_JSON {\"0\": {\"In\": 1}, \"1\": {\"In\": 1}, \"2\": {\"In\": 1}, \"3\": {\"In\": 1}, \"4\": {\"O\": 1}, \"5\": {\"O\": 1}, \"6\": {\"O\": 1}, \"7\": {\"O\": 1}, \"8\": {\"O\": 1}, \"9\": {\"O\": 1}}" n_minim_iter=1 energy=-11285.029560284802 stress="-0.2674636960308372 0.004814258901753304 0.003324178121852416 0.004814258901753304 -0.27378348855914053 0.0017944019387313229 0.003324178121852416 0.0017944019387313229 -0.2751432315257545" free_energy=-11285.029560284802 pbc="T T T"
In       9.64946562       5.20881228       3.59661168        0       0.16462887       0.08886719       0.06136154
In       7.11724587       3.84191200       2.65278624        1      -0.16462887      -0.08886719      -0.06136154
In       4.06056179       2.19190419       1.51347904        2       0.16462887       0.08886719       0.06136154
In       1.52834205       0.82500391       0.56965360        3      -0.16462887      -0.08886719      -0.06136154
O        5.50004995       2.10243355       0.07140819        4      -0.00000000      -0.00873730       0.01265384
O        6.40216518       4.74666143       0.97058901        5       0.00730442      -0.01353164       0.00000000
O        7.48124051       1.88113425       2.22551815        6      -0.00730442       0.00479435       0.01265384
O        3.69656715       4.15268194       1.94074714        7       0.00730442      -0.00479435      -0.01265384
O        5.67775771       3.93138264       4.09485709        8       0.00000000       0.00873730      -0.01265384
O        4.77564248       1.28715475       3.19567628        9      -0.00730442       0.01353164       0.00000000
10
Lattice="5.391098602394542 -0.12425205944604235 -0.08579430106102608 2.8543382349661743 4.575165128760613 -0.08579430106101739 2.854338234966176 1.5407808712681546 4.30876907297848" Properties=species:S:1:pos:R:3:spacegroup_kinds:I:1:forces:R:3 spacegroup="P 1" unit_cell=conventional occupancy="_JSON {\"0\": {\"In\": 1}, \"1\": {\"In\": 1}, \"2\": {\"In\": 1}, \"3\": {\"In\": 1}, \"4\": {\"O\": 1}, \"5\": {\"O\": 1}, \"6\": {\"O\": 1}, \"7\": {\"O\": 1}, \"8\": {\"O\": 1}, \"9\": {\"O\": 1}}" n_minim_iter=2 energy=-11285.035117164298 stress="-0.26977749308454946 -0.0009318496757385024 -0.0006434291062302619 -0.0009318496757385024 -0.2685542317849158 -0.0003473250820124561 -0.0006434291062302619 -0.0003473250820124561 -0.2682910394479606" free_energy=-11285.035117164298 pbc="T T T"
In       9.58333465       5.17311457       3.57196292        0       0.30238374       0.16322770       0.11270644
In       7.06632797       3.81442635       2.63380779        1      -0.30238374      -0.16322770      -0.11270644
In       4.03344711       2.17726760       1.50337268        2       0.30238374       0.16322770       0.11270644
In       1.51644043       0.81857938       0.56521756        3      -0.30238374      -0.16322770      -0.11270644
O        5.47049307       2.08337207       0.05354455        4      -0.00000000      -0.04319502       0.06255742
O        6.35628659       4.72629297       0.94850082        5       0.03611125      -0.06689707      -0.00000000
O        7.43903779       1.85084956       2.20792909        6      -0.03611125       0.02370205       0.06255742
O        3.66073729       4.14084439       1.92925139        7       0.03611125      -0.02370205      -0.06255742
O        5.62928201       3.90832188       4.08363592        8       0.00000000       0.04319502      -0.06255742
O        4.74348849       1.26540099       3.18867966        9      -0.03611125       0.06689707       0.00000000
10
Lattice="5.363230327530358 -0.15425090253591855 -0.10650808067168015 2.8139671213579733 4.568328132587543 -0.10650808067167143 2.813967121357976 1.518988415546786 4.309714618356284" Properties=species:S:1:pos:R:3:spacegroup_kinds:I:1:forces:R:3 spacegroup="P 1" unit_cell=conventional occupancy="_JSON {\"0\": {\"In\": 1}, \"1\": {\"In\": 1}, \"2\": {\"In\": 1}, \"3\": {\"In\": 1}, \"4\": {\"O\": 1}, \"5\": {\"O\": 1}, \"6\": {\"O\": 1}, \"7\": {\"O\": 1}, \"8\": {\"O\": 1}, \"9\": {\"O\": 1}}" n_minim_iter=3 energy=-11285.050155034682 stress="-0.2576894599101799 -0.0006007958057874934 -0.000414841061806889 -0.0006007958057874934 -0.2569007809204789 -0.00022393252547283553 -0.000414841061806889 -0.00022393252547283553 -0.2567310916940681" free_energy=-11285.050155034682 pbc="T T T"
In       9.50719200       5.13201253       3.54358254        0       0.06935516       0.03743814       0.02585051
In       6.97955486       3.76758595       2.60146515        1      -0.06935516      -0.03743814      -0.02585051
In       4.01160972       2.16547971       1.49523331        2       0.06935516       0.03743814       0.02585051
In       1.48397257       0.80105313       0.55311593        3      -0.06935516      -0.03743814      -0.02585051
O        5.42940631       2.05460049       0.03178557        4       0.00000000       0.10149003      -0.14698348
O        6.29427447       4.69458847       0.91766654        5      -0.08484617       0.15717983       0.00000000
O        7.37850527       1.80981127       2.18664288        6       0.08484617      -0.05568980      -0.14698348
O        3.61265931       4.12325439       1.91005558        7      -0.08484617       0.05568980       0.14698348
O        5.56175827       3.87846517       4.06491289        8      -0.00000000      -0.10149003       0.14698348
O        4.69689010       1.23847719       3.17903193        9       0.08484617      -0.15717983      -0.00000000
10
Lattice="5.3548910900073095 -0.16328395901258425 -0.11274527923656058 2.801839519302037 4.56631312386566 -0.11274527923655177 2.8018395193020407 1.5124418973264742 4.310040202873916" Properties=species:S:1:pos:R:3:spacegroup_kinds:I:1:forces:R:3 spacegroup="P 1" unit_cell=conventional occupancy="_JSON {\"0\": {\"In\": 1}, \"1\": {\"In\": 1}, \"2\": {\"In\": 1}, \"3\": {\"In\": 1}, \"4\": {\"O\": 1}, \"5\": {\"O\": 1}, \"6\": {\"O\": 1}, \"7\": {\"O\": 1}, \"8\": {\"O\": 1}, \"9\": {\"O\": 1}}" n_minim_iter=4 energy=-11285.05984658488 stress="-0.24889643928506802 0.0013837201136492774 0.0009554392948005425 0.0013837201136492774 -0.25071288169497935 0.0005157491748660709 0.0009554392948005425 0.0005157491748660709 -0.2511037006620044" free_energy=-11285.05984658488 pbc="T T T"
In       9.49501259       5.12543804       3.53904294        0      -0.03493955      -0.01886048      -0.01302290
In       6.94284262       3.74776856       2.58778153        1       0.03493955       0.01886048       0.01302290
In       4.01572752       2.16770251       1.49676812        2      -0.03493955      -0.01886048      -0.01302290
In       1.46355755       0.79003303       0.54550671        3       0.03493955       0.01886048       0.01302290
O        5.41708808       2.05289119       0.01519383        4       0.00000000       0.03300669      -0.04780212
O        6.26986830       4.69582567       0.90839213        5      -0.02759376       0.05111819      -0.00000000
O        7.36614738       1.79366881       2.17021393        6       0.02759376      -0.01811149      -0.04780212
O        3.59242276       4.12180226       1.91433572        7      -0.02759376       0.01811149       0.04780212
O        5.54148206       3.86257989       4.06935582        8      -0.00000000      -0.03300669       0.04780212
O        4.68870183       1.21964540       3.17615751        9       0.02759376      -0.05111819       0.00000000
10
Lattice="5.3493123070710595 -0.16934164170457489 -0.11692802401299207 2.7937140663002347 4.564973216345659 -0.11692802401298326 2.7937140663002387 1.5080557519137836 4.31026918856266" Properties=species:S:1:pos:R:3:spacegroup_kinds:I:1:forces:R:3 spacegroup="P 1" unit_cell=conventional occupancy="_JSON {\"0\": {\"In\": 1}, \"1\": {\"In\": 1}, \"2\": {\"In\": 1}, \"3\": {\"In\": 1}, \"4\": {\"O\": 1}, \"5\": {\"O\": 1}, \"6\": {\"O\": 1}, \"7\": {\"O\": 1}, \"8\": {\"O\": 1}, \"9\": {\"O\": 1}}" n_minim_iter=5 energy=-11285.060418833069 stress="-0.24850660335391841 7.946244409665422e-05 5.486770111181308e-05 7.946244409665422e-05 -0.2486109156009172 2.961776025079605e-05 5.486770111181308e-05 2.961776025079605e-05 -0.24863335903414285" free_energy=-11285.060418833069 pbc="T T T"
In       9.47839135       5.11646585       3.53284777        0      -0.00280925      -0.00151644      -0.00104708
In       6.92671931       3.73906515       2.58177194        1       0.00280925       0.00151644       0.00104708
In       4.01002113       2.16462218       1.49464120        2      -0.00280925      -0.00151644      -0.00104708
In       1.45834909       0.78722149       0.54356537        3       0.00280925       0.00151644       0.00104708
O        5.40884127       2.04882386       0.00830585        4       0.00000000       0.00121472      -0.00175922
O        6.25596412       4.69213506       0.90217526        5      -0.00101551       0.00188126       0.00000000
O        7.35543248       1.78445431       2.16344044        6       0.00101551      -0.00066654      -0.00175922
O        3.58130797       4.11923303       1.91297270        7      -0.00101551       0.00066654       0.00175922
O        5.52789918       3.85486347       4.06810729        8       0.00000000      -0.00121472       0.00175922
O        4.68077633       1.21155228       3.17423788        9       0.00101551      -0.00188126      -0.00000000
