10
Lattice="5.044868638143789 -0.3171205840518826 -0.21896730711824042 2.5031152417705855 4.391546325313215 -0.2189673071182445 2.503115241770591 1.3511895807770855 4.184245753508997" Properties=species:S:1:pos:R:3:spacegroup_kinds:I:1:forces:R:3 spacegroup="P 1" unit_cell=conventional occupancy="_JSON {\"0\": {\"In\": 1}, \"1\": {\"In\": 1}, \"2\": {\"In\": 1}, \"3\": {\"In\": 1}, \"4\": {\"O\": 1}, \"5\": {\"O\": 1}, \"6\": {\"O\": 1}, \"7\": {\"O\": 1}, \"8\": {\"O\": 1}, \"9\": {\"O\": 1}}" n_minim_iter=5 energy=-11281.64198565421 stress="-0.47545626706094396 -1.3077155267666554e-05 -9.029590800792936e-06 -1.3077155267666554e-05 -0.4754391003664603 -4.874201637840667e-06 -9.029590800792936e-06 -4.874201637840667e-06 -0.4754354068477755" free_energy=-11281.64198565421 pbc="T T T"
In       8.75796125       4.72757539       3.26432437        0       0.00030723       0.00016584       0.00011451
In       6.31868742       3.41084760       2.35514234        1      -0.00030723      -0.00016584      -0.00011451
In       3.73241169       2.01476772       1.39116880        2       0.00030723       0.00016584       0.00011451
In       1.29313785       0.69803994       0.48198677        3      -0.00030723      -0.00016584      -0.00011451
O        5.03520909       1.84186659      -0.10561574        4      -0.00000000       0.00010662      -0.00015442
O        5.74836023       4.39102928       0.71761048        5      -0.00008914       0.00016513      -0.00000000
O        6.82517320       1.52004881       1.98650714        6       0.00008914      -0.00005851      -0.00015442
O        3.22592591       3.90556651       1.75980400        7      -0.00008914       0.00005851       0.00015442
O        5.01589002       3.58374873       3.85192687        8      -0.00000000      -0.00010662       0.00015442
O        4.30273888       1.03458604       3.02870066        9       0.00008914      -0.00016513       0.00000000
