10
Lattice="5.465311610204931 -0.10382127948333653 -0.07168713458953054 2.9121407675042286 4.6259967579922 -0.07168713458952428 2.912140767504232 1.571982862452837 4.351304968670264" Properties=species:S:1:pos:R:3:spacegroup_kinds:I:1:forces:R:3 spacegroup="P 1" unit_cell=conventional occupancy="_JSON {\"0\": {\"In\": 1}, \"1\": {\"In\": 1}, \"2\": {\"In\": 1}, \"3\": {\"In\": 1}, \"4\": {\"O\": 1}, \"5\": {\"O\": 1}, \"6\": {\"O\": 1}, \"7\": {\"O\": 1}, \"8\": {\"O\": 1}, \"9\": {\"O\": 1}}" n_minim_iter=5 energy=-11285.825767755461 stress="-0.21035350677504028 -0.00021492310486796796 -0.00014840138347104815 -0.00021492310486796796 -0.2100713720874976 -8.010754017055681e-05 -0.00014840138347104815 -8.010754017055681e-05 -0.21001066904067509" free_energy=-11285.825767755461 pbc="T T T"
In       9.74596667       5.26090386       3.63258019        0       0.00183360       0.00098978       0.00068343
In       7.18842305       3.88033366       2.67931587        1      -0.00183360      -0.00098978      -0.00068343
In       4.10117010       2.21382469       1.52861484        2       0.00183360       0.00098978       0.00068343
In       1.54362648       0.83325449       0.57535052        3      -0.00183360      -0.00098978      -0.00068343
O        5.55505410       2.12345928       0.07212232        4      -0.00000000       0.00105230      -0.00152401
O        6.46619108       4.79413120       0.98029554        5      -0.00087973       0.00162973      -0.00000000
O        7.55605788       1.89994684       2.24777481        6       0.00087973      -0.00057742      -0.00152401
O        3.73353527       4.19421151       1.96015590        7      -0.00087973       0.00057742       0.00152401
O        5.73453906       3.97069907       4.13580838        8      -0.00000000      -0.00105230       0.00152401
O        4.82340208       1.30002716       3.22763516        9       0.00087973      -0.00162973       0.00000000
