10
Lattice="5.294723678647017 -0.16761354518952687 -0.11573479765251649 2.765204790652466 4.518388606517709 -0.11573479765251049 2.7652047906524713 1.4926663541074292 4.266283780787717" Properties=species:S:1:pos:R:3:spacegroup_kinds:I:1:forces:R:3 spacegroup="P 1" unit_cell=conventional occupancy="_JSON {\"0\": {\"In\": 1}, \"1\": {\"In\": 1}, \"2\": {\"In\": 1}, \"3\": {\"In\": 1}, \"4\": {\"O\": 1}, \"5\": {\"O\": 1}, \"6\": {\"O\": 1}, \"7\": {\"O\": 1}, \"8\": {\"O\": 1}, \"9\": {\"O\": 1}}" n_minim_iter=1 energy=-11284.118389616904 stress="-0.3152879734844843 0.007223389497537477 0.004987648944874769 0.007223389497537477 -0.3247702892264297 0.002692348787745369 0.004987648944874769 0.002692348787745369 -0.32681046888200055" free_energy=-11284.118389616904 pbc="T T T"
In       9.38166633       5.06425337       3.49679579        0       0.19795657       0.10685759       0.07378366
In       6.85603355       3.70090875       2.55542549        1      -0.19795657      -0.10685759      -0.07378366
In       3.96909970       2.14253266       1.47938869        2       0.19795657       0.10685759       0.07378366
In       1.44346692       0.77918804       0.53801839        3      -0.19795657      -0.10685759      -0.07378366
O        5.35364515       2.02791603       0.00822109        4       0.00000000      -0.04644898       0.06726998
O        6.19212329       4.64425278       0.89296875        5       0.03883158      -0.07193655       0.00000000
O        7.28037180       1.76624431       2.14136298        6      -0.03883158       0.02548757       0.06726998
O        3.54476145       4.07719710       1.89345120        7       0.03883158      -0.02548757      -0.06726998
O        5.47148810       3.81552538       4.02659309        8      -0.00000000       0.04644898      -0.06726998
O        4.63300996       1.19918863       3.14184543        9      -0.03883158       0.07193655      -0.00000000
10
Lattice="5.269603658750457 -0.19504037568743407 -0.13467263871026508 2.728491919932759 4.512437845702265 -0.13467263871025903 2.728491919932764 1.472848629550011 4.267428844793542" Properties=species:S:1:pos:R:3:spacegroup_kinds:I:1:forces:R:3 spacegroup="P 1" unit_cell=conventional occupancy="_JSON {\"0\": {\"In\": 1}, \"1\": {\"In\": 1}, \"2\": {\"In\": 1}, \"3\": {\"In\": 1}, \"4\": {\"O\": 1}, \"5\": {\"O\": 1}, \"6\": {\"O\": 1}, \"7\": {\"O\": 1}, \"8\": {\"O\": 1}, \"9\": {\"O\": 1}}" n_minim_iter=2 energy=-11284.129134839126 stress="-0.3182494118709472 -0.001238317406732514 -0.0008550407675964237 -0.001238317406732514 -0.31662384306575303 -0.00046155372989409267 -0.0008550407675964237 -0.00046155372989409267 -0.3162740917485777" free_energy=-11284.129134839126 pbc="T T T"
In       9.29758760       5.01886741       3.46545742        0       0.40614358       0.21923760       0.15138048
In       6.79229363       3.66650174       2.53166793        1      -0.40614358      -0.21923760      -0.15138048
In       3.93429385       2.12374436       1.46641563        2       0.40614358       0.21923760       0.15138048
In       1.42899989       0.77137869       0.53262615        3      -0.40614358      -0.21923760      -0.15138048
O        5.31644870       2.00357115      -0.01429350        4      -0.00000000      -0.10784964       0.15619383
O        6.13434048       4.61839615       0.86484825        5       0.09016284      -0.16702910      -0.00000000
O        7.22704884       1.72785957       2.11942092        6      -0.09016284       0.05917945       0.15619383
O        3.49953865       4.06238653       1.87866264        7       0.09016284      -0.05917945      -0.15619383
O        5.41013879       3.78667495       4.01237706        8       0.00000000       0.10784964      -0.15619383
O        4.59224701       1.17184995       3.13323531        9      -0.09016284       0.16702910      -0.00000000
10
Lattice="5.237018869900477 -0.23099616937718814 -0.15949960900323135 2.6805527116640606 4.504926529251167 -0.1594996090032254 2.6805527116640655 1.4469708922239621 4.269201142635439" Properties=species:S:1:pos:R:3:spacegroup_kinds:I:1:forces:R:3 spacegroup="P 1" unit_cell=conventional occupancy="_JSON {\"0\": {\"In\": 1}, \"1\": {\"In\": 1}, \"2\": {\"In\": 1}, \"3\": {\"In\": 1}, \"4\": {\"O\": 1}, \"5\": {\"O\": 1}, \"6\": {\"O\": 1}, \"7\": {\"O\": 1}, \"8\": {\"O\": 1}, \"9\": {\"O\": 1}}" n_minim_iter=3 energy=-11284.153005094782 stress="-0.3044522628384717 -0.002626422376964655 -0.0018135077439595459 -0.002626422376964655 -0.30100449552111486 -0.000978937256286887 -0.0018135077439595459 -0.000978937256286887 -0.30026268677576673" free_energy=-11284.153005094782 pbc="T T T"
In       9.20433766       4.96853079       3.43070069        0       0.16653146       0.08989421       0.06207069
In       6.69284877       3.61282109       2.49460219        1      -0.16653146      -0.08989421      -0.06207069
In       3.90527551       2.10808017       1.45559973        2       0.16653146       0.08989421       0.06207069
In       1.39378662       0.75237046       0.51950123        3      -0.16653146      -0.08989421      -0.06207069
O        5.26804050       1.96728301      -0.03726676        4       0.00000000       0.08708172      -0.12611658
O        6.06277697       4.57781789       0.82805087        5      -0.07280075       0.13486537      -0.00000000
O        7.15385675       1.68014106       2.09733381        6       0.07280075      -0.04778364      -0.12611658
O        3.44426753       4.04076019       1.85286811        7      -0.07280075       0.04778364       0.12611658
O        5.33008378       3.75361824       3.98746868        8      -0.00000000      -0.08708172       0.12611658
O        4.53534731       1.14308336       3.12215105        9       0.07280075      -0.13486537      -0.00000000
10
Lattice="5.2460225509254474 -0.22101726161642848 -0.15260931341776002 2.69383564477394 4.506978006790811 -0.15260931341775413 2.6938356447739467 1.4541410618273134 4.2686782648198776" Properties=species:S:1:pos:R:3:spacegroup_kinds:I:1:forces:R:3 spacegroup="P 1" unit_cell=conventional occupancy="_JSON {\"0\": {\"In\": 1}, \"1\": {\"In\": 1}, \"2\": {\"In\": 1}, \"3\": {\"In\": 1}, \"4\": {\"O\": 1}, \"5\": {\"O\": 1}, \"6\": {\"O\": 1}, \"7\": {\"O\": 1}, \"8\": {\"O\": 1}, \"9\": {\"O\": 1}}" n_minim_iter=4 energy=-11284.160416412005 stress="-0.2986507299834091 0.00370697594836589 0.0025596148023503715 0.00370697594836589 -0.30351696575769593 0.0013816882236382616 0.0025596148023503715 0.0013816882236382616 -0.30456396687911014" free_energy=-11284.160416412005 pbc="T T T"
In       9.24372603       4.98979276       3.44538178        0      -0.02846346      -0.01536467      -0.01060909
In       6.70681471       3.62035995       2.49980767        1       0.02846346       0.01536467       0.01060909
In       3.92687911       2.11974186       1.46365196        2      -0.02846346      -0.01536467      -0.01060909
In       1.38996779       0.75030905       0.51807785        3       0.02846346       0.01536467       0.01060909
O        5.28143473       1.97861780      -0.03274503        4      -0.00000000       0.10413622      -0.15081585
O        6.08152087       4.59102631       0.83825559        5      -0.08705840       0.16127805       0.00000000
O        7.17518423       1.69266785       2.10159411        6       0.08705840      -0.05714182      -0.15081585
O        3.45850959       4.04743395       1.86186553        7      -0.08705840       0.05714182       0.15081585
O        5.35225910       3.76148400       3.99620466        8       0.00000000      -0.10413622       0.15081585
O        4.55217296       1.14907550       3.12520404        9       0.08705840      -0.16127805       0.00000000
10
Lattice="5.232701806553379 -0.23579289982266877 -0.16281168397231344 2.674173754128792 4.5039495135539 -0.16281168397230764 2.6741737541287987 1.4435275106272865 4.269460995388354" Properties=species:S:1:pos:R:3:spacegroup_kinds:I:1:forces:R:3 spacegroup="P 1" unit_cell=conventional occupancy="_JSON {\"0\": {\"In\": 1}, \"1\": {\"In\": 1}, \"2\": {\"In\": 1}, \"3\": {\"In\": 1}, \"4\": {\"O\": 1}, \"5\": {\"O\": 1}, \"6\": {\"O\": 1}, \"7\": {\"O\": 1}, \"8\": {\"O\": 1}, \"9\": {\"O\": 1}}" n_minim_iter=5 energy=-11284.166019028 stress="-0.2985729194761358 1.3153700247522411e-05 9.082446576508644e-06 1.3153700247522411e-05 -0.29859018665478804 4.902733076709597e-06 9.082446576508644e-06 4.902733076709597e-06 -0.29859390179538" free_energy=-11284.166019028 pbc="T T T"
In       9.20735445       4.97015926       3.43182513        0      -0.01163221      -0.00627910      -0.00433563
In       6.66421951       3.59736692       2.48393131        1       0.01163221       0.00627910       0.00433563
In       3.91682979       2.11431720       1.45990631        2      -0.01163221      -0.00627910      -0.00433563
In       1.37369486       0.74152486       0.51201250        3       0.01163221       0.00627910       0.00433563
O        5.26161323       1.96968049      -0.05079667        4       0.00000000       0.00724880      -0.01049812
O        6.04722447       4.58362286       0.82314772        5      -0.00606004       0.01122638       0.00000000
O        7.15017573       1.66982073       2.08393383        6       0.00606004      -0.00397758      -0.01049812
O        3.43087357       4.04186340       1.85990380        7      -0.00606004       0.00397758       0.01049812
O        5.31943608       3.74200363       3.99463430        8       0.00000000      -0.00724880       0.01049812
O        4.53382483       1.12806126       3.12068990        9       0.00606004      -0.01122638       0.00000000
10
Lattice="5.233793059009541 -0.23457965563383143 -0.1619739559083947 2.6757868263813895 4.504196072457039 -0.1619739559083889 2.675786826381397 1.4443982521674201 4.26939474758024" Properties=species:S:1:pos:R:3:spacegroup_kinds:I:1:forces:R:3 spacegroup="P 1" unit_cell=conventional occupancy="_JSON {\"0\": {\"In\": 1}, \"1\": {\"In\": 1}, \"2\": {\"In\": 1}, \"3\": {\"In\": 1}, \"4\": {\"O\": 1}, \"5\": {\"O\": 1}, \"6\": {\"O\": 1}, \"7\": {\"O\": 1}, \"8\": {\"O\": 1}, \"9\": {\"O\": 1}}" n_minim_iter=6 energy=-11284.166056872087 stress="-0.29898717693658455 1.3645731434061053e-05 9.422185488660483e-06 1.3645731434061053e-05 -0.2990050900144614 5.0861257825114826e-06 9.422185488660483e-06 5.0861257825114826e-06 -0.2990089441249578" free_energy=-11284.166056872087 pbc="T T T"
In       9.21031073       4.97175507       3.43292701        0      -0.00082665      -0.00044623      -0.00030812
In       6.66773933       3.59926693       2.48524324        1       0.00082665       0.00044623       0.00030812
In       3.91762737       2.11474774       1.46020359        2      -0.00082665      -0.00044623      -0.00030812
In       1.37505597       0.74225960       0.51251982        3       0.00082665       0.00044623       0.00030812
O        5.26323820       1.97088451      -0.04999687        4      -0.00000000       0.00057648      -0.00083488
O        6.04964365       4.58495825       0.82438775        5      -0.00048194       0.00089280       0.00000000
O        7.15261958       1.67143726       2.08470050        6       0.00048194      -0.00031633      -0.00083488
O        3.43274712       4.04257741       1.86074633        7      -0.00048194       0.00031633       0.00083488
O        5.32212850       3.74313016       3.99544370        8       0.00000000      -0.00057648       0.00083488
O        4.53572305       1.12905642       3.12105908        9       0.00048194      -0.00089280      -0.00000000
