10
Lattice="6.368214051488471 0.08537770805309203 0.058952107685482924 3.5657543585324687 5.277010082728128 0.05895210768549441 3.565754358532476 1.9248055608704198 4.913800394507" Properties=species:S:1:pos:R:3:spacegroup_kinds:I:1:forces:R:3 spacegroup="P 1" unit_cell=conventional occupancy="_JSON {\"0\": {\"In\": 1}, \"1\": {\"In\": 1}, \"2\": {\"In\": 1}, \"3\": {\"In\": 1}, \"4\": {\"O\": 1}, \"5\": {\"O\": 1}, \"6\": {\"O\": 1}, \"7\": {\"O\": 1}, \"8\": {\"O\": 1}, \"9\": {\"O\": 1}}" n_minim_iter=5 energy=-11285.607725263124 stress="0.11239164423501366 5.337754793628669e-06 3.685645078635785e-06 5.337754793628669e-06 0.1123846372392773 1.989523166428998e-06 3.685645078635785e-06 1.989523166428998e-06 0.11238312963923319" free_energy=-11285.607725263124 pbc="T T T"
In      11.47242078       6.19284929       4.27607541        0       0.00006654       0.00003592       0.00002480
In       8.77716338       4.73794075       3.27148151        1      -0.00006654      -0.00003592      -0.00002480
In       4.72255940       2.54925261       1.76022310        2       0.00006654       0.00003592       0.00002480
In       2.02730200       1.09434408       0.75562921        3      -0.00006654      -0.00003592      -0.00002480
O        6.55903772       2.55649594       0.28519682        4       0.00000000      -0.00010566       0.00015302
O        7.76339215       5.57472129       1.31687826        5       0.00008833      -0.00016363      -0.00000000
O        8.92043766       2.44716967       2.74209702        6      -0.00008833       0.00005798       0.00015302
O        4.57928512       4.84002370       2.28960760        7       0.00008833      -0.00005798      -0.00015302
O        6.94068506       4.73069743       4.74650780        8      -0.00000000       0.00010566      -0.00015302
O        5.73633063       1.71247207       3.71482635        9      -0.00008833       0.00016363       0.00000000
