10
Lattice="6.369526429955634 0.08670280997826874 0.05986707194452223 3.567582281083242 5.277380125295354 0.05986707194453378 3.56758228108325 1.925792279285877 4.913822254641335" Properties=species:S:1:pos:R:3:spacegroup_kinds:I:1:forces:R:3 spacegroup="P 1" unit_cell=conventional occupancy="_JSON {\"0\": {\"In\": 1}, \"1\": {\"In\": 1}, \"2\": {\"In\": 1}, \"3\": {\"In\": 1}, \"4\": {\"O\": 1}, \"5\": {\"O\": 1}, \"6\": {\"O\": 1}, \"7\": {\"O\": 1}, \"8\": {\"O\": 1}, \"9\": {\"O\": 1}}" n_minim_iter=1 energy=-11285.602042471764 stress="0.11549728314556791 -0.0002373647359901495 -0.00016389701610498316 -0.0002373647359901495 0.11580887749887778 -8.847213098480453e-05 -0.00016389701610498316 -8.847213098480453e-05 0.11587591897765434" free_energy=-11285.602042471764 pbc="T T T"
In      11.48329729       6.19872046       4.28012937        0      -0.04125119      -0.02226753      -0.01537541
In       8.77373921       4.73609238       3.27020523        1       0.04125119       0.02226753       0.01537541
In       4.73095179       2.55378285       1.76335117        2      -0.04125119      -0.02226753      -0.01537541
In       2.02139372       1.09115477       0.75342703        3       0.04125119       0.02226753       0.01537541
O        6.56093597       2.55087691       0.29618558        4      -0.00000000       0.07618644      -0.11033742
O        7.77201630       5.56547255       1.31825617        5      -0.06369224       0.11799160       0.00000000
O        8.91743792       2.45281078       2.75309671        6       0.06369224      -0.04180516      -0.11033742
O        4.58725308       4.83706445       2.28045969        7      -0.06369224       0.04180516       0.11033742
O        6.94375503       4.73899832       4.73737082        8       0.00000000      -0.07618644       0.11033742
O        5.73267471       1.72440268       3.71530023        9       0.06369224      -0.11799160      -0.00000000
10
Lattice="6.381881024342734 0.0991562221660916 0.06846597806521361 3.5847726315962523 5.280875168475262 0.06846597806522511 3.5847726315962603 1.9350716852498857 4.914043926148315" Properties=species:S:1:pos:R:3:spacegroup_kinds:I:1:forces:R:3 spacegroup="P 1" unit_cell=conventional occupancy="_JSON {\"0\": {\"In\": 1}, \"1\": {\"In\": 1}, \"2\": {\"In\": 1}, \"3\": {\"In\": 1}, \"4\": {\"O\": 1}, \"5\": {\"O\": 1}, \"6\": {\"O\": 1}, \"7\": {\"O\": 1}, \"8\": {\"O\": 1}, \"9\": {\"O\": 1}}" n_minim_iter=2 energy=-11285.605164097606 stress="0.11542844787712421 0.0016671259405317944 0.0011511270355506525 0.0016671259405317944 0.11323997187540641 0.0006213820394566962 0.0011511270355506525 0.0006213820394566962 0.11276910755021267" free_energy=-11285.605164097606 pbc="T T T"
In      11.52093482       6.21903732       4.29415787        0      -0.03249846      -0.01754277      -0.01211304
In       8.80620463       4.75361731       3.28230595        1       0.03249846       0.01754277       0.01211304
In       4.74522167       2.56148578       1.76866993        2      -0.03249846      -0.01754277      -0.01211304
In       2.03049148       1.09606577       0.75681801        3       0.03249846       0.01754277       0.01211304
O        6.57879709       2.56609108       0.30095787        4       0.00000000       0.02692386      -0.03899263
O        7.79623169       5.58390508       1.33120995        5      -0.02250849       0.04169758       0.00000000
O        8.94613513       2.46851331       2.75797983        6       0.02250849      -0.01477371      -0.03899263
O        4.60529117       4.84658978       2.29299606        7      -0.02250849       0.01477371       0.03899263
O        6.97262921       4.74901201       4.75001802        8      -0.00000000      -0.02692386       0.03899263
O        5.75519461       1.73119801       3.71976594        9       0.02250849      -0.04169758       0.00000000
10
Lattice="6.367470541063592 0.08462679864026199 0.05843361528768187 3.564718614106896 5.276800544705157 0.05843361528769339 3.5647186141069036 1.924246462730298 4.9137881544350375" Properties=species:S:1:pos:R:3:spacegroup_kinds:I:1:forces:R:3 spacegroup="P 1" unit_cell=conventional occupancy="_JSON {\"0\": {\"In\": 1}, \"1\": {\"In\": 1}, \"2\": {\"In\": 1}, \"3\": {\"In\": 1}, \"4\": {\"O\": 1}, \"5\": {\"O\": 1}, \"6\": {\"O\": 1}, \"7\": {\"O\": 1}, \"8\": {\"O\": 1}, \"9\": {\"O\": 1}}" n_minim_iter=3 energy=-11285.60754934564 stress="0.1123476297241786 -6.4941822982041e-05 -4.484141594981532e-05 -6.4941822982041e-05 0.11243288040531947 -2.4205539188265335e-05 -4.484141594981532e-05 -2.4205539188265335e-05 0.11245122262325612" free_energy=-11285.60754934564 pbc="T T T"
In      11.47253424       6.19291053       4.27611770        0      -0.02149231      -0.01160162      -0.00801076
In       8.77282743       4.73560019       3.26986539        1       0.02149231       0.01160162       0.00801076
In       4.72408035       2.55007363       1.76079000        2      -0.02149231      -0.01160162      -0.00801076
In       2.02437354       1.09276329       0.75453769        3       0.02149231       0.01160162       0.00801076
O        6.55796222       2.55618230       0.28403557        4       0.00000000      -0.00560424       0.00811637
O        7.76142951       5.57454525       1.31609746        5       0.00468517      -0.00867941      -0.00000000
O        8.91921354       2.44589241       2.74092965        6      -0.00468517       0.00307517       0.00811637
O        4.57769424       4.83978141       2.28972574        7       0.00468517      -0.00307517      -0.00811637
O        6.93894556       4.72949152       4.74661982        8      -0.00000000       0.00560424      -0.00811637
O        5.73547827       1.71112857       3.71455793        9      -0.00468517       0.00867941      -0.00000000
10
Lattice="6.3693050695590365 0.08647933360941826 0.059712764652114635 3.5672739884393105 5.277317693265801 0.05971276465212612 3.567273988439317 1.925625861934667 4.913818544652113" Properties=species:S:1:pos:R:3:spacegroup_kinds:I:1:forces:R:3 spacegroup="P 1" unit_cell=conventional occupancy="_JSON {\"0\": {\"In\": 1}, \"1\": {\"In\": 1}, \"2\": {\"In\": 1}, \"3\": {\"In\": 1}, \"4\": {\"O\": 1}, \"5\": {\"O\": 1}, \"6\": {\"O\": 1}, \"7\": {\"O\": 1}, \"8\": {\"O\": 1}, \"9\": {\"O\": 1}}" n_minim_iter=4 energy=-11285.607644785954 stress="0.11276733849757259 0.00013862483075627365 9.571849722958922e-05 0.00013862483075627365 0.11258536237313597 5.1669149750659304e-05 9.571849722958922e-05 5.1669149750659304e-05 0.11254620907083465" free_energy=-11285.607644785954 pbc="T T T"
In      11.47759402       6.19564182       4.27800361        0      -0.01335993      -0.00721173      -0.00497960
In       8.77818556       4.73849253       3.27186250        1       0.01335993       0.00721173       0.00497960
In       4.72566750       2.55093037       1.76138157        2      -0.01335993      -0.00721173      -0.00497960
In       2.02625903       1.09378108       0.75524047        3       0.01335993       0.00721173       0.00497960
O        6.56061580       2.55717009       0.28659061        4       0.00000000       0.00259101      -0.00375244
O        7.76609290       5.57531109       1.31802379        5      -0.00216609       0.00401275      -0.00000000
O        8.92241269       2.44892618       2.74349989        6       0.00216609      -0.00142174      -0.00375244
O        4.58144036       4.84049672       2.28974419        7      -0.00216609       0.00142174       0.00375244
O        6.94323726       4.73225281       4.74665347        8       0.00000000      -0.00259101       0.00375244
O        5.73776016       1.71411181       3.71522029        9       0.00216609      -0.00401275       0.00000000
10
Lattice="6.368214051488471 0.08537770805309203 0.058952107685482924 3.5657543585324687 5.277010082728128 0.05895210768549441 3.565754358532476 1.9248055608704198 4.913800394507" Properties=species:S:1:pos:R:3:spacegroup_kinds:I:1:forces:R:3 spacegroup="P 1" unit_cell=conventional occupancy="_JSON {\"0\": {\"In\": 1}, \"1\": {\"In\": 1}, \"2\": {\"In\": 1}, \"3\": {\"In\": 1}, \"4\": {\"O\": 1}, \"5\": {\"O\": 1}, \"6\": {\"O\": 1}, \"7\": {\"O\": 1}, \"8\": {\"O\": 1}, \"9\": {\"O\": 1}}" n_minim_iter=5 energy=-11285.607725263124 stress="0.11239164423501366 5.337754793628669e-06 3.685645078635785e-06 5.337754793628669e-06 0.1123846372392773 1.989523166428998e-06 3.685645078635785e-06 1.989523166428998e-06 0.11238312963923319" free_energy=-11285.607725263124 pbc="T T T"
In      11.47242078       6.19284929       4.27607541        0       0.00006654       0.00003592       0.00002480
In       8.77716338       4.73794075       3.27148151        1      -0.00006654      -0.00003592      -0.00002480
In       4.72255940       2.54925261       1.76022310        2       0.00006654       0.00003592       0.00002480
In       2.02730200       1.09434408       0.75562921        3      -0.00006654      -0.00003592      -0.00002480
O        6.55903772       2.55649594       0.28519682        4       0.00000000      -0.00010566       0.00015302
O        7.76339215       5.57472129       1.31687826        5       0.00008833      -0.00016363      -0.00000000
O        8.92043766       2.44716967       2.74209702        6      -0.00008833       0.00005798       0.00015302
O        4.57928512       4.84002370       2.28960760        7       0.00008833      -0.00005798      -0.00015302
O        6.94068506       4.73069743       4.74650780        8      -0.00000000       0.00010566      -0.00015302
O        5.73633063       1.71247207       3.71482635        9      -0.00008833       0.00016363       0.00000000
