10
Lattice="6.411736025055722 0.08570821805525644 0.05918032019766646 3.5899121242118643 5.313213311554153 0.05918032019766687 3.589912124211865 1.9378459997348119 4.947574242564406" Properties=species:S:1:pos:R:3:spacegroup_kinds:I:1:forces:R:3 spacegroup="P 1" unit_cell=conventional occupancy="_JSON {\"0\": {\"In\": 1}, \"1\": {\"In\": 1}, \"2\": {\"In\": 1}, \"3\": {\"In\": 1}, \"4\": {\"O\": 1}, \"5\": {\"O\": 1}, \"6\": {\"O\": 1}, \"7\": {\"O\": 1}, \"8\": {\"O\": 1}, \"9\": {\"O\": 1}}" n_minim_iter=5 energy=-11285.215820698284 stress="0.11854546461620759 -0.0002584555135116589 -0.00017845989990770774 -0.0002584555135116589 0.11888474533440999 -9.633322285861585e-05 -0.00017845989990770774 -9.633322285861585e-05 0.11895774370640855" free_energy=-11285.215820698284 pbc="T T T"
In      11.54510950       6.23208689       4.30316842        0      -0.00672084      -0.00362793      -0.00250504
In       8.84223092       4.77306442       3.29573391        1       0.00672084       0.00362793       0.00250504
In       4.74932936       2.56370312       1.77020098        2      -0.00672084      -0.00362793      -0.00250504
In       2.04645078       1.10468066       0.76276647        3       0.00672084       0.00362793       0.00250504
O        6.60375809       2.58078879       0.27687459        4       0.00000000       0.00065048      -0.00094207
O        7.81038167       5.62355449       1.32566404        5      -0.00054381       0.00100742      -0.00000000
O        8.98704663       2.45980995       2.75066171        6       0.00054381      -0.00035693      -0.00094207
O        4.60451365       4.87695759       2.31527318        7      -0.00054381       0.00035693       0.00094207
O        6.98780220       4.75597875       4.78906030        8      -0.00000000      -0.00065048       0.00094207
O        5.78117862       1.71321305       3.74027084        9       0.00054381      -0.00100742       0.00000000
