10
Lattice="5.9345926906746 0.012226390866867746 0.00844215108866956 3.2666619791680684 4.954640189024808 0.00844215108867289 3.2666619791680684 1.7633545417790364 4.630238809457019" Properties=species:S:1:pos:R:3:spacegroup_kinds:I:1:forces:R:3 spacegroup="P 1" unit_cell=conventional occupancy="_JSON {\"0\": {\"In\": 1}, \"1\": {\"In\": 1}, \"2\": {\"In\": 1}, \"3\": {\"In\": 1}, \"4\": {\"O\": 1}, \"5\": {\"O\": 1}, \"6\": {\"O\": 1}, \"7\": {\"O\": 1}, \"8\": {\"O\": 1}, \"9\": {\"O\": 1}}" n_minim_iter=4 energy=-11287.6409544437 stress="0.022173670018563532 -0.00014932439730375684 -0.00010310639824807239 -0.00014932439730375684 0.022369691716746964 -5.565716114444704e-05 -0.00010310639824807239 -5.565716114444704e-05 0.022411867013914313" free_energy=-11287.6409544437 pbc="T T T"
In      10.67664955       5.76328944       3.97947037        0       0.00236664       0.00127752       0.00088211
In       8.02522543       4.33204225       2.99121430        1      -0.00236664      -0.00127752      -0.00088211
In       4.44269123       2.39817888       1.65590881        2       0.00236664       0.00127752       0.00088211
In       1.79126711       0.96693169       0.66765275        3      -0.00236664      -0.00127752      -0.00088211
O        6.08427551       2.33451081       0.23065721        4      -0.00000000       0.00035369      -0.00051224
O        7.17767909       5.16621870       1.17022293        5      -0.00029569       0.00054777       0.00000000
O        8.25753391       2.21595796       2.54577662        6       0.00029569      -0.00019408      -0.00051224
O        4.21038275       4.51426318       2.10134650        7      -0.00029569       0.00019408       0.00051224
O        6.38364115       4.39571032       4.41646590        8       0.00000000      -0.00035369       0.00051224
O        5.29023757       1.56400243       3.47690018        9       0.00029569      -0.00054777      -0.00000000
