10
Lattice="5.295122723875105 -0.16649090304995817 -0.11495962903046886 2.7663622899122604 4.518106192050858 -0.11495962903047063 2.766362289912255 1.4932911758949083 4.265745039609091" Properties=species:S:1:pos:R:3:spacegroup_kinds:I:1:forces:R:3 spacegroup="P 1" unit_cell=conventional occupancy="_JSON {\"0\": {\"In\": 1}, \"1\": {\"In\": 1}, \"2\": {\"In\": 1}, \"3\": {\"In\": 1}, \"4\": {\"O\": 1}, \"5\": {\"O\": 1}, \"6\": {\"O\": 1}, \"7\": {\"O\": 1}, \"8\": {\"O\": 1}, \"9\": {\"O\": 1}}" n_minim_iter=1 energy=-11284.11607679633 stress="-0.3152085306314621 0.006885502322083862 0.004754342598734206 0.006885502322083862 -0.32424729381765816 0.002566409277978882 0.004754342598734206 0.002566409277978882 -0.32619204035968125" free_energy=-11284.11607679633 pbc="T T T"
In       9.38310457       5.06502974       3.49733186        0       0.19840286       0.10709850       0.07395001
In       6.85866637       3.70232996       2.55640681        1      -0.19840286      -0.10709850      -0.07395001
In       3.96918092       2.14257650       1.47941897        2       0.19840286       0.10709850       0.07395001
In       1.44474272       0.77987673       0.53849392        3      -0.19840286      -0.10709850      -0.07395001
O        5.35452318       2.02868647       0.00908916        4       0.00000000      -0.04425589       0.06409384
O        6.19371145       4.64479578       0.89399681        5       0.03699815      -0.06854007      -0.00000000
O        7.28169720       1.76757054       2.14196168        6      -0.03699815       0.02428418       0.06409384
O        3.54615009       4.07733593       1.89386409        7       0.03699815      -0.02428418      -0.06409384
O        5.47332411       3.81622000       4.02673661        8      -0.00000000       0.04425589      -0.06409384
O        4.63413584       1.20011069       3.14182896        9      -0.03699815       0.06854007       0.00000000
10
Lattice="5.271316975730533 -0.1924670718774052 -0.13289580858942204 2.7315833492031154 4.512458159223002 -0.13289580858942385 2.731583349203109 1.4745173929174127 4.266818298529123" Properties=species:S:1:pos:R:3:spacegroup_kinds:I:1:forces:R:3 spacegroup="P 1" unit_cell=conventional occupancy="_JSON {\"0\": {\"In\": 1}, \"1\": {\"In\": 1}, \"2\": {\"In\": 1}, \"3\": {\"In\": 1}, \"4\": {\"O\": 1}, \"5\": {\"O\": 1}, \"6\": {\"O\": 1}, \"7\": {\"O\": 1}, \"8\": {\"O\": 1}, \"9\": {\"O\": 1}}" n_minim_iter=2 energy=-11284.125760140982 stress="-0.3184322417667591 -0.001220146956450895 -0.0008424943275999328 -0.001220146956450895 -0.3168305257425836 -0.0004547811221083135 -0.0008424943275999328 -0.0004547811221083135 -0.31648590650435293" free_energy=-11284.125760140982 pbc="T T T"
In       9.30352019       5.02206983       3.46766865        0       0.39686979       0.21423158       0.14792389
In       6.79820531       3.66969288       2.53387137        1      -0.39686979      -0.21423158      -0.14792389
In       3.93627835       2.12481559       1.46715531        2       0.39686979       0.21423158       0.14792389
In       1.43096347       0.77243864       0.53335803        3      -0.39686979      -0.21423158      -0.14792389
O        5.31927940       2.00562381      -0.01223544        4      -0.00000000      -0.10352871       0.14993602
O        6.13896735       4.62029459       0.86736086        5       0.08655052      -0.16033718      -0.00000000
O        7.23117480       1.73121058       2.12117371        6      -0.08655052       0.05680847       0.14993602
O        3.50330886       4.06329790       1.87985297        7       0.08655052      -0.05680847      -0.14993602
O        5.41520426       3.78888467       4.01326212        8      -0.00000000       0.10352871      -0.14993602
O        4.59551631       1.17421389       3.13366582        9      -0.08655052       0.16033718       0.00000000
10
Lattice="5.239299974918954 -0.22776205770444868 -0.15726650033884054 2.6845081373026245 4.505058916692603 -0.15726650033884226 2.6845081373026187 1.449106043583043 4.268533737649437" Properties=species:S:1:pos:R:3:spacegroup_kinds:I:1:forces:R:3 spacegroup="P 1" unit_cell=conventional occupancy="_JSON {\"0\": {\"In\": 1}, \"1\": {\"In\": 1}, \"2\": {\"In\": 1}, \"3\": {\"In\": 1}, \"4\": {\"O\": 1}, \"5\": {\"O\": 1}, \"6\": {\"O\": 1}, \"7\": {\"O\": 1}, \"8\": {\"O\": 1}, \"9\": {\"O\": 1}}" n_minim_iter=3 energy=-11284.14825859287 stress="-0.30526017392358623 -0.002699288363016524 -0.0018638206853735728 -0.002699288363016524 -0.3017167536798655 -0.0010060963434795958 -0.0018638206853735728 -0.0010060963434795958 -0.30095436461129443" free_energy=-11284.14825859287 pbc="T T T"
In       9.21188549       4.97260513       3.43351397        0       0.16290317       0.08793565       0.06071833
In       6.70058887       3.61699922       2.49748713        1      -0.16290317      -0.08793565      -0.06071833
In       3.90772736       2.10940368       1.45651360        2       0.16290317       0.08793565       0.06071833
In       1.39643075       0.75379777       0.52048677        3      -0.16290317      -0.08793565      -0.06071833
O        5.27172904       1.97012690      -0.03498532        4       0.00000000       0.08525879      -0.12347650
O        6.06856744       4.58064644       0.83123368        5      -0.07127677       0.13204215       0.00000000
O        7.15939879       1.68428263       2.09928155        6       0.07127677      -0.04678336      -0.12347650
O        3.44891745       4.04212027       1.85471918        7      -0.07127677       0.04678336       0.12347650
O        5.33658719       3.75627600       3.98898605        8       0.00000000      -0.08525879       0.12347650
O        4.53974880       1.14575646       3.12276705        9       0.07127677      -0.13204215      -0.00000000
10
Lattice="5.248258536459071 -0.21784387419562481 -0.15041813399603532 2.6977155465881264 4.507105994841567 -0.150418133996037 2.697715546588122 1.4562354451854258 4.268021601627298" Properties=species:S:1:pos:R:3:spacegroup_kinds:I:1:forces:R:3 spacegroup="P 1" unit_cell=conventional occupancy="_JSON {\"0\": {\"In\": 1}, \"1\": {\"In\": 1}, \"2\": {\"In\": 1}, \"3\": {\"In\": 1}, \"4\": {\"O\": 1}, \"5\": {\"O\": 1}, \"6\": {\"O\": 1}, \"7\": {\"O\": 1}, \"8\": {\"O\": 1}, \"9\": {\"O\": 1}}" n_minim_iter=4 energy=-11284.15505450759 stress="-0.29994511902837356 0.0034162049015918614 0.0023588414813183987 0.0034162049015918614 -0.3044296527122463 0.001273310145352115 0.0023588414813183987 0.001273310145352115 -0.30539452823826113" free_energy=-11284.15505450759 pbc="T T T"
In       9.25013666       4.99325324       3.44777119        0      -0.02170789      -0.01171799      -0.00809111
In       6.71539777       3.62499311       2.50300680        1       0.02170789       0.01171799       0.00809111
In       3.92829184       2.12050445       1.46417853        2      -0.02170789      -0.01171799      -0.00809111
In       1.39355296       0.75224433       0.51941414        3       0.02170789       0.01171799       0.00809111
O        5.28505167       1.98123263      -0.03025340        4      -0.00000000       0.09846745      -0.14260602
O        6.08734596       4.59352909       0.84137820        5      -0.08231928       0.15249869       0.00000000
O        7.18047293       1.69682671       2.10375740        6       0.08231928      -0.05403124      -0.14260602
O        3.46321669       4.04867085       1.86342793        7      -0.08231928       0.05403124       0.14260602
O        5.35863795       3.76426494       3.99743873        8       0.00000000      -0.09846745       0.14260602
O        4.55634366       1.15196847       3.12580713        9       0.08231928      -0.15249869       0.00000000
10
Lattice="5.23592277827622 -0.23150971515106414 -0.15985420514375068 2.6795219354174935 4.504291984973622 -0.15985420514375237 2.6795219354174895 1.446414475922708 4.268733397231666" Properties=species:S:1:pos:R:3:spacegroup_kinds:I:1:forces:R:3 spacegroup="P 1" unit_cell=conventional occupancy="_JSON {\"0\": {\"In\": 1}, \"1\": {\"In\": 1}, \"2\": {\"In\": 1}, \"3\": {\"In\": 1}, \"4\": {\"O\": 1}, \"5\": {\"O\": 1}, \"6\": {\"O\": 1}, \"7\": {\"O\": 1}, \"8\": {\"O\": 1}, \"9\": {\"O\": 1}}" n_minim_iter=5 energy=-11284.160044097607 stress="-0.29964622753163644 5.190457494240097e-05 3.58393804204017e-05 5.190457494240097e-05 -0.2997143639061707 1.9346211463226403e-05 3.58393804204017e-05 1.9346211463226403e-05 -0.29972902387589584" free_energy=-11284.160044097607 pbc="T T T"
In       9.21674303       4.97522725       3.43532450        0      -0.00995438      -0.00537341      -0.00371026
In       6.67570693       3.60356787       2.48821297        1       0.00995438       0.00537341       0.00371026
In       3.91925971       2.11562888       1.46081201        2      -0.00995438      -0.00537341      -0.00371026
In       1.37822360       0.74396949       0.51370048        3       0.00995438       0.00537341       0.00371026
O        5.26670304       1.97300747      -0.04701778        4      -0.00000000       0.00519750      -0.00752730
O        6.05556754       4.58674093       0.82740204        5      -0.00434513       0.00804947       0.00000000
O        7.15736048       1.67566409       2.08734891        6       0.00434513      -0.00285198      -0.00752730
O        3.43760615       4.04353265       1.86167607        7      -0.00434513       0.00285198       0.00752730
O        5.32826359       3.74618927       3.99604277        8       0.00000000      -0.00519750       0.00752730
O        4.53939910       1.13245581       3.12162294        9       0.00434513      -0.00804947      -0.00000000
10
Lattice="5.236676947401428 -0.23067240204003553 -0.15927605220648597 2.6806357624272525 4.504463022126448 -0.15927605220648758 2.6806357624272494 1.4470157232904912 4.268688495903759" Properties=species:S:1:pos:R:3:spacegroup_kinds:I:1:forces:R:3 spacegroup="P 1" unit_cell=conventional occupancy="_JSON {\"0\": {\"In\": 1}, \"1\": {\"In\": 1}, \"2\": {\"In\": 1}, \"3\": {\"In\": 1}, \"4\": {\"O\": 1}, \"5\": {\"O\": 1}, \"6\": {\"O\": 1}, \"7\": {\"O\": 1}, \"8\": {\"O\": 1}, \"9\": {\"O\": 1}}" n_minim_iter=6 energy=-11284.160065536615 stress="-0.3000022953653442 2.4405500173792576e-05 1.685165463038711e-05 2.4405500173792576e-05 -0.30003433304762084 9.096576936041905e-06 1.685165463038711e-05 9.096576936041905e-06 -0.3000412261555232" free_energy=-11284.160065536615 pbc="T T T"
In       9.21867514       4.97627021       3.43604465        0      -0.00084736      -0.00045741      -0.00031583
In       6.67824756       3.60493931       2.48915993        1       0.00084736       0.00045741       0.00031583
In       3.91970090       2.11586704       1.46097646        2      -0.00084736      -0.00045741      -0.00031583
In       1.37927332       0.74453613       0.51409174        3       0.00084736       0.00045741       0.00031583
O        5.26782559       1.97381307      -0.04642848        4       0.00000000       0.00037522      -0.00054341
O        6.05725991       4.58762358       0.82825804        5      -0.00031368       0.00058111      -0.00000000
O        7.15902702       1.67679425       2.08791577        6       0.00031368      -0.00020589      -0.00054341
O        3.43892144       4.04401209       1.86222062        7      -0.00031368       0.00020589       0.00054341
O        5.33012287       3.74699327       3.99656487        8      -0.00000000      -0.00037522       0.00054341
O        4.54068855       1.13318276       3.12187834        9       0.00031368      -0.00058111      -0.00000000
