10
Lattice="6.115285954606049 0.052757648052243145 0.03642841463107582 3.3996966535594932 5.083460272275806 0.036428414631082706 3.3996966535594932 1.8351670827759963 4.740786553673809" Properties=species:S:1:pos:R:3:spacegroup_kinds:I:1:forces:R:3 spacegroup="P 1" unit_cell=conventional occupancy="_JSON {\"0\": {\"In\": 1}, \"1\": {\"In\": 1}, \"2\": {\"In\": 1}, \"3\": {\"In\": 1}, \"4\": {\"O\": 1}, \"5\": {\"O\": 1}, \"6\": {\"O\": 1}, \"7\": {\"O\": 1}, \"8\": {\"O\": 1}, \"9\": {\"O\": 1}}" n_minim_iter=1 energy=-11287.160308289975 stress="0.07083279717121148 -0.0008622610839614216 -0.0005953791622153367 -0.0008622610839614216 0.07196470787160651 -0.0003213875686593534 -0.0005953791622153367 -0.0003213875686593534 0.07220824555206554" free_energy=-11287.160308289975 pbc="T T T"
In      11.02563540       5.95167312       4.10954665        0      -0.06813684      -0.03678048      -0.02539641
In       8.34638350       4.50540440       3.11091843        1       0.06813684       0.03678048       0.02539641
In       4.56829577       2.46598061       1.70272496        2      -0.06813684      -0.03678048      -0.02539641
In       1.88904387       1.01971190       0.70409674        3       0.06813684       0.03678048       0.02539641
O        6.28631280       2.41977798       0.27945831        4      -0.00000000      -0.00087124       0.00126178
O        7.44229566       5.31848070       1.23983926        5       0.00072836      -0.00134931       0.00000000
O        8.53002659       2.32983604       2.64985159        6      -0.00072836       0.00047807       0.00126178
O        4.38465268       4.64154898       2.16379180        7       0.00072836      -0.00047807      -0.00126178
O        6.62836647       4.55160704       4.53418507        8      -0.00000000       0.00087124      -0.00126178
O        5.47238361       1.65290432       3.57380412        9      -0.00072836       0.00134931       0.00000000
10
Lattice="6.1260896122883635 0.06373524273557686 0.04400828950306383 3.4148021804295365 5.086468537943354 0.044008289503070695 3.414802180429537 1.843321094296661 4.740914074348276" Properties=species:S:1:pos:R:3:spacegroup_kinds:I:1:forces:R:3 spacegroup="P 1" unit_cell=conventional occupancy="_JSON {\"0\": {\"In\": 1}, \"1\": {\"In\": 1}, \"2\": {\"In\": 1}, \"3\": {\"In\": 1}, \"4\": {\"O\": 1}, \"5\": {\"O\": 1}, \"6\": {\"O\": 1}, \"7\": {\"O\": 1}, \"8\": {\"O\": 1}, \"9\": {\"O\": 1}}" n_minim_iter=2 energy=-11287.161240799383 stress="0.07126663244836562 8.853481151965867e-06 6.113204180746038e-06 8.853481151965867e-06 0.07125501027160959 3.2999279082707507e-06 6.113204180746038e-06 3.2999279082707507e-06 0.0712525096884794" free_energy=-11287.161240799383 pbc="T T T"
In      11.05967438       5.97004746       4.12223388        0      -0.07736736      -0.04176315      -0.02883687
In       8.37386659       4.52023986       3.12116211        1       0.07736736       0.04176315       0.02883687
In       4.58182739       2.47328502       1.70776855        2      -0.07736736      -0.04176315      -0.02883687
In       1.89601961       1.02347743       0.70669678        3       0.07736736       0.04176315       0.02883687
O        6.30196830       2.42975875       0.28858059        4      -0.00000000      -0.00447931       0.00648719
O        7.46637588       5.32939329       1.25124096        5       0.00374473      -0.00693721      -0.00000000
O        8.55236291       2.34550912       2.65903763        6      -0.00374473       0.00245790       0.00648719
O        4.40333107       4.64801577       2.16989303        7       0.00374473      -0.00245790      -0.00648719
O        6.65372568       4.56376614       4.54035007        8       0.00000000       0.00447931      -0.00648719
O        5.48931811       1.66413160       3.57768970        9      -0.00374473       0.00693721      -0.00000000
10
Lattice="6.144408087061784 0.08227846515301734 0.0568121240134629 3.440356154109604 5.091607802949707 0.05681212401346973 3.440356154109604 1.8571152106872173 4.741183473641093" Properties=species:S:1:pos:R:3:spacegroup_kinds:I:1:forces:R:3 spacegroup="P 1" unit_cell=conventional occupancy="_JSON {\"0\": {\"In\": 1}, \"1\": {\"In\": 1}, \"2\": {\"In\": 1}, \"3\": {\"In\": 1}, \"4\": {\"O\": 1}, \"5\": {\"O\": 1}, \"6\": {\"O\": 1}, \"7\": {\"O\": 1}, \"8\": {\"O\": 1}, \"9\": {\"O\": 1}}" n_minim_iter=3 energy=-11287.162724421023 stress="0.07131750341180437 0.0011856464949196982 0.0008186722442426542 0.0011856464949196982 0.06976107696862814 0.0004419218857188352 0.0008186722442426542 0.0004419218857188352 0.0694262020655212" free_energy=-11287.162724421023 pbc="T T T"
In      11.11197965       5.99828201       4.14172944        0      -0.05473466      -0.02954594      -0.02040106
In       8.42570096       4.54822022       3.14048215        1       0.05473466       0.02954594       0.02040106
In       4.59941945       2.48278127       1.71432558        2      -0.05473466      -0.02954594      -0.02040106
In       1.91314076       1.03271948       0.71307829        3       0.05473466       0.02954594       0.02040106
O        6.32848415       2.44634553       0.30442646        4       0.00000000      -0.01064238       0.01541288
O        7.50738585       5.34742264       1.27051406        5       0.00889708      -0.01648208       0.00000000
O        8.58993860       2.37217400       2.67501820        6      -0.00889708       0.00583971       0.01541288
O        4.43518180       4.65882749       2.17978953        7       0.00889708      -0.00583971      -0.01541288
O        6.69663626       4.58465596       4.55038126        8      -0.00000000       0.01064238      -0.01541288
O        5.51773456       1.68357885       3.58429367        9      -0.00889708       0.01648208      -0.00000000
10
Lattice="6.135389299969366 0.07315998090789773 0.0505159387748938 3.427784250319297 5.089071563482673 0.05051593877490061 3.4277842503192972 1.8503288569754406 4.741042539290511" Properties=species:S:1:pos:R:3:spacegroup_kinds:I:1:forces:R:3 spacegroup="P 1" unit_cell=conventional occupancy="_JSON {\"0\": {\"In\": 1}, \"1\": {\"In\": 1}, \"2\": {\"In\": 1}, \"3\": {\"In\": 1}, \"4\": {\"O\": 1}, \"5\": {\"O\": 1}, \"6\": {\"O\": 1}, \"7\": {\"O\": 1}, \"8\": {\"O\": 1}, \"9\": {\"O\": 1}}" n_minim_iter=4 energy=-11287.164312757133 stress="0.06975114285453803 -7.629193696118387e-05 -5.267851132565569e-05 -7.629193696118387e-05 0.0698512931003767 -2.8436027228930404e-05 -5.267851132565569e-05 -2.8436027228930404e-05 0.06987284105289118" free_energy=-11287.164312757133 pbc="T T T"
In      11.07682142       5.97930349       4.12862504        0      -0.00059597      -0.00032171      -0.00022213
In       8.40961529       4.53953712       3.13448659        1       0.00059597       0.00032171       0.00022213
In       4.58134252       2.47302329       1.70758783        2      -0.00059597      -0.00032171      -0.00022213
In       1.91413639       1.03325692       0.71344938        3       0.00059597       0.00032171       0.00022213
O        6.31543411       2.43754640       0.29755864        4       0.00000000      -0.00405215       0.00586855
O        7.48774021       5.33755862       1.26103455        5       0.00338762      -0.00627566      -0.00000000
O        8.57091225       2.35940808       2.66807991        6      -0.00338762       0.00222350       0.00586855
O        4.42004556       4.65315233       2.17399451        7       0.00338762      -0.00222350      -0.00586855
O        6.67552371       4.57501402       4.54451578        8       0.00000000       0.00405215      -0.00586855
O        5.50321760       1.67500179       3.58103988        9      -0.00338762       0.00627566      -0.00000000
