10
Lattice="5.821671395467323 -0.0025374423905695793 -0.0017520683146173407 3.192356959419467 4.868338661089873 -0.001752068314616475 3.192356959419466 1.7232444554321067 4.553147585531164" Properties=species:S:1:pos:R:3:spacegroup_kinds:I:1:forces:R:3 spacegroup="P 1" unit_cell=conventional occupancy="_JSON {\"0\": {\"In\": 1}, \"1\": {\"In\": 1}, \"2\": {\"In\": 1}, \"3\": {\"In\": 1}, \"4\": {\"O\": 1}, \"5\": {\"O\": 1}, \"6\": {\"O\": 1}, \"7\": {\"O\": 1}, \"8\": {\"O\": 1}, \"9\": {\"O\": 1}}" n_minim_iter=5 energy=-11287.64210850599 stress="-0.025949948822629142 -0.00010082157804154969 -6.961588167938245e-05 -0.00010082157804154969 -0.025817597931508975 -3.7578873964116624e-05 -6.961588167938245e-05 -3.7578873964116624e-05 -0.02578912180670482" free_energy=-11287.64210850599 pbc="T T T"
In      10.46858948       5.65097795       3.90192086        0       0.00470917       0.00254203       0.00175523
In       7.84098850       4.23259057       2.92254431        1      -0.00470917      -0.00254203      -0.00175523
In       4.36539682       2.35645511       1.62709914        2       0.00470917       0.00254203       0.00175523
In       1.73779585       0.93806774       0.64772259        3      -0.00470917      -0.00254203      -0.00175523
O        5.96243203       2.29056640       0.20302749        4      -0.00000000       0.00134570      -0.00194892
O        7.01974368       5.07842740       1.13565880        5      -0.00112501       0.00208412       0.00000000
O        8.09747734       2.15392326       2.47960128        6       0.00112501      -0.00073842      -0.00194892
O        4.10890799       4.43512243       2.07004217        7      -0.00112501       0.00073842       0.00194892
O        6.24395329       4.29847928       4.34661596        8       0.00000000      -0.00134570       0.00194892
O        5.18664164       1.51061828       3.41398466        9       0.00112501      -0.00208412       0.00000000
