10
Lattice="5.075549832354092 -0.28215121522446207 -0.1948214493315008 2.54918524997208 4.3980075000262415 -0.1948214493315048 2.5491852499720866 1.376058317952824 4.181732759634397" Properties=species:S:1:pos:R:3:spacegroup_kinds:I:1:forces:R:3 spacegroup="P 1" unit_cell=conventional occupancy="_JSON {\"0\": {\"In\": 1}, \"1\": {\"In\": 1}, \"2\": {\"In\": 1}, \"3\": {\"In\": 1}, \"4\": {\"O\": 1}, \"5\": {\"O\": 1}, \"6\": {\"O\": 1}, \"7\": {\"O\": 1}, \"8\": {\"O\": 1}, \"9\": {\"O\": 1}}" n_minim_iter=1 energy=-11281.615216717844 stress="-0.4839335054047641 0.011266292177528314 0.007779216435136898 0.011266292177528314 -0.4987230359597061 0.004199245810888889 0.007779216435136898 0.004199245810888889 -0.5019050961389669" free_energy=-11281.615216717844 pbc="T T T"
In       8.86863831       4.78731921       3.30557664        0      -0.11995803      -0.06475373      -0.04471154
In       6.39224218       3.45055269       2.38255815        1       0.11995803       0.06475373       0.04471154
In       3.78167814       2.04136191       1.40953171        2      -0.11995803      -0.06475373      -0.04471154
In       1.30528201       0.70459539       0.48651321        3       0.11995803       0.06475373       0.04471154
O        5.08125499       1.87973432      -0.08761341        4      -0.00000000      -0.09536392       0.13811131
O        5.81425744       4.43421725       0.75320101        5       0.07972471      -0.14769218       0.00000000
O        6.89743780       1.56445303       2.00325297        6      -0.07972471       0.05232827       0.13811131
O        3.27648252       3.92746158       1.78883689        7       0.07972471      -0.05232827      -0.13811131
O        5.09266533       3.61218028       3.87970327        8      -0.00000000       0.09536392      -0.13811131
O        4.35966288       1.05769735       3.03888884        9      -0.07972471       0.14769218       0.00000000
10
Lattice="5.053912681920346 -0.3067658267218344 -0.21181749268660294 2.516734534917766 4.393425309445 -0.21181749268660702 2.5167345349177723 1.358541318599993 4.183469622877223" Properties=species:S:1:pos:R:3:spacegroup_kinds:I:1:forces:R:3 spacegroup="P 1" unit_cell=conventional occupancy="_JSON {\"0\": {\"In\": 1}, \"1\": {\"In\": 1}, \"2\": {\"In\": 1}, \"3\": {\"In\": 1}, \"4\": {\"O\": 1}, \"5\": {\"O\": 1}, \"6\": {\"O\": 1}, \"7\": {\"O\": 1}, \"8\": {\"O\": 1}, \"9\": {\"O\": 1}}" n_minim_iter=2 energy=-11281.629054384415 stress="-0.4860072404557613 -0.00012293939595446596 -8.488792501428158e-05 -0.00012293939595446596 -0.48584585497650806 -4.5822773310923945e-05 -8.488792501428158e-05 -4.5822773310923945e-05 -0.48581113187893155" free_energy=-11281.629054384415 pbc="T T T"
In       8.79268853       4.74632128       3.27726815        0       0.05594985       0.03020191       0.02085399
In       6.33838409       3.42147992       2.36248381        1      -0.05594985      -0.03020191      -0.02085399
In       3.74899765       2.02372088       1.39735083        2       0.05594985       0.03020191       0.02085399
In       1.29469321       0.69887952       0.48256649        3      -0.05594985      -0.03020191      -0.02085399
O        5.04880177       1.85810772      -0.10759189        4       0.00000000      -0.19846315       0.28742533
O        5.76360660       4.41159407       0.72814116        5       0.16591618      -0.30736422      -0.00000000
O        6.85073149       1.53041425       1.98414292        6      -0.16591618       0.10890107       0.28742533
O        3.23665025       3.91478655       1.77569172        7       0.16591618      -0.10890107      -0.28742533
O        5.03857997       3.58709308       3.86742653        8      -0.00000000       0.19846315      -0.28742533
O        4.32377514       1.03360673       3.03169347        9      -0.16591618       0.30736422       0.00000000
10
Lattice="5.040775740533732 -0.32181970863379933 -0.2222119866100865 2.496940887860876 4.390703154820091 -0.2222119866100906 2.496940887860881 1.3478566448692175 4.184606890213484" Properties=species:S:1:pos:R:3:spacegroup_kinds:I:1:forces:R:3 spacegroup="P 1" unit_cell=conventional occupancy="_JSON {\"0\": {\"In\": 1}, \"1\": {\"In\": 1}, \"2\": {\"In\": 1}, \"3\": {\"In\": 1}, \"4\": {\"O\": 1}, \"5\": {\"O\": 1}, \"6\": {\"O\": 1}, \"7\": {\"O\": 1}, \"8\": {\"O\": 1}, \"9\": {\"O\": 1}}" n_minim_iter=3 energy=-11281.640840130558 stress="-0.4770069808838791 -0.0011955514276304996 -0.0008255114601053958 -0.0011955514276304996 -0.47543755199380516 -0.0004456137159316748 -0.0008255114601053958 -0.0004456137159316748 -0.47509987953722305" free_energy=-11281.640840130558 pbc="T T T"
In       8.74803250       4.72221581       3.26062366        0      -0.05766610      -0.03112835      -0.02149368
In       6.30395376       3.40289432       2.34965071        1       0.05766610       0.03112835       0.02149368
In       3.73070374       2.01384577       1.39053220        2      -0.05766610      -0.03112835      -0.02149368
In       1.28662501       0.69452428       0.47955925        3       0.05766610       0.03112835       0.02149368
O        5.02905224       1.83881939      -0.11097317        4      -0.00000000      -0.01770905       0.02564723
O        5.73784450       4.38839519       0.71283374        5       0.01480486      -0.02742639       0.00000000
O        6.81720088       1.51297927       1.98133027        6      -0.01480486       0.00971734       0.02564723
O        3.21745663       3.90376082       1.75885264        7       0.01480486      -0.00971734      -0.02564723
O        5.00560526       3.57792070       3.85115609        8       0.00000000       0.01770905      -0.02564723
O        4.29681301       1.02834490       3.02734917        9      -0.01480486       0.02742639      -0.00000000
10
Lattice="5.045597835062439 -0.3162842387718568 -0.21838982245468316 2.5042145568735226 4.391697016646872 -0.21838982245468724 2.504214556873529 1.3517829945713424 4.184182062980117" Properties=species:S:1:pos:R:3:spacegroup_kinds:I:1:forces:R:3 spacegroup="P 1" unit_cell=conventional occupancy="_JSON {\"0\": {\"In\": 1}, \"1\": {\"In\": 1}, \"2\": {\"In\": 1}, \"3\": {\"In\": 1}, \"4\": {\"O\": 1}, \"5\": {\"O\": 1}, \"6\": {\"O\": 1}, \"7\": {\"O\": 1}, \"8\": {\"O\": 1}, \"9\": {\"O\": 1}}" n_minim_iter=4 energy=-11281.641561405238 stress="-0.4757888879336696 0.0011572697393232782 0.0007990784950342672 0.0011572697393232782 -0.477308063534082 0.0004313451167344467 0.0007990784950342672 0.0004313451167344467 -0.4776349236839091" free_energy=-11281.641561405238 pbc="T T T"
In       8.76293536       4.73026043       3.26617835        0      -0.06074601      -0.03279089      -0.02264165
In       6.31810505       3.41053323       2.35492527        1       0.06074601       0.03279089       0.02264165
In       3.73592189       2.01666254       1.39247714        2      -0.06074601      -0.03279089      -0.02264165
In       1.29109157       0.69693535       0.48122406        3       0.06074601       0.03279089       0.02264165
O        5.03630565       1.84302440      -0.10555312        4       0.00000000       0.00986267      -0.01428367
O        5.74971842       4.39245147       0.71846078        5      -0.00824525       0.01527454       0.00000000
O        6.82710743       1.52096976       1.98653791        6       0.00824525      -0.00541187      -0.01428367
O        3.22691951       3.90622601       1.76086451        7      -0.00824525       0.00541187       0.01428367
O        5.01772129       3.58417138       3.85295554        8       0.00000000      -0.00986267       0.01428367
O        4.30430851       1.03474430       3.02894163        9       0.00824525      -0.01527454       0.00000000
10
Lattice="5.044868638143789 -0.3171205840518826 -0.21896730711824042 2.5031152417705855 4.391546325313215 -0.2189673071182445 2.503115241770591 1.3511895807770855 4.184245753508997" Properties=species:S:1:pos:R:3:spacegroup_kinds:I:1:forces:R:3 spacegroup="P 1" unit_cell=conventional occupancy="_JSON {\"0\": {\"In\": 1}, \"1\": {\"In\": 1}, \"2\": {\"In\": 1}, \"3\": {\"In\": 1}, \"4\": {\"O\": 1}, \"5\": {\"O\": 1}, \"6\": {\"O\": 1}, \"7\": {\"O\": 1}, \"8\": {\"O\": 1}, \"9\": {\"O\": 1}}" n_minim_iter=5 energy=-11281.64198565421 stress="-0.47545626706094396 -1.3077155267666554e-05 -9.029590800792936e-06 -1.3077155267666554e-05 -0.4754391003664603 -4.874201637840667e-06 -9.029590800792936e-06 -4.874201637840667e-06 -0.4754354068477755" free_energy=-11281.64198565421 pbc="T T T"
In       8.75796125       4.72757539       3.26432437        0       0.00030723       0.00016584       0.00011451
In       6.31868742       3.41084760       2.35514234        1      -0.00030723      -0.00016584      -0.00011451
In       3.73241169       2.01476772       1.39116880        2       0.00030723       0.00016584       0.00011451
In       1.29313785       0.69803994       0.48198677        3      -0.00030723      -0.00016584      -0.00011451
O        5.03520909       1.84186659      -0.10561574        4      -0.00000000       0.00010662      -0.00015442
O        5.74836023       4.39102928       0.71761048        5      -0.00008914       0.00016513      -0.00000000
O        6.82517320       1.52004881       1.98650714        6       0.00008914      -0.00005851      -0.00015442
O        3.22592591       3.90556651       1.75980400        7      -0.00008914       0.00005851       0.00015442
O        5.01589002       3.58374873       3.85192687        8      -0.00000000      -0.00010662       0.00015442
O        4.30273888       1.03458604       3.02870066        9       0.00008914      -0.00016513       0.00000000
