10
Lattice="6.113797700553821 0.05196110183559011 0.03587841066151931 3.3982140994405263 5.082653166778625 0.03587841066152064 3.3982140994405317 1.8343667953401526 4.740226675410138" Properties=species:S:1:pos:R:3:spacegroup_kinds:I:1:forces:R:3 spacegroup="P 1" unit_cell=conventional occupancy="_JSON {\"0\": {\"In\": 1}, \"1\": {\"In\": 1}, \"2\": {\"In\": 1}, \"3\": {\"In\": 1}, \"4\": {\"O\": 1}, \"5\": {\"O\": 1}, \"6\": {\"O\": 1}, \"7\": {\"O\": 1}, \"8\": {\"O\": 1}, \"9\": {\"O\": 1}}" n_minim_iter=1 energy=-11287.165716499778 stress="0.07044708904704675 -0.0008688803313551929 -0.0005999496593921724 -0.0008688803313551929 0.07158768898996175 -0.0003238547371141401 -0.0005999496593921724 -0.0003238547371141401 0.07183309621553313" free_energy=-11287.165716499778 pbc="T T T"
In      11.02299049       5.95024538       4.10856082        0      -0.06851748      -0.03698596      -0.02553828
In       8.34234837       4.50322623       3.10941443        1       0.06851748       0.03698596       0.02553828
In       4.56787754       2.46575485       1.70256907        2      -0.06851748      -0.03698596      -0.02553828
In       1.88723542       1.01873569       0.70342268        3       0.06851748       0.03698596       0.02553828
O        6.28445533       2.41873476       0.27883201        4      -0.00000000       0.00321900      -0.00466193
O        7.43973367       5.31700980       1.23887429        5      -0.00269110       0.00498533      -0.00000000
O        8.52739109       2.32846076       2.64894535        6       0.00269110      -0.00176633      -0.00466193
O        4.38283482       4.64052032       2.16303815        7      -0.00269110       0.00176633       0.00466193
O        6.62577058       4.55024632       4.53315149        8       0.00000000      -0.00321900       0.00466193
O        5.47049224       1.65197127       3.57310921        9       0.00269110      -0.00498533      -0.00000000
10
Lattice="6.124675927960279 0.0630166006515079 0.043512077242349914 3.4134256725904817 5.085681025407906 0.04351207724235123 3.413425672590487 1.8425780509805079 4.740353459300768" Properties=species:S:1:pos:R:3:spacegroup_kinds:I:1:forces:R:3 spacegroup="P 1" unit_cell=conventional occupancy="_JSON {\"0\": {\"In\": 1}, \"1\": {\"In\": 1}, \"2\": {\"In\": 1}, \"3\": {\"In\": 1}, \"4\": {\"O\": 1}, \"5\": {\"O\": 1}, \"6\": {\"O\": 1}, \"7\": {\"O\": 1}, \"8\": {\"O\": 1}, \"9\": {\"O\": 1}}" n_minim_iter=2 energy=-11287.16668030955 stress="0.07081899978908415 -2.123936746971929e-05 -1.4665485253622979e-05 -2.123936746971929e-05 0.07084688121225041 -7.916475925548e-06 -1.4665485253622979e-05 -7.916475925548e-06 0.07085288007694718" free_energy=-11287.16668030955 pbc="T T T"
In      11.05727242       5.96875087       4.12133860        0      -0.07776564      -0.04197814      -0.02898532
In       8.37001850       4.51816265       3.11972782        1       0.07776564       0.04197814       0.02898532
In       4.58150878       2.47311304       1.70764980        2      -0.07776564      -0.04197814      -0.02898532
In       1.89425487       1.02252481       0.70603901        3       0.07776564       0.04197814       0.02898532
O        6.30021979       2.42884403       0.28793422        4      -0.00000000      -0.00042746       0.00061907
O        7.46393333       5.32808861       1.25035648        5       0.00035736      -0.00066202       0.00000000
O        8.54993191       2.34421219       2.65811095        6      -0.00035736       0.00023456       0.00061907
O        4.40159537       4.64706350       2.16926666        7       0.00035736      -0.00023456      -0.00061907
O        6.65130750       4.56243166       4.53944339        8       0.00000000       0.00042746      -0.00061907
O        5.48759395       1.66318708       3.57702114        9      -0.00035736       0.00066202      -0.00000000
10
Lattice="6.142788557409548 0.08135525069638586 0.0561746574041398 3.4386956709209517 5.090760456026884 0.056174657404141036 3.438695670920956 1.8562188765727938 4.740616952996339" Properties=species:S:1:pos:R:3:spacegroup_kinds:I:1:forces:R:3 spacegroup="P 1" unit_cell=conventional occupancy="_JSON {\"0\": {\"In\": 1}, \"1\": {\"In\": 1}, \"2\": {\"In\": 1}, \"3\": {\"In\": 1}, \"4\": {\"O\": 1}, \"5\": {\"O\": 1}, \"6\": {\"O\": 1}, \"7\": {\"O\": 1}, \"8\": {\"O\": 1}, \"9\": {\"O\": 1}}" n_minim_iter=3 energy=-11287.168084081686 stress="0.07083978545881216 0.0011416152561016378 0.0007882692926668967 0.0011416152561016378 0.06934115987423152 0.00042551027504151873 0.0007882692926668967 0.00042551027504151873 0.06901872118612441" free_energy=-11287.168084081686 pbc="T T T"
In      11.10942751       5.99690436       4.14077819        0      -0.05821924      -0.03142693      -0.02169985
In       8.42084235       4.54559753       3.13867122        1       0.05821924       0.03142693       0.02169985
In       4.59933756       2.48273707       1.71429506        2      -0.05821924      -0.03142693      -0.02169985
In       1.91075240       1.03143024       0.71218808        3       0.05821924       0.03142693       0.02169985
O        6.32643926       2.44560770       0.30308181        4       0.00000000      -0.00972099       0.01407847
O        7.50418425       5.34647542       1.26941623        5       0.00812679      -0.01505510      -0.00000000
O        8.58738994       2.37038323       2.67339029        6      -0.00812679       0.00533412       0.01407847
O        4.43278997       4.65795137       2.17957598        7       0.00812679      -0.00533412      -0.01407847
O        6.69374065       4.58272689       4.54988446        8       0.00000000       0.00972099      -0.01407847
O        5.51599566       1.68185918       3.58355005        9      -0.00812679       0.01505510       0.00000000
10
Lattice="6.133877232940598 0.07234344416760548 0.04995213162967065 3.426271917322462 5.088255519455415 0.04995213162967187 3.4262719173224667 1.8495124948064685 4.740479192895748" Properties=species:S:1:pos:R:3:spacegroup_kinds:I:1:forces:R:3 spacegroup="P 1" unit_cell=conventional occupancy="_JSON {\"0\": {\"In\": 1}, \"1\": {\"In\": 1}, \"2\": {\"In\": 1}, \"3\": {\"In\": 1}, \"4\": {\"O\": 1}, \"5\": {\"O\": 1}, \"6\": {\"O\": 1}, \"7\": {\"O\": 1}, \"8\": {\"O\": 1}, \"9\": {\"O\": 1}}" n_minim_iter=4 energy=-11287.16976279248 stress="0.06923052831265178 -9.756695945852703e-05 -6.736861367945034e-05 -9.756695945852703e-05 0.06935860678586364 -3.636579236838396e-05 -6.736861367945034e-05 -3.636579236838396e-05 0.06938616367308409" free_energy=-11287.16976279248 pbc="T T T"
In      11.07408000       5.97782366       4.12760324        0      -0.00085919      -0.00046380      -0.00032024
In       8.40555161       4.53734354       3.13297195        1       0.00085919       0.00046380       0.00032024
In       4.58086946       2.47276793       1.70741151        2      -0.00085919      -0.00046380      -0.00032024
In       1.91234108       1.03228781       0.71278022        3       0.00085919       0.00046380       0.00032024
O        6.31354389       2.43714585       0.29595615        4      -0.00000000      -0.00708825       0.01026560
O        7.48457555       5.33709023       1.26004800        5       0.00592582      -0.01097773      -0.00000000
O        8.56878415       2.35763922       2.66619574        6      -0.00592582       0.00388948       0.01026560
O        4.41763693       4.65247226       2.17418772        7       0.00592582      -0.00388948      -0.01026560
O        6.67287719       4.57296562       4.54442731        8       0.00000000       0.00708825      -0.01026560
O        5.50184553       1.67302124       3.58033546        9      -0.00592582       0.01097773       0.00000000
10
Lattice="6.135299663395167 0.07378330086837609 0.05094633244872659 3.4282561633674145 5.088654597580505 0.05094633244872783 3.4282561633674193 1.8505835971420292 4.740500131025835" Properties=species:S:1:pos:R:3:spacegroup_kinds:I:1:forces:R:3 spacegroup="P 1" unit_cell=conventional occupancy="_JSON {\"0\": {\"In\": 1}, \"1\": {\"In\": 1}, \"2\": {\"In\": 1}, \"3\": {\"In\": 1}, \"4\": {\"O\": 1}, \"5\": {\"O\": 1}, \"6\": {\"O\": 1}, \"7\": {\"O\": 1}, \"8\": {\"O\": 1}, \"9\": {\"O\": 1}}" n_minim_iter=5 energy=-11287.16978453997 stress="0.0692534096311981 -3.3093006331597838e-06 -2.2850255048641645e-06 -3.3093006331597838e-06 0.06925775382872698 -1.2334631139920165e-06 -2.2850255048641645e-06 -1.2334631139920165e-06 0.06925868851025889" free_energy=-11287.16978453997 pbc="T T T"
In      11.07819201       5.98004334       4.12913589        0       0.00073816       0.00039846       0.00027513
In       8.40952599       4.53948892       3.13445331        1      -0.00073816      -0.00039846      -0.00027513
In       4.58228601       2.47353259       1.70793949        2       0.00073816       0.00039846       0.00027513
In       1.91361999       1.03297817       0.71325691        3      -0.00073816      -0.00039846      -0.00027513
O        6.31560283       2.43835186       0.29730522        4       0.00000000      -0.00648895       0.00939766
O        7.48782844       5.33836332       1.26154453        5       0.00542480      -0.01004958       0.00000000
O        8.57163339       2.35975468       2.66755528        6      -0.00542480       0.00356063       0.00939766
O        4.42017861       4.65326683       2.17483752        7       0.00542480      -0.00356063      -0.00939766
O        6.67620917       4.57466964       4.54508758        8      -0.00000000       0.00648895      -0.00939766
O        5.50398356       1.67465819       3.58084827        9      -0.00542480       0.01004958      -0.00000000
10
Lattice="6.136742021707084 0.07524279028985613 0.05195408938555406 3.43026775731543 5.089059562590943 0.05195408938555529 3.4302677573154345 1.8516694619627756 4.740521771138342" Properties=species:S:1:pos:R:3:spacegroup_kinds:I:1:forces:R:3 spacegroup="P 1" unit_cell=conventional occupancy="_JSON {\"0\": {\"In\": 1}, \"1\": {\"In\": 1}, \"2\": {\"In\": 1}, \"3\": {\"In\": 1}, \"4\": {\"O\": 1}, \"5\": {\"O\": 1}, \"6\": {\"O\": 1}, \"7\": {\"O\": 1}, \"8\": {\"O\": 1}, \"9\": {\"O\": 1}}" n_minim_iter=6 energy=-11287.169809235997 stress="0.06929494818278409 8.159898582237255e-05 5.634295313820581e-05 8.159898582237255e-05 0.06918783124751546 3.0414105174304867e-05 5.634295313820581e-05 3.0414105174304867e-05 0.06916478436572233" free_energy=-11287.169809235997 pbc="T T T"
In      11.08243722       5.98233491       4.13071819        0       0.00128921       0.00069592       0.00048052
In       8.41347910       4.54162282       3.13592674        1      -0.00128921      -0.00069592      -0.00048052
In       4.58379845       2.47434901       1.70850322        2       0.00128921       0.00069592       0.00048052
In       1.91484033       1.03363691       0.71371176        3      -0.00128921      -0.00069592      -0.00048052
O        6.31769040       2.43926295       0.29912396        4       0.00000000      -0.00208418       0.00301842
O        7.49138682       5.33917167       1.26306158        5       0.00174238      -0.00322781       0.00000000
O        8.57426173       2.36207015       2.66938485        6      -0.00174238       0.00114363       0.00301842
O        4.42301581       4.65390167       2.17504511        7       0.00174238      -0.00114364      -0.00301842
O        6.67958715       4.57670888       4.54530599        8      -0.00000000       0.00208418      -0.00301842
O        5.50589072       1.67680016       3.58136838        9      -0.00174238       0.00322781      -0.00000000
