10
Lattice="5.178696408764344 -0.2321102127087147 -0.1602688402691446 2.6476185573570614 4.4567799608832805 -0.16026884026913885 2.647618557357069 1.4291929308226166 4.224450412465349" Properties=species:S:1:pos:R:3:spacegroup_kinds:I:1:forces:R:3 spacegroup="P 1" unit_cell=conventional occupancy="_JSON {\"0\": {\"In\": 1}, \"1\": {\"In\": 1}, \"2\": {\"In\": 1}, \"3\": {\"In\": 1}, \"4\": {\"O\": 1}, \"5\": {\"O\": 1}, \"6\": {\"O\": 1}, \"7\": {\"O\": 1}, \"8\": {\"O\": 1}, \"9\": {\"O\": 1}}" n_minim_iter=6 energy=-11284.166056872087 stress="-0.29898717693658455 1.3645731434061053e-05 9.422185488660483e-06 1.3645731434061053e-05 -0.2990050900144614 5.0861257825114826e-06 9.422185488660483e-06 5.0861257825114826e-06 -0.2990089441249578" free_energy=-11284.166056872087 pbc="T T T"
In       9.11335289       4.91941692       3.39678825        0      -0.00082665      -0.00044623      -0.00030812
In       6.59754739       3.56137710       2.45908084        1       0.00082665       0.00044623       0.00030812
In       3.87638612       2.09248558       1.44483189        2      -0.00082665      -0.00044623      -0.00030812
In       1.36058062       0.73444576       0.50712447        3       0.00082665       0.00044623       0.00030812
O        5.20783158       1.95013681      -0.04947055        4      -0.00000000       0.00057648      -0.00083488
O        5.98595846       4.53669194       0.81570934        5      -0.00048194       0.00089280       0.00000000
O        7.07732326       1.65384188       2.06275466        6       0.00048194      -0.00031633      -0.00083488
O        3.39661025       4.00002080       1.84115807        7      -0.00048194       0.00031633       0.00083488
O        5.26610193       3.70372587       3.95338328        8       0.00000000      -0.00057648       0.00083488
O        4.48797505       1.11717073       3.08820339        9       0.00048194      -0.00089280      -0.00000000
