10
Lattice="6.411475948069531 0.08544555231465396 0.05899895319475205 3.5895498244192607 5.313140016327073 0.05899895319475544 3.589549824419261 1.937650429152712 4.947569961504178" Properties=species:S:1:pos:R:3:spacegroup_kinds:I:1:forces:R:3 spacegroup="P 1" unit_cell=conventional occupancy="_JSON {\"0\": {\"In\": 1}, \"1\": {\"In\": 1}, \"2\": {\"In\": 1}, \"3\": {\"In\": 1}, \"4\": {\"O\": 1}, \"5\": {\"O\": 1}, \"6\": {\"O\": 1}, \"7\": {\"O\": 1}, \"8\": {\"O\": 1}, \"9\": {\"O\": 1}}" n_minim_iter=5 energy=-11285.59897537918 stress="0.11239074043156012 -5.795281378237478e-05 -4.001560396533734e-05 -5.795281378237478e-05 0.11246681647328559 -2.1600549960077932e-05 -4.001560396533734e-05 -2.1600549960077932e-05 0.11248318470973541" free_energy=-11285.59897537918 pbc="T T T"
In      11.54998851       6.23472059       4.30498696        0      -0.00564898      -0.00304934      -0.00210552
In       8.83587490       4.76963342       3.29336485        1       0.00564898       0.00304934       0.00210552
In       4.75470071       2.56660259       1.77220302        2      -0.00564898      -0.00304934      -0.00210552
In       2.04058710       1.10151542       0.76058092        3       0.00564898       0.00304934       0.00210552
O        6.60338188       2.57373090       0.28653112        4       0.00000000      -0.00189882       0.00274998
O        7.81550385       5.61273212       1.32539092        5       0.00158742      -0.00294075      -0.00000000
O        8.98080973       2.46317579       2.76031610        6      -0.00158742       0.00104192       0.00274998
O        4.60976588       4.87306022       2.30525177        7       0.00158742      -0.00104192      -0.00274998
O        6.98719373       4.76250511       4.77903675        8      -0.00000000       0.00189882      -0.00274998
O        5.77507176       1.72350389       3.74017695        9      -0.00158742       0.00294075       0.00000000
