10
Lattice="5.494618474928554 -0.07278202085619742 -0.05025496267028216 2.9541710593717094 4.633465523725922 -0.05025496267027596 2.954171059371714 1.5946709478836074 4.35069567871688" Properties=species:S:1:pos:R:3:spacegroup_kinds:I:1:forces:R:3 spacegroup="P 1" unit_cell=conventional occupancy="_JSON {\"0\": {\"In\": 1}, \"1\": {\"In\": 1}, \"2\": {\"In\": 1}, \"3\": {\"In\": 1}, \"4\": {\"O\": 1}, \"5\": {\"O\": 1}, \"6\": {\"O\": 1}, \"7\": {\"O\": 1}, \"8\": {\"O\": 1}, \"9\": {\"O\": 1}}" n_minim_iter=6 energy=-11286.448393750377 stress="-0.1655581649555288 7.71924025350828e-05 5.330026927307717e-05 7.71924025350828e-05 -0.16565949726504584 2.8771654024003747e-05 5.330026927307717e-05 2.8771654024003747e-05 -0.16568129954541916" free_energy=-11286.448393750377 pbc="T T T"
In       9.82570787       5.30394841       3.66230184        0      -0.00351643      -0.00189818      -0.00131067
In       7.27873303       3.92908328       2.71297679        1       0.00351643       0.00189818       0.00131067
In       4.12422757       2.22627118       1.53720897        2      -0.00351643      -0.00189818      -0.00131067
In       1.57725273       0.85140605       0.58788391        3       0.00351643       0.00189818       0.00131067
O        5.59804939       2.14689086       0.10410055        4      -0.00000000       0.00113687      -0.00164647
O        6.53637715       4.81724371       1.01229148        5      -0.00095043       0.00176069       0.00000000
O        7.61389269       1.94616299       2.27944838        6       0.00095043      -0.00062382      -0.00164647
O        3.78906791       4.20919147       1.97073737        7      -0.00095043       0.00062382       0.00164647
O        5.80491121       4.00846360       4.14608521        8       0.00000000      -0.00113687       0.00164647
O        4.86658345       1.33811075       3.23789428        9       0.00095043      -0.00176069      -0.00000000
