10
Lattice="6.235147464004487 0.082515127626056 0.05697553612552334 3.4903446835219882 5.167336512593162 0.05697553612553116 3.4903446835219887 1.884099178094408 4.811941721716841" Properties=species:S:1:pos:R:3:spacegroup_kinds:I:1:forces:R:3 spacegroup="P 1" unit_cell=conventional occupancy="_JSON {\"0\": {\"In\": 1}, \"1\": {\"In\": 1}, \"2\": {\"In\": 1}, \"3\": {\"In\": 1}, \"4\": {\"O\": 1}, \"5\": {\"O\": 1}, \"6\": {\"O\": 1}, \"7\": {\"O\": 1}, \"8\": {\"O\": 1}, \"9\": {\"O\": 1}}" n_minim_iter=4 energy=-11286.912373307398 stress="0.08199899968897799 9.073730289164385e-05 6.265283186396506e-05 9.073730289164385e-05 0.0818798866677328 3.3820198787809874e-05 6.265283186396506e-05 3.3820198787809874e-05 0.08185425875328774" free_energy=-11286.912373307398 pbc="T T T"
In      11.26019040       6.07828665       4.19697152        0      -0.00328555      -0.00177355      -0.00122461
In       8.56356486       4.62263959       3.19186768        1       0.00328555       0.00177355       0.00122461
In       4.65227198       2.51131124       1.73402512        2      -0.00328555      -0.00177355      -0.00122461
In       1.95564644       1.05566418       0.72892128        3       0.00328555       0.00177355       0.00122461
O        6.42153294       2.48209329       0.30795316        4       0.00000000      -0.00272911       0.00395245
O        7.61715907       5.42646276       1.28844874        5       0.00228155      -0.00422663      -0.00000000
O        8.71625151       2.40609365       2.71392402        6      -0.00228155       0.00149752       0.00395245
O        4.49958534       4.72785718       2.21196878        7       0.00228155      -0.00149752      -0.00395245
O        6.79430390       4.65185754       4.61793964        8      -0.00000000       0.00272911      -0.00395245
O        5.59867777       1.70748807       3.63744406        9      -0.00228155       0.00422663      -0.00000000
