10
Lattice="6.369226173462559 0.08566136530994624 0.05914796903540449 3.566546870851239 5.2777005728109065 0.05914796903540668 3.5665468708512384 1.925233361544506 4.914376697210505" Properties=species:S:1:pos:R:3:spacegroup_kinds:I:1:forces:R:3 spacegroup="P 1" unit_cell=conventional occupancy="_JSON {\"0\": {\"In\": 1}, \"1\": {\"In\": 1}, \"2\": {\"In\": 1}, \"3\": {\"In\": 1}, \"4\": {\"O\": 1}, \"5\": {\"O\": 1}, \"6\": {\"O\": 1}, \"7\": {\"O\": 1}, \"8\": {\"O\": 1}, \"9\": {\"O\": 1}}" n_minim_iter=6 energy=-11285.961402261548 stress="0.10661712532494577 -1.604643884946979e-06 -1.107983565128432e-06 -1.604643884946979e-06 0.1066192317807322 -5.980937422199009e-07 -1.107983565128432e-06 -5.980937422199009e-07 0.10661968499785773" free_energy=-11285.961402261548 pbc="T T T"
In      11.48101559       6.19748879       4.27927892        0      -0.00010823      -0.00005843      -0.00004034
In       8.77246429       4.73540417       3.26973004        1       0.00010823       0.00005843       0.00004034
In       4.72985564       2.55319114       1.76294260        2      -0.00010823      -0.00005843      -0.00004034
In       2.02130433       1.09110652       0.75339372        3       0.00010823       0.00005843       0.00004034
O        6.56019307       2.55025588       0.29528695        4       0.00000000       0.00023742      -0.00034384
O        7.77057204       5.56513229       1.31731613        5      -0.00019848       0.00036769       0.00000000
O        8.91636097       2.45157008       2.75247529        6       0.00019848      -0.00013028      -0.00034384
O        4.58595896       4.83702523       2.28019735        7      -0.00019848       0.00013028       0.00034384
O        6.94212685       4.73833943       4.73738570        8      -0.00000000      -0.00023742       0.00034384
O        5.73174788       1.72346303       3.71535651        9       0.00019848      -0.00036769      -0.00000000
