40
Lattice="8.911588700634951 6.98466275677488e-10 -6.060402694273452e-16 -2.9705295675368375 8.401926401586362 -1.2097800183372603e-09 -2.9705295665490565 -4.200963200094719 7.2762817053074835" Properties=species:S:1:pos:R:3:spacegroup_kinds:I:1:forces:R:3 spacegroup="P 1" unit_cell=conventional occupancy="_JSON {\"0\": {\"In\": 1}, \"1\": {\"In\": 1}, \"2\": {\"In\": 1}, \"3\": {\"In\": 1}, \"4\": {\"In\": 1}, \"5\": {\"In\": 1}, \"6\": {\"In\": 1}, \"7\": {\"In\": 1}, \"8\": {\"In\": 1}, \"9\": {\"In\": 1}, \"10\": {\"In\": 1}, \"11\": {\"In\": 1}, \"12\": {\"In\": 1}, \"13\": {\"In\": 1}, \"14\": {\"In\": 1}, \"15\": {\"In\": 1}, \"16\": {\"O\": 1}, \"17\": {\"O\": 1}, \"18\": {\"O\": 1}, \"19\": {\"O\": 1}, \"20\": {\"O\": 1}, \"21\": {\"O\": 1}, \"22\": {\"O\": 1}, \"23\": {\"O\": 1}, \"24\": {\"O\": 1}, \"25\": {\"O\": 1}, \"26\": {\"O\": 1}, \"27\": {\"O\": 1}, \"28\": {\"O\": 1}, \"29\": {\"O\": 1}, \"30\": {\"O\": 1}, \"31\": {\"O\": 1}, \"32\": {\"O\": 1}, \"33\": {\"O\": 1}, \"34\": {\"O\": 1}, \"35\": {\"O\": 1}, \"36\": {\"O\": 1}, \"37\": {\"O\": 1}, \"38\": {\"O\": 1}, \"39\": {\"O\": 1}}" n_minim_iter=7 energy=-45151.90561343428 stress="1.880781213520243e-05 -2.890788142162051e-13 2.9595463689239284e-13 -2.890788142162051e-13 1.880781110438943e-05 -1.1587618686146294e-13 2.9595463689239284e-13 -1.1587618686146294e-13 1.8807810109164177e-05" free_energy=-45151.90561343428 pbc="T T T"
In      -4.25491387       3.00867845       5.70323862        0      -0.00052798       0.00037334      -0.00064664
In       7.22544343       1.19228476       1.57304308        1       0.00052798      -0.00037334       0.00064664
In       1.28438429      -0.90819684       5.21118393        2       0.00052798      -0.00037334       0.00064664
In      -1.48526478      -2.10048160       3.63814085        3       0.00000000      -0.00000000      -0.00000000
In      -1.28438430       4.05891925       3.39211350        4      -0.00052798       0.00037334       0.00064664
In       4.65667484      -2.86663449       5.45721128        5      -0.00052798      -0.00074667      -0.00000000
In      -1.28438430       1.33432871       5.45721128        6      -0.00052798      -0.00074667       0.00000000
In      -1.68614527       7.06759769       1.81907042        7       0.00052798       0.00074667      -0.00000000
In       4.25491386       0.14204396       3.88416820        8       0.00052798      -0.00037334      -0.00064664
In      -1.48526479       4.20096320      -0.00000000        9      -0.00000000      -0.00000000      -0.00000000
In       4.25491386       6.44348876       0.24602734       10       0.00052798      -0.00037334      -0.00064664
In      -1.28438430      -2.24252555       7.03025436       11      -0.00052798       0.00037334       0.00064664
In       4.25491386       2.86663449       1.81907042       12       0.00052798       0.00074667      -0.00000000
In       1.68614527       5.10916005       2.06509777       13      -0.00052798       0.00037334      -0.00064664
In       4.45579435       0.00000000      -0.00000000       14      -0.00000000      -0.00000000      -0.00000000
In       1.48526478       2.10048160       3.63814085       15       0.00000000       0.00000000       0.00000000
O        0.87521810       4.20123018       3.95934683       16       0.00056176      -0.00097738       0.00244608
O       -2.09531147       3.42876145       5.29637707       17       0.00056176       0.00260706      -0.00037660
O       -0.43604771       2.25548480       0.05227014       18       0.00172373       0.00178543       0.00104651
O       -0.87521810      -0.77193477       1.97944220       19      -0.00056176       0.00162968       0.00206948
O        3.93110445       5.00307615       1.92717206       20       0.00227071      -0.00102548       0.00102297
O        2.00995468       2.93303972       1.65823622       21      -0.00227071      -0.00139866      -0.00037660
O        2.00995468       6.27099964       0.26893584       22      -0.00227071       0.00037318       0.00139957
O       -2.27184070       5.96072626       3.69041099       23      -0.00110874      -0.00222029       0.00104651
O        3.40657728       1.94547840       7.22401156       24      -0.00172373      -0.00178543      -0.00104651
O        5.24237026      -1.75976306       3.58587070       25       0.00110874       0.00222029      -0.00104651
O        6.37710684       3.27349128       1.71096879       26      -0.00172373       0.00179902      -0.00102297
O        3.66921843       2.31610815       3.90707669       27      -0.00110874       0.00201645       0.00139957
O        0.69868887       4.32605520       6.95507572       28      -0.00110874       0.00020384      -0.00244608
O        2.27184070      -0.12509199       0.32120598       29       0.00110874      -0.00020384       0.00244608
O       -3.40657728       0.92747193       5.56531291       30       0.00172373      -0.00179902       0.00102297
O        5.06584103       0.77220175       1.97990463       31      -0.00056176      -0.00260706       0.00037660
O        0.96057489       1.26792349       5.61804548       32       0.00227071       0.00139866       0.00037660
O        3.40657728      -1.01800647       5.61758306       33      -0.00172373      -0.00001359       0.00206948
O        2.09531147      -0.00026698       3.31693487       34      -0.00056176       0.00097738      -0.00244608
O        0.96057489      -2.07003643       7.00734586       35       0.00227071      -0.00037318      -0.00139957
O       -0.69868887       1.88485506       3.36920501       36       0.00110874      -0.00201645      -0.00139957
O       -0.96057489      -0.80211295       5.34910964       37      -0.00227071       0.00102548      -0.00102297
O       -0.43604771       5.21896968       1.65869864       38       0.00172373       0.00001359      -0.00206948
O        3.84574766       4.97289797       5.29683950       39       0.00056176      -0.00162968      -0.00206948
