40
Lattice="9.199255812791105 7.21008925023079e-10 1.1850386852454895e-14 -3.0664186049434745 8.673141555885472 -1.2488351174062135e-09 -3.0664186039238253 -4.336570777221721 7.5111609188478585" Properties=species:S:1:pos:R:3:spacegroup_kinds:I:1:forces:R:3 spacegroup="P 1" unit_cell=conventional occupancy="_JSON {\"0\": {\"In\": 1}, \"1\": {\"In\": 1}, \"2\": {\"In\": 1}, \"3\": {\"In\": 1}, \"4\": {\"In\": 1}, \"5\": {\"In\": 1}, \"6\": {\"In\": 1}, \"7\": {\"In\": 1}, \"8\": {\"In\": 1}, \"9\": {\"In\": 1}, \"10\": {\"In\": 1}, \"11\": {\"In\": 1}, \"12\": {\"In\": 1}, \"13\": {\"In\": 1}, \"14\": {\"In\": 1}, \"15\": {\"In\": 1}, \"16\": {\"O\": 1}, \"17\": {\"O\": 1}, \"18\": {\"O\": 1}, \"19\": {\"O\": 1}, \"20\": {\"O\": 1}, \"21\": {\"O\": 1}, \"22\": {\"O\": 1}, \"23\": {\"O\": 1}, \"24\": {\"O\": 1}, \"25\": {\"O\": 1}, \"26\": {\"O\": 1}, \"27\": {\"O\": 1}, \"28\": {\"O\": 1}, \"29\": {\"O\": 1}, \"30\": {\"O\": 1}, \"31\": {\"O\": 1}, \"32\": {\"O\": 1}, \"33\": {\"O\": 1}, \"34\": {\"O\": 1}, \"35\": {\"O\": 1}, \"36\": {\"O\": 1}, \"37\": {\"O\": 1}, \"38\": {\"O\": 1}, \"39\": {\"O\": 1}}" n_minim_iter=1 energy=-45149.8616987124 stress="0.06868213889131598 -6.246455488624414e-13 5.637548056156922e-15 -6.246455488624414e-13 0.06868213889048533 -2.1999183083178917e-13 5.637548056156922e-15 -2.1999183083178917e-13 0.0686821388909404" free_energy=-45149.8616987124 pbc="T T T"
In      -4.37783091       3.09559392       5.90501542        0       0.03799281      -0.02686497       0.04653150
In       7.44424951       1.24097686       1.60614549        1      -0.03799281       0.02686497      -0.04653150
In       1.31141230      -0.92730853       5.36172595        2      -0.03799281       0.02686497      -0.04653150
In      -1.53320930      -2.16828539       3.75558046        3      -0.00000000      -0.00000000      -0.00000000
In      -1.31141231       4.17973662       3.48393572        4       0.03799281      -0.02686497      -0.04653150
In       4.82142490      -2.93875976       5.63337069        5       0.03799281       0.05372995       0.00000000
In      -1.31141231       1.39781102       5.63337069        6       0.03799281       0.05372995      -0.00000000
In      -1.75500630       7.27533054       1.87779023        7      -0.03799281      -0.05372995      -0.00000000
In       4.37783091       0.15683416       4.02722519        8      -0.03799281       0.02686497       0.04653150
In      -1.53320930       4.33657078      -0.00000000        9      -0.00000000      -0.00000000       0.00000000
In       4.37783091       6.66169033       0.27164473       10      -0.03799281       0.02686497       0.04653150
In      -1.31141231      -2.32511955       7.23951618       11       0.03799281      -0.02686497      -0.04653150
In       4.37783091       2.93875976       1.87779023       12      -0.03799281      -0.05372995       0.00000000
In       1.75500630       5.26387931       2.14943496       13       0.03799281      -0.02686497       0.04653150
In       4.59962790       0.00000000      -0.00000000       14      -0.00000000       0.00000000       0.00000000
In       1.53320930       2.16828539       3.75558046       15       0.00000000      -0.00000000       0.00000000
O        0.94891992       4.34500797       4.07355090       16       0.02233129       0.00394973      -0.04554776
O       -2.11749868       3.52357997       5.46707865       17       0.02233129      -0.04142038       0.01935332
O       -0.44223379       2.33898880       0.00768981       18      -0.02788391      -0.00591288      -0.04214749
O       -0.94891993      -0.80455362       2.02946863       19      -0.02233129      -0.03747066      -0.02619445
O        4.02789594       5.14556412       2.02177881       20      -0.04649527       0.01313679       0.01595304
O        2.10494126       2.99015564       1.71149819       21       0.04649527      -0.00724734       0.01935332
O        2.10494126       6.49197926       0.31028062       22       0.04649527       0.02038414      -0.00340028
O       -2.35263106       6.14213525       3.76327027       23      -0.00371992       0.02826016      -0.04214749
O        3.50865239       1.99758198       7.50347110       24       0.02788391       0.00591288       0.04214749
O        5.41904966      -1.80556447       3.74789064       25       0.00371992      -0.02826016       0.04214749
O        6.57507099       3.34443937       1.73380164       26       0.02788391      -0.03945723      -0.01595304
O        3.78020615       2.35630543       4.06586108       27      -0.00371992      -0.05063088      -0.00340028
O        0.71378755       4.51127166       7.19319047       28      -0.00371992       0.02237071       0.04554776
O        2.35263105      -0.17470088       0.31797044       29       0.00371992      -0.02237071      -0.04554776
O       -3.50865239       0.99213141       5.77735927       30      -0.02788391       0.03945723       0.01595304
O        5.18391728       0.81299081       2.04408227       31      -0.02233129       0.04142038      -0.01935332
O        0.96147734       1.34641515       5.79966273       32      -0.04649527       0.00724734      -0.01935332
O        3.50865239      -1.00545056       5.78504909       33       0.02788391       0.03354436      -0.02619445
O        2.11749868      -0.00843719       3.43761002       34      -0.02233129      -0.00394973       0.04554776
O        0.96147734      -2.15540848       7.20088029       35      -0.04649527      -0.02038414       0.00340028
O       -0.71378755       1.98026535       3.44529983       36       0.00371992       0.05063088       0.00340028
O       -0.96147734      -0.80899334       5.48938210       37       0.04649527      -0.01313679      -0.01595304
O       -0.44223379       5.34202134       1.72611183       38      -0.02788391      -0.03354436       0.02619445
O        4.01533853       5.14112440       5.48169228       39       0.02233129       0.03747066       0.02619445
40
Lattice="9.199255812791105 7.21008925023079e-10 1.1850386852454889e-14 -3.066418604943475 8.67314155588547 -1.248835117406214e-09 -3.0664186039238257 -4.33657077722172 7.511160918847861" Properties=species:S:1:pos:R:3:spacegroup_kinds:I:1:forces:R:3 spacegroup="P 1" unit_cell=conventional occupancy="_JSON {\"0\": {\"In\": 1}, \"1\": {\"In\": 1}, \"2\": {\"In\": 1}, \"3\": {\"In\": 1}, \"4\": {\"In\": 1}, \"5\": {\"In\": 1}, \"6\": {\"In\": 1}, \"7\": {\"In\": 1}, \"8\": {\"In\": 1}, \"9\": {\"In\": 1}, \"10\": {\"In\": 1}, \"11\": {\"In\": 1}, \"12\": {\"In\": 1}, \"13\": {\"In\": 1}, \"14\": {\"In\": 1}, \"15\": {\"In\": 1}, \"16\": {\"O\": 1}, \"17\": {\"O\": 1}, \"18\": {\"O\": 1}, \"19\": {\"O\": 1}, \"20\": {\"O\": 1}, \"21\": {\"O\": 1}, \"22\": {\"O\": 1}, \"23\": {\"O\": 1}, \"24\": {\"O\": 1}, \"25\": {\"O\": 1}, \"26\": {\"O\": 1}, \"27\": {\"O\": 1}, \"28\": {\"O\": 1}, \"29\": {\"O\": 1}, \"30\": {\"O\": 1}, \"31\": {\"O\": 1}, \"32\": {\"O\": 1}, \"33\": {\"O\": 1}, \"34\": {\"O\": 1}, \"35\": {\"O\": 1}, \"36\": {\"O\": 1}, \"37\": {\"O\": 1}, \"38\": {\"O\": 1}, \"39\": {\"O\": 1}}" n_minim_iter=2 energy=-45149.8672431243 stress="0.06807086657045722 4.965794124968696e-13 -2.108646940680709e-13 4.965794124968696e-13 0.06807086657116741 -2.441067015383038e-13 -2.108646940680709e-13 -2.441067015383038e-13 0.06807086657043449" free_energy=-45149.8672431243 pbc="T T T"
In      -4.37511714       3.09367500       5.90833910        0       0.01261493      -0.00892010       0.01545007
In       7.44153574       1.24289579       1.60282181        1      -0.01261493       0.00892010      -0.01545007
In       1.30869853      -0.92538960       5.35840227        2      -0.01261493       0.00892010      -0.01545007
In      -1.53320930      -2.16828539       3.75558046        3      -0.00000000      -0.00000000      -0.00000000
In      -1.30869853       4.17781769       3.48061204        4       0.01261493      -0.00892010      -0.01545007
In       4.82413868      -2.93492190       5.63337069        5       0.01261493       0.01784021       0.00000000
In      -1.30869853       1.40164887       5.63337069        6       0.01261493       0.01784021      -0.00000000
In      -1.75772007       7.27149269       1.87779023        7      -0.01261493      -0.01784021       0.00000000
In       4.37511713       0.15875309       4.03054887        8      -0.01261493       0.00892010       0.01545007
In      -1.53320930       4.33657078      -0.00000000        9       0.00000000      -0.00000000       0.00000000
In       4.37511713       6.66360926       0.27496841       10      -0.01261493       0.00892010       0.01545007
In      -1.30869853      -2.32703847       7.23619250       11       0.01261493      -0.00892010      -0.01545007
In       4.37511713       2.93492191       1.87779023       12      -0.01261493      -0.01784021       0.00000000
In       1.75772007       5.26196039       2.15275864       13       0.01261493      -0.00892010       0.01545007
In       4.59962790       0.00000000      -0.00000000       14       0.00000000       0.00000000      -0.00000000
In       1.53320930       2.16828539       3.75558046       15       0.00000000       0.00000000      -0.00000000
O        0.95051501       4.34529009       4.07029748       16       0.02557373       0.00803525      -0.00846566
O       -2.11590359       3.52062137       5.46846103       17       0.02557373      -0.01134910      -0.00272590
O       -0.44422550       2.33856646       0.00467928       18       0.00540025       0.00291571      -0.02743327
O       -0.95051502      -0.80723010       2.02759760       19      -0.02557373      -0.00331385      -0.01119156
O        4.02457485       5.14650246       2.02291831       20      -0.01922461      -0.01252475       0.01624171
O        2.10826235       2.98963797       1.71288057       21       0.01922461      -0.02032811      -0.00272590
O        2.10826235       6.49343527       0.31003774       22       0.01922461       0.00780336       0.01896761
O       -2.35289676       6.14415383       3.76025974       23      -0.00094888      -0.00606330      -0.02743327
O        3.51064410       1.99800433       7.50648163       24      -0.00540025      -0.00291571       0.02743327
O        5.41931537      -1.80758305       3.75090118       25       0.00094888       0.00606330       0.02743327
O        6.57706270       3.34162100       1.73266214       26      -0.00540025      -0.02230005      -0.01624171
O        3.77994044       2.35268894       4.06561820       27      -0.00094888      -0.02072626       0.01896761
O        0.71352184       4.51286957       7.19644389       28      -0.00094888       0.02678956       0.00846566
O        2.35289676      -0.17629879       0.31471703       29       0.00094888      -0.02678956      -0.00846566
O       -3.51064410       0.99494979       5.77849877       30       0.00540025       0.02230005       0.01624171
O        5.18232219       0.81594941       2.04269989       31      -0.02557373       0.01134910       0.00272590
O        0.95815625       1.34693281       5.79828035       32      -0.01922461       0.02032811       0.00272590
O        3.51064410      -1.00305454       5.78317806       33      -0.00540025       0.02521576      -0.01119156
O        2.11590359      -0.00871931       3.44086343       34      -0.02557373      -0.00803525       0.00846566
O        0.95815625      -2.15686449       7.20112317       35      -0.01922461      -0.00780336      -0.01896761
O       -0.71352184       1.98388185       3.44554271       36       0.00094888       0.02072626      -0.01896761
O       -0.95815625      -0.80993168       5.48824260       37       0.01922461       0.01252475      -0.01624171
O       -0.44422550       5.33962532       1.72798286       38       0.00540025      -0.02521576       0.01119156
O        4.01693362       5.14380088       5.48356332       39       0.02557373       0.00331385       0.01119156
40
Lattice="9.199255812791106 7.210089250230792e-10 1.1850386852454889e-14 -3.066418604943476 8.673141555885472 -1.2488351174062143e-09 -3.0664186039238266 -4.336570777221721 7.511160918847863" Properties=species:S:1:pos:R:3:spacegroup_kinds:I:1:forces:R:3 spacegroup="P 1" unit_cell=conventional occupancy="_JSON {\"0\": {\"In\": 1}, \"1\": {\"In\": 1}, \"2\": {\"In\": 1}, \"3\": {\"In\": 1}, \"4\": {\"In\": 1}, \"5\": {\"In\": 1}, \"6\": {\"In\": 1}, \"7\": {\"In\": 1}, \"8\": {\"In\": 1}, \"9\": {\"In\": 1}, \"10\": {\"In\": 1}, \"11\": {\"In\": 1}, \"12\": {\"In\": 1}, \"13\": {\"In\": 1}, \"14\": {\"In\": 1}, \"15\": {\"In\": 1}, \"16\": {\"O\": 1}, \"17\": {\"O\": 1}, \"18\": {\"O\": 1}, \"19\": {\"O\": 1}, \"20\": {\"O\": 1}, \"21\": {\"O\": 1}, \"22\": {\"O\": 1}, \"23\": {\"O\": 1}, \"24\": {\"O\": 1}, \"25\": {\"O\": 1}, \"26\": {\"O\": 1}, \"27\": {\"O\": 1}, \"28\": {\"O\": 1}, \"29\": {\"O\": 1}, \"30\": {\"O\": 1}, \"31\": {\"O\": 1}, \"32\": {\"O\": 1}, \"33\": {\"O\": 1}, \"34\": {\"O\": 1}, \"35\": {\"O\": 1}, \"36\": {\"O\": 1}, \"37\": {\"O\": 1}, \"38\": {\"O\": 1}, \"39\": {\"O\": 1}}" n_minim_iter=3 energy=-45149.86838948597 stress="0.06767878015311142 1.0943894100720491e-13 3.234277122217712e-13 1.0943894100720491e-13 0.06767878015245563 1.0163444478592466e-13 3.234277122217712e-13 1.0163444478592466e-13 0.06767878015099264" free_energy=-45149.86838948597 pbc="T T T"
In      -4.37350375       3.09253416       5.91031509        0      -0.00182366       0.00128952      -0.00223352
In       7.43992235       1.24403662       1.60084583        1       0.00182366      -0.00128952       0.00223352
In       1.30708515      -0.92424877       5.35642629        2       0.00182366      -0.00128952       0.00223352
In      -1.53320930      -2.16828539       3.75558046        3       0.00000000       0.00000000      -0.00000000
In      -1.30708515       4.17667686       3.47863606        4      -0.00182366       0.00128952       0.00223352
In       4.82575206      -2.93264023       5.63337069        5      -0.00182366      -0.00257904       0.00000000
In      -1.30708515       1.40393054       5.63337069        6      -0.00182366      -0.00257904      -0.00000000
In      -1.75933346       7.26921102       1.87779023        7       0.00182366       0.00257904       0.00000000
In       4.37350375       0.15989393       4.03252486        8       0.00182366      -0.00128952      -0.00223352
In      -1.53320930       4.33657078      -0.00000000        9      -0.00000000      -0.00000000       0.00000000
In       4.37350375       6.66475009       0.27694440       10       0.00182366      -0.00128952      -0.00223352
In      -1.30708515      -2.32817931       7.23421652       11      -0.00182366       0.00128952       0.00223352
In       4.37350375       2.93264024       1.87779023       12       0.00182366       0.00257904      -0.00000000
In       1.75933346       5.26081955       2.15473463       13      -0.00182366       0.00128952      -0.00223352
In       4.59962790       0.00000000      -0.00000000       14      -0.00000000      -0.00000000      -0.00000000
In       1.53320930       2.16828539       3.75558046       15      -0.00000000      -0.00000000      -0.00000000
O        0.95186811       4.34560770       4.06851168       16       0.02644421       0.00809922       0.01198172
O       -2.11455049       3.51891602       5.46907887       17       0.02644421       0.00632686      -0.01300499
O       -0.44508284       2.33842412       0.00258990       18       0.02241578       0.00917539      -0.01793879
O       -0.95186811      -0.80861784       2.02642964       19      -0.02644421       0.01442608      -0.00102327
O        4.02251600       5.14668390       2.02383974       20      -0.00284971      -0.02478305       0.01691552
O        2.11032121       2.98893071       1.71349841       21       0.00284971      -0.02704079      -0.01300499
O        2.11032120       6.49432397       0.31034133       22       0.00284971       0.00225774       0.02992051
O       -2.35304835       6.14500959       3.75817035       23      -0.00117871      -0.02419226      -0.01793879
O        3.51150144       1.99814666       7.50857102       24      -0.02241578      -0.00917539       0.01793879
O        5.41946695      -1.80843881       3.75299056       25       0.00117871       0.02419226       0.01793879
O        6.57792005       3.33974037       1.73174071       26      -0.02241578      -0.01094775      -0.01691552
O        3.77978886       2.35045160       4.06592179       27      -0.00117871      -0.00343932       0.02992051
O        0.71337025       4.51425115       7.19822969       28      -0.00117871       0.02763158      -0.01198172
O        2.35304835      -0.17768037       0.31293123       29       0.00117871      -0.02763158       0.01198172
O       -3.51150145       0.99683041       5.77942020       30       0.02241578       0.01094775       0.01691552
O        5.18096910       0.81765476       2.04208204       31      -0.02644421      -0.00632686       0.01300499
O        0.95609740       1.34764007       5.79766250       32      -0.00284971       0.02704079       0.01300499
O        3.51150144      -1.00131624       5.78201010       33      -0.02241578       0.02012314      -0.00102327
O        2.11455049      -0.00903692       3.44264923       34      -0.02644421      -0.00809922      -0.01198172
O        0.95609740      -2.15775319       7.20081959       35      -0.00284971      -0.00225774      -0.02992051
O       -0.71337026       1.98611918       3.44523913       36       0.00117871       0.00343932      -0.02992051
O       -0.95609740      -0.81011312       5.48732117       37       0.00284971       0.02478305      -0.01691552
O       -0.44508284       5.33788703       1.72915081       38       0.02241578      -0.02012314       0.00102327
O        4.01828671       5.14518862       5.48473127       39       0.02644421      -0.01442608       0.00102327
40
Lattice="9.199255812791106 7.210089250230793e-10 1.185038685245489e-14 -3.0664186049434763 8.673141555885472 -1.2488351174062145e-09 -3.066418603923827 -4.336570777221721 7.511160918847865" Properties=species:S:1:pos:R:3:spacegroup_kinds:I:1:forces:R:3 spacegroup="P 1" unit_cell=conventional occupancy="_JSON {\"0\": {\"In\": 1}, \"1\": {\"In\": 1}, \"2\": {\"In\": 1}, \"3\": {\"In\": 1}, \"4\": {\"In\": 1}, \"5\": {\"In\": 1}, \"6\": {\"In\": 1}, \"7\": {\"In\": 1}, \"8\": {\"In\": 1}, \"9\": {\"In\": 1}, \"10\": {\"In\": 1}, \"11\": {\"In\": 1}, \"12\": {\"In\": 1}, \"13\": {\"In\": 1}, \"14\": {\"In\": 1}, \"15\": {\"In\": 1}, \"16\": {\"O\": 1}, \"17\": {\"O\": 1}, \"18\": {\"O\": 1}, \"19\": {\"O\": 1}, \"20\": {\"O\": 1}, \"21\": {\"O\": 1}, \"22\": {\"O\": 1}, \"23\": {\"O\": 1}, \"24\": {\"O\": 1}, \"25\": {\"O\": 1}, \"26\": {\"O\": 1}, \"27\": {\"O\": 1}, \"28\": {\"O\": 1}, \"29\": {\"O\": 1}, \"30\": {\"O\": 1}, \"31\": {\"O\": 1}, \"32\": {\"O\": 1}, \"33\": {\"O\": 1}, \"34\": {\"O\": 1}, \"35\": {\"O\": 1}, \"36\": {\"O\": 1}, \"37\": {\"O\": 1}, \"38\": {\"O\": 1}, \"39\": {\"O\": 1}}" n_minim_iter=4 energy=-45149.869581413965 stress="0.06722080164791966 -2.3393656929115863e-13 -6.592248321580947e-13 -2.3393656929115863e-13 0.06722080164771099 5.278103653542533e-13 -6.592248321580947e-13 5.278103653542533e-13 0.06722080164844316" free_energy=-45149.869581413965 pbc="T T T"
In      -4.37164931       3.09122287       5.91258631        0      -0.01539259       0.01088420      -0.01885199
In       7.43806791       1.24534791       1.59857460        1       0.01539259      -0.01088420       0.01885199
In       1.30523070      -0.92293748       5.35415506        2       0.01539259      -0.01088420       0.01885199
In      -1.53320930      -2.16828539       3.75558046        3      -0.00000000       0.00000000       0.00000000
In      -1.30523070       4.17536557       3.47636483        4      -0.01539259       0.01088420       0.01885199
In       4.82760651      -2.93001765       5.63337069        5      -0.01539259      -0.02176841       0.00000000
In      -1.30523070       1.40655313       5.63337069        6      -0.01539259      -0.02176841       0.00000000
In      -1.76118791       7.26658843       1.87779023        7       0.01539259       0.02176841      -0.00000000
In       4.37164930       0.16120522       4.03479608        8       0.01539259      -0.01088420      -0.01885199
In      -1.53320930       4.33657078      -0.00000000        9       0.00000000       0.00000000      -0.00000000
In       4.37164930       6.66606138       0.27921562       10       0.01539259      -0.01088420      -0.01885199
In      -1.30523070      -2.32949060       7.23194529       11      -0.01539259       0.01088420       0.01885199
In       4.37164930       2.93001766       1.87779023       12       0.01539259       0.02176841      -0.00000000
In       1.76118790       5.25950826       2.15700585       13      -0.01539259       0.01088420      -0.01885199
In       4.59962790       0.00000000      -0.00000000       14       0.00000000      -0.00000000       0.00000000
In       1.53320930       2.16828539       3.75558046       15      -0.00000000       0.00000000       0.00000000
O        0.95563453       4.34663158       4.06724509       16       0.02326536      -0.00041377       0.02638517
O       -2.11078407       3.51730718       5.46882546       17       0.02326536       0.02305711      -0.01283425
O       -0.44437888       2.33898076      -0.00141424       18       0.02910347       0.01892895      -0.00568406
O       -0.95563454      -0.80920280       2.02490964       19      -0.02326536       0.02264335       0.01355092
O        4.01974369       5.14495707       2.02632387       20       0.01398334      -0.02592504       0.01923498
O        2.11309351       2.98591597       1.71324500       21      -0.01398334      -0.02962050      -0.01283425
O        2.11309351       6.49561188       0.31307887       22      -0.01398334       0.00369546       0.03206923
O       -2.35333850       6.14416034       3.75416622       23      -0.00814522      -0.03374867      -0.00568406
O        3.51079748       1.99759002       7.51257516       24      -0.02910347      -0.01892895       0.00568406
O        5.41975710      -1.80758955       3.75699470       25       0.00814522       0.03374867       0.00568406
O        6.57721608       3.33655100       1.72925658       26      -0.02910347       0.00454193      -0.01923498
O        3.77949871       2.34740854       4.06865933       27      -0.00814522       0.01195180       0.03206923
O        0.71308010       4.51814346       7.19949628       28      -0.00814522       0.02179687      -0.02638517
O        2.35333850      -0.18157268       0.31166463       29       0.00814522      -0.02179687       0.02638517
O       -3.51079748       1.00001978       5.78190433       30       0.02910347      -0.00454193       0.01923498
O        5.17720267       0.81926361       2.04233545       31      -0.02326536      -0.02305711       0.01283425
O        0.95332509       1.35065481       5.79791591       32       0.01398334       0.02962050       0.01283425
O        3.51079748      -0.99757024       5.78049009       33      -0.02910347       0.01438701       0.01355092
O        2.11078407      -0.01006080       3.44391582       34      -0.02326536       0.00041377      -0.02638517
O        0.95332509      -2.15904110       7.19808204       35       0.01398334      -0.00369546      -0.03206923
O       -0.71308011       1.98916224       3.44250158       36       0.00814522      -0.01195180      -0.03206923
O       -0.95332509      -0.80838629       5.48483704       37      -0.01398334       0.02592504      -0.01923498
O       -0.44437888       5.33414102       1.73067082       38       0.02910347      -0.01438701      -0.01355092
O        4.02205314       5.14577358       5.48625128       39       0.02326536      -0.02264335      -0.01355092
40
Lattice="9.199255812791115 7.210089250230802e-10 1.1850386852454917e-14 -3.0664186049434803 8.673141555885477 -1.248835117406216e-09 -3.066418603923831 -4.3365707772217235 7.511160918847873" Properties=species:S:1:pos:R:3:spacegroup_kinds:I:1:forces:R:3 spacegroup="P 1" unit_cell=conventional occupancy="_JSON {\"0\": {\"In\": 1}, \"1\": {\"In\": 1}, \"2\": {\"In\": 1}, \"3\": {\"In\": 1}, \"4\": {\"In\": 1}, \"5\": {\"In\": 1}, \"6\": {\"In\": 1}, \"7\": {\"In\": 1}, \"8\": {\"In\": 1}, \"9\": {\"In\": 1}, \"10\": {\"In\": 1}, \"11\": {\"In\": 1}, \"12\": {\"In\": 1}, \"13\": {\"In\": 1}, \"14\": {\"In\": 1}, \"15\": {\"In\": 1}, \"16\": {\"O\": 1}, \"17\": {\"O\": 1}, \"18\": {\"O\": 1}, \"19\": {\"O\": 1}, \"20\": {\"O\": 1}, \"21\": {\"O\": 1}, \"22\": {\"O\": 1}, \"23\": {\"O\": 1}, \"24\": {\"O\": 1}, \"25\": {\"O\": 1}, \"26\": {\"O\": 1}, \"27\": {\"O\": 1}, \"28\": {\"O\": 1}, \"29\": {\"O\": 1}, \"30\": {\"O\": 1}, \"31\": {\"O\": 1}, \"32\": {\"O\": 1}, \"33\": {\"O\": 1}, \"34\": {\"O\": 1}, \"35\": {\"O\": 1}, \"36\": {\"O\": 1}, \"37\": {\"O\": 1}, \"38\": {\"O\": 1}, \"39\": {\"O\": 1}}" n_minim_iter=5 energy=-45149.87268038026 stress="0.0669188091349211 4.635243290839667e-13 -1.9574061115976723e-13 4.635243290839667e-13 0.06691880913537598 2.534740236740039e-13 -1.9574061115976723e-13 2.534740236740039e-13 0.06691880913547775" free_energy=-45149.87268038026 pbc="T T T"
In      -4.37070337       3.09055399       5.91374484        0      -0.01021848       0.00722556      -0.01251503
In       7.43712197       1.24601679       1.59741607        1       0.01021848      -0.00722556       0.01251503
In       1.30428476      -0.92226860       5.35299653        2       0.01021848      -0.00722556       0.01251503
In      -1.53320930      -2.16828539       3.75558046        3       0.00000000       0.00000000      -0.00000000
In      -1.30428477       4.17469669       3.47520630        4      -0.01021848       0.00722556       0.01251503
In       4.82855244      -2.92867990       5.63337069        5      -0.01021848      -0.01445112      -0.00000000
In      -1.30428477       1.40789088       5.63337069        6      -0.01021848      -0.01445112       0.00000000
In      -1.76213384       7.26525068       1.87779023        7       0.01021848       0.01445112       0.00000000
In       4.37070337       0.16187410       4.03595461        8       0.01021848      -0.00722556      -0.01251503
In      -1.53320930       4.33657078      -0.00000000        9      -0.00000000      -0.00000000       0.00000000
In       4.37070337       6.66673026       0.28037415       10       0.01021848      -0.00722556      -0.01251503
In      -1.30428477      -2.33015948       7.23078676       11      -0.01021848       0.00722556       0.01251503
In       4.37070337       2.92867990       1.87779023       12       0.01021848       0.01445112      -0.00000000
In       1.76213384       5.25883938       2.15816438       13      -0.01021848       0.00722556      -0.01251503
In       4.59962790       0.00000000      -0.00000000       14      -0.00000000       0.00000000       0.00000000
In       1.53320930       2.16828539       3.75558046       15      -0.00000000      -0.00000000      -0.00000000
O        0.96551036       4.34905074       4.06920970       16       0.00729520      -0.02692362       0.00374632
O       -2.10090825       3.51779899       5.46574810       17       0.00729520       0.01670622       0.02144338
O       -0.43834244       2.34218743      -0.00919387       18      -0.00720132       0.02695681       0.00368883
O       -0.96551036      -0.80629182       2.02379688       19      -0.00729520      -0.01021740       0.02518970
O        4.01691544       5.13755452       2.03299075       20       0.01331904       0.01234715       0.02150087
O        2.11592176       2.97644102       1.71016764       21      -0.01331904      -0.01244673       0.02144338
O        2.11592176       6.49768429       0.32282310       22      -0.01331904       0.02479387       0.00005749
O       -2.35434964       6.13740024       3.74638659       23      -0.02781557      -0.00219613       0.00368883
O        3.50476104       1.99438335       7.52035478       24       0.00720132      -0.02695681      -0.00368883
O        5.42076824      -1.80082945       3.76477432       25       0.02781557       0.00219613      -0.00368883
O        6.57117964       3.33141699       1.72258971       26       0.00720132       0.01667303      -0.02150087
O        3.77848757       2.34405124       4.07840356       27      -0.02781557       0.00429269       0.00005749
O        0.71206897       4.52826087       7.19753167       28      -0.02781557      -0.00209656      -0.00374632
O        2.35434963      -0.19169009       0.31362924       29       0.02781557       0.00209656       0.00374632
O       -3.50476104       1.00515380       5.78857121       30      -0.00720132      -0.01667303       0.02150087
O        5.16732685       0.81877179       2.04541281       31      -0.00729520      -0.01670622      -0.02144338
O        0.95049684       1.36012977       5.80099327       32       0.01331904       0.01244673      -0.02144338
O        3.50476104      -0.98922955       5.77937734       33       0.00720132       0.01028379       0.02518970
O        2.10090824      -0.01247996       3.44195122       34      -0.00729520       0.02692362      -0.00374632
O        0.95049684      -2.16111350       7.18833781       35       0.01331904      -0.02479387      -0.00005749
O       -0.71206897       1.99251954       3.43275735       36       0.02781557      -0.00429269      -0.00005749
O       -0.95049684      -0.80098374       5.47817017       37      -0.01331904      -0.01234715      -0.02150087
O       -0.43834244       5.32580033       1.73178357       38      -0.00720132      -0.01028379      -0.02518970
O        4.03192896       5.14286260       5.48736403       39       0.00729520       0.01021740      -0.02518970
40