40
Lattice="9.129029747303118 7.155076571976511e-10 7.373305591836085e-15 -3.0430099164422924 8.606931786390493 -1.2392957848480374e-09 -3.0430099154304218 -4.303465892479741 7.45382157648015" Properties=species:S:1:pos:R:3:spacegroup_kinds:I:1:forces:R:3 spacegroup="P 1" unit_cell=conventional occupancy="_JSON {\"0\": {\"In\": 1}, \"1\": {\"In\": 1}, \"2\": {\"In\": 1}, \"3\": {\"In\": 1}, \"4\": {\"In\": 1}, \"5\": {\"In\": 1}, \"6\": {\"In\": 1}, \"7\": {\"In\": 1}, \"8\": {\"In\": 1}, \"9\": {\"In\": 1}, \"10\": {\"In\": 1}, \"11\": {\"In\": 1}, \"12\": {\"In\": 1}, \"13\": {\"In\": 1}, \"14\": {\"In\": 1}, \"15\": {\"In\": 1}, \"16\": {\"O\": 1}, \"17\": {\"O\": 1}, \"18\": {\"O\": 1}, \"19\": {\"O\": 1}, \"20\": {\"O\": 1}, \"21\": {\"O\": 1}, \"22\": {\"O\": 1}, \"23\": {\"O\": 1}, \"24\": {\"O\": 1}, \"25\": {\"O\": 1}, \"26\": {\"O\": 1}, \"27\": {\"O\": 1}, \"28\": {\"O\": 1}, \"29\": {\"O\": 1}, \"30\": {\"O\": 1}, \"31\": {\"O\": 1}, \"32\": {\"O\": 1}, \"33\": {\"O\": 1}, \"34\": {\"O\": 1}, \"35\": {\"O\": 1}, \"36\": {\"O\": 1}, \"37\": {\"O\": 1}, \"38\": {\"O\": 1}, \"39\": {\"O\": 1}}" n_minim_iter=7 energy=-45150.70454720675 stress="0.05460878457076765 -4.024010907743682e-14 3.3600820922834647e-13 -4.024010907743682e-14 0.05460878456932621 -2.2828019613373795e-13 3.3600820922834647e-13 -2.2828019613373795e-13 0.05460878457022154" free_energy=-45150.70454720675 pbc="T T T"
In      -4.34441105       3.07196251       5.85993721        0      -0.00281157       0.00198808      -0.00344345
In       7.38742096       1.23150338       1.59388436        1       0.00281157      -0.00198808       0.00344345
In       1.30140113      -0.92022956       5.32079515        2       0.00281157      -0.00198808       0.00344345
In      -1.52150496      -2.15173294       3.72691079        3      -0.00000000      -0.00000000      -0.00000000
In      -1.30140113       4.14782899       3.45733975        4      -0.00281157       0.00198808       0.00344345
In       4.78461870      -2.91632560       5.59036618        5      -0.00281157      -0.00397616       0.00000000
In      -1.30140113       1.38714029       5.59036618        6      -0.00281157      -0.00397616       0.00000000
In      -1.74160879       7.21979150       1.86345539        7       0.00281157       0.00397616       0.00000000
In       4.34441105       0.15563691       3.99648182        8       0.00281157      -0.00198808      -0.00344345
In      -1.52150496       4.30346589      -0.00000000        9       0.00000000      -0.00000000       0.00000000
In       4.34441105       6.61083575       0.26957103       10       0.00281157      -0.00198808      -0.00344345
In      -1.30140113      -2.30736985       7.18425054       11      -0.00281157       0.00198808       0.00344345
In       4.34441105       2.91632561       1.86345539       12       0.00281157       0.00397616       0.00000000
In       1.74160878       5.22369546       2.13302642       13      -0.00281157       0.00198808      -0.00344345
In       4.56451487       0.00000000      -0.00000000       14      -0.00000000       0.00000000       0.00000000
In       1.52150496       2.15173295       3.72691079       15       0.00000000       0.00000000      -0.00000000
O        0.94167598       4.31183867       4.04245388       16       0.00106512      -0.00691646       0.00005697
O       -2.10133394       3.49668136       5.42534359       17       0.00106512       0.00350757       0.00596135
O       -0.43885783       2.32113323       0.00763111       18      -0.00285890       0.00628227       0.00115543
O       -0.94167598      -0.79841175       2.01397590       19      -0.00106512      -0.00340889       0.00601832
O        3.99714745       5.10628347       2.00634478       20       0.00295193       0.00407598       0.00486289
O        2.08887238       2.96732913       1.69843281       21      -0.00295193      -0.00217339       0.00596135
O        2.08887238       6.44242024       0.30791197       22      -0.00295193       0.00624938      -0.00109846
O       -2.33467134       6.09524689       3.73454190       23      -0.00687594       0.00060131       0.00115543
O        3.48186774       1.98233267       7.44619046       24       0.00285890      -0.00628227      -0.00115543
O        5.37768125      -1.79178099       3.71927967       25       0.00687594      -0.00060131      -0.00115543
O        6.52487765       3.31890830       1.72056600       26       0.00285890       0.00414177      -0.00486289
O        3.75134849       2.33831766       4.03482276       27      -0.00687594       0.00069998      -0.00109846
O        0.70833858       4.47683313       7.13827848       28      -0.00687594      -0.00130129      -0.00005697
O        2.33467134      -0.17336724       0.31554309       29       0.00687594       0.00130129       0.00005697
O       -3.48186774       0.98455760       5.73325557       30      -0.00285890      -0.00414177       0.00486289
O        5.14434385       0.80678453       2.02847798       31      -0.00106512      -0.00350757      -0.00596135
O        0.95413753       1.33613677       5.75538876       32       0.00295193       0.00217339      -0.00596135
O        3.48186774      -0.99777507       5.74088669       33       0.00285890       0.00214050       0.00601832
O        2.10133394      -0.00837278       3.41136769       34      -0.00106512       0.00691646      -0.00005697
O        0.95413753      -2.13895434       7.14590960       35       0.00295193      -0.00624938       0.00109846
O       -0.70833858       1.96514823       3.41899881       36       0.00687594      -0.00069998       0.00109846
O       -0.95413754      -0.80281757       5.44747679       37      -0.00295193      -0.00407598      -0.00486289
O       -0.43885783       5.30124096       1.71293489       38      -0.00285890      -0.00214050      -0.00601832
O        3.98468589       5.10187765       5.43984567       39       0.00106512       0.00340889      -0.00601832
