40
Lattice="9.129029747303115 7.155076571976505e-10 7.373305591836048e-15 -3.0430099164422892 8.606931786390492 -1.2392957848480357e-09 -3.0430099154304187 -4.30346589247974 7.453821576480139" Properties=species:S:1:pos:R:3:spacegroup_kinds:I:1:forces:R:3 spacegroup="P 1" unit_cell=conventional occupancy="_JSON {\"0\": {\"In\": 1}, \"1\": {\"In\": 1}, \"2\": {\"In\": 1}, \"3\": {\"In\": 1}, \"4\": {\"In\": 1}, \"5\": {\"In\": 1}, \"6\": {\"In\": 1}, \"7\": {\"In\": 1}, \"8\": {\"In\": 1}, \"9\": {\"In\": 1}, \"10\": {\"In\": 1}, \"11\": {\"In\": 1}, \"12\": {\"In\": 1}, \"13\": {\"In\": 1}, \"14\": {\"In\": 1}, \"15\": {\"In\": 1}, \"16\": {\"O\": 1}, \"17\": {\"O\": 1}, \"18\": {\"O\": 1}, \"19\": {\"O\": 1}, \"20\": {\"O\": 1}, \"21\": {\"O\": 1}, \"22\": {\"O\": 1}, \"23\": {\"O\": 1}, \"24\": {\"O\": 1}, \"25\": {\"O\": 1}, \"26\": {\"O\": 1}, \"27\": {\"O\": 1}, \"28\": {\"O\": 1}, \"29\": {\"O\": 1}, \"30\": {\"O\": 1}, \"31\": {\"O\": 1}, \"32\": {\"O\": 1}, \"33\": {\"O\": 1}, \"34\": {\"O\": 1}, \"35\": {\"O\": 1}, \"36\": {\"O\": 1}, \"37\": {\"O\": 1}, \"38\": {\"O\": 1}, \"39\": {\"O\": 1}}" n_minim_iter=1 energy=-45150.6927898969 stress="0.05635143305560883 6.216527778204785e-13 9.242613325496705e-14 6.216527778204785e-13 0.056351433056955225 1.7168441514237235e-13 9.242613325496705e-14 1.7168441514237235e-13 0.05635143305657607" free_energy=-45150.6927898969 pbc="T T T"
In      -4.35184602       3.07721983       5.85083127        0       0.03949834      -0.02792955       0.04837539
In       7.39485593       1.22624606       1.60299030        1      -0.03949834       0.02792955      -0.04837539
In       1.30883610      -0.92548688       5.32990109        2      -0.03949834       0.02792955      -0.04837539
In      -1.52150496      -2.15173294       3.72691079        3      -0.00000000      -0.00000000      -0.00000000
In      -1.30883611       4.15308631       3.46644570        4       0.03949834      -0.02792955      -0.04837539
In       4.77718373      -2.92684024       5.59036618        5       0.03949834       0.05585909       0.00000000
In      -1.30883611       1.37662565       5.59036618        6       0.03949834       0.05585909      -0.00000000
In      -1.73417381       7.23030614       1.86345539        7      -0.03949834      -0.05585909       0.00000000
In       4.35184602       0.15037959       3.98737587        8      -0.03949834       0.02792955       0.04837539
In      -1.52150496       4.30346589      -0.00000000        9      -0.00000000       0.00000000      -0.00000000
In       4.35184602       6.60557843       0.26046508       10      -0.03949834       0.02792955       0.04837539
In      -1.30883611      -2.30211253       7.19335649       11       0.03949834      -0.02792955      -0.04837539
In       4.35184602       2.92684025       1.86345539       12      -0.03949834      -0.05585909       0.00000000
In       1.73417381       5.22895278       2.12392048       13       0.03949834      -0.02792955       0.04837539
In       4.56451487       0.00000000      -0.00000000       14      -0.00000000       0.00000000      -0.00000000
In       1.52150496       2.15173295       3.72691079       15       0.00000000      -0.00000000      -0.00000000
O        0.92320889       4.30878191       4.04545087       16       0.02070246       0.01017209      -0.04123760
O       -2.11980102       3.50080522       5.42649233       17       0.02070246      -0.04079885       0.01180951
O       -0.44400746       2.31584023       0.02509033       18      -0.02197437      -0.01062178      -0.04045872
O       -0.92320890      -0.79734466       2.01812163       19      -0.02070246      -0.03062676      -0.02942809
O        4.00719115       5.11529647       1.99303130       20      -0.04536635       0.00726791       0.01103063
O        2.07882868       2.98336544       1.69958154       21       0.04536635      -0.00591885       0.01180951
O        2.07882868       6.43539692       0.29344975       22       0.04536635       0.01318676      -0.00077888
O       -2.33139759       6.10186634       3.75200112       23       0.00268952       0.02425823      -0.04045872
O        3.48701737       1.98762567       7.42873124       24       0.02197437       0.01062178       0.04045872
O        5.37440750      -1.79840045       3.70182045       25      -0.00268952      -0.02425823       0.04045872
O        6.53002729       3.33138193       1.73387949       26       0.02197437      -0.04034917      -0.01103063
O        3.75462224       2.35012806       4.02036054       27       0.00268952      -0.04716739      -0.00077888
O        0.71161233       4.45840328       7.13528149       28       0.00268952       0.02290916       0.04123760
O        2.33139759      -0.15493738       0.31854008       29      -0.00268952      -0.02290916      -0.04123760
O       -3.48701737       0.97208397       5.71994208       30      -0.02197437       0.04034917       0.01103063
O        5.16281094       0.80266068       2.02732924       31      -0.02070246       0.04079885      -0.01180951
O        0.96418123       1.32010045       5.75424003       32      -0.04536635       0.00591885      -0.01180951
O        3.48701737      -1.01554170       5.74503242       33       0.02197437       0.02972739      -0.02942809
O        2.11980102      -0.00531601       3.40837070       34      -0.02070246      -0.01017209       0.04123760
O        0.96418123      -2.13193102       7.16037182       35      -0.04536635      -0.01318676       0.00077888
O       -0.71161233       1.95333783       3.43346103       36      -0.00268952       0.04716739       0.00077888
O       -0.96418124      -0.81183057       5.46079027       37       0.04536635      -0.00726791      -0.01103063
O       -0.44400746       5.31900760       1.70878915       38      -0.02197437      -0.02972739       0.02942809
O        3.96621881       5.10081056       5.43569994       39       0.02070246       0.03062676       0.02942809
40
Lattice="9.129029747303113 7.155076571976506e-10 7.373305591836054e-15 -3.0430099164422897 8.60693178639049 -1.239295784848036e-09 -3.043009915430419 -4.303465892479739 7.4538215764801405" Properties=species:S:1:pos:R:3:spacegroup_kinds:I:1:forces:R:3 spacegroup="P 1" unit_cell=conventional occupancy="_JSON {\"0\": {\"In\": 1}, \"1\": {\"In\": 1}, \"2\": {\"In\": 1}, \"3\": {\"In\": 1}, \"4\": {\"In\": 1}, \"5\": {\"In\": 1}, \"6\": {\"In\": 1}, \"7\": {\"In\": 1}, \"8\": {\"In\": 1}, \"9\": {\"In\": 1}, \"10\": {\"In\": 1}, \"11\": {\"In\": 1}, \"12\": {\"In\": 1}, \"13\": {\"In\": 1}, \"14\": {\"In\": 1}, \"15\": {\"In\": 1}, \"16\": {\"O\": 1}, \"17\": {\"O\": 1}, \"18\": {\"O\": 1}, \"19\": {\"O\": 1}, \"20\": {\"O\": 1}, \"21\": {\"O\": 1}, \"22\": {\"O\": 1}, \"23\": {\"O\": 1}, \"24\": {\"O\": 1}, \"25\": {\"O\": 1}, \"26\": {\"O\": 1}, \"27\": {\"O\": 1}, \"28\": {\"O\": 1}, \"29\": {\"O\": 1}, \"30\": {\"O\": 1}, \"31\": {\"O\": 1}, \"32\": {\"O\": 1}, \"33\": {\"O\": 1}, \"34\": {\"O\": 1}, \"35\": {\"O\": 1}, \"36\": {\"O\": 1}, \"37\": {\"O\": 1}, \"38\": {\"O\": 1}, \"39\": {\"O\": 1}}" n_minim_iter=2 energy=-45150.69804978004 stress="0.05580556819670973 3.161203718673591e-13 4.41958955261887e-13 3.161203718673591e-13 0.05580556819696225 2.7984710088068346e-13 4.41958955261887e-13 2.7984710088068346e-13 0.05580556819723149" free_energy=-45150.69804978004 pbc="T T T"
In      -4.34902471       3.07522487       5.85428665        0       0.01201211      -0.00849384       0.01471177
In       7.39203462       1.22824103       1.59953492        1      -0.01201211       0.00849384      -0.01471177
In       1.30601479      -0.92349192       5.32644571        2      -0.01201211       0.00849384      -0.01471177
In      -1.52150496      -2.15173294       3.72691079        3       0.00000000      -0.00000000      -0.00000000
In      -1.30601480       4.15109134       3.46299031        4       0.01201211      -0.00849384      -0.01471177
In       4.78000504      -2.92285031       5.59036618        5       0.01201211       0.01698769      -0.00000000
In      -1.30601480       1.38061559       5.59036618        6       0.01201211       0.01698769       0.00000000
In      -1.73699512       7.22631620       1.86345539        7      -0.01201211      -0.01698769      -0.00000000
In       4.34902471       0.15237456       3.99083126        8      -0.01201211       0.00849384       0.01471177
In      -1.52150496       4.30346589      -0.00000000        9      -0.00000000      -0.00000000       0.00000000
In       4.34902471       6.60757340       0.26392047       10      -0.01201211       0.00849384       0.01471177
In      -1.30601480      -2.30410750       7.18990110       11       0.01201211      -0.00849384      -0.01471177
In       4.34902471       2.92285031       1.86345539       12      -0.01201211      -0.01698769      -0.00000000
In       1.73699512       5.22695781       2.12737586       13       0.01201211      -0.00849384       0.01471177
In       4.56451487       0.00000000      -0.00000000       14      -0.00000000      -0.00000000       0.00000000
In       1.52150496       2.15173295       3.72691079       15       0.00000000       0.00000000      -0.00000000
O        0.92468764       4.30950849       4.04250533       16       0.02637583       0.00906950      -0.00497553
O       -2.11832228       3.49789102       5.42733587       17       0.02637583      -0.00884368      -0.00536666
O       -0.44557706       2.31508153       0.02220042       18       0.00900485       0.00343946      -0.02664168
O       -0.92468764      -0.79953228       2.01601962       19      -0.02637583       0.00022582      -0.01034218
O        4.00395070       5.11581560       1.99381920       20      -0.01712985      -0.01560740       0.01629949
O        2.08206913       2.98294267       1.70042508       21       0.01712985      -0.02191947      -0.00536666
O        2.08206913       6.43633883       0.29339411       22       0.01712985       0.00631208       0.02166615
O       -2.33120548       6.10359908       3.74911121       23      -0.00024113      -0.00963634      -0.02664168
O        3.48858697       1.98838437       7.43162115       24      -0.00900485      -0.00343946       0.02664168
O        5.37421539      -1.80013318       3.70471036       25       0.00024113       0.00963634       0.02664168
O        6.53159688       3.32849984       1.73309158       26      -0.00900485      -0.02135264      -0.01629949
O        3.75481435       2.34675896       4.02030490       27      -0.00024113      -0.01825420       0.02166615
O        0.71180444       4.46003965       7.13822703       28      -0.00024113       0.02789054       0.00497553
O        2.33120548      -0.15657375       0.31559454       29       0.00024113      -0.02789054      -0.00497553
O       -3.48858697       0.97496605       5.72072999       30       0.00900485       0.02135264       0.01629949
O        5.16133219       0.80557488       2.02648570       31      -0.02637583       0.00884368       0.00536666
O        0.96094078       1.32052323       5.75339649       32      -0.01712985       0.02191947       0.00536666
O        3.48858697      -1.01341831       5.74293041       33      -0.00900485       0.02479210      -0.01034218
O        2.11832227      -0.00604259       3.41131624       34      -0.02637583      -0.00906950       0.00497553
O        0.96094078      -2.13287293       7.16042746       35      -0.01712985      -0.00631208      -0.02166615
O       -0.71180444       1.95670693       3.43351667       36       0.00024113       0.01825420      -0.02166615
O       -0.96094078      -0.81234970       5.46000237       37       0.01712985       0.01560740      -0.01629949
O       -0.44557706       5.31688421       1.71089116       38       0.00900485      -0.02479210       0.01034218
O        3.96769756       5.10299818       5.43780195       39       0.02637583      -0.00022582       0.01034218
40
Lattice="9.129029747303113 7.155076571976506e-10 7.373305591836057e-15 -3.0430099164422897 8.60693178639049 -1.2392957848480364e-09 -3.043009915430419 -4.303465892479739 7.453821576480143" Properties=species:S:1:pos:R:3:spacegroup_kinds:I:1:forces:R:3 spacegroup="P 1" unit_cell=conventional occupancy="_JSON {\"0\": {\"In\": 1}, \"1\": {\"In\": 1}, \"2\": {\"In\": 1}, \"3\": {\"In\": 1}, \"4\": {\"In\": 1}, \"5\": {\"In\": 1}, \"6\": {\"In\": 1}, \"7\": {\"In\": 1}, \"8\": {\"In\": 1}, \"9\": {\"In\": 1}, \"10\": {\"In\": 1}, \"11\": {\"In\": 1}, \"12\": {\"In\": 1}, \"13\": {\"In\": 1}, \"14\": {\"In\": 1}, \"15\": {\"In\": 1}, \"16\": {\"O\": 1}, \"17\": {\"O\": 1}, \"18\": {\"O\": 1}, \"19\": {\"O\": 1}, \"20\": {\"O\": 1}, \"21\": {\"O\": 1}, \"22\": {\"O\": 1}, \"23\": {\"O\": 1}, \"24\": {\"O\": 1}, \"25\": {\"O\": 1}, \"26\": {\"O\": 1}, \"27\": {\"O\": 1}, \"28\": {\"O\": 1}, \"29\": {\"O\": 1}, \"30\": {\"O\": 1}, \"31\": {\"O\": 1}, \"32\": {\"O\": 1}, \"33\": {\"O\": 1}, \"34\": {\"O\": 1}, \"35\": {\"O\": 1}, \"36\": {\"O\": 1}, \"37\": {\"O\": 1}, \"38\": {\"O\": 1}, \"39\": {\"O\": 1}}" n_minim_iter=3 energy=-45150.69910258017 stress="0.0554748625336685 3.5765331453836314e-14 -2.6346242551516803e-13 3.5765331453836314e-14 0.05547486253250088 1.0615670845280803e-13 -2.6346242551516803e-13 1.0615670845280803e-13 0.05547486253228429" free_energy=-45150.69910258017 pbc="T T T"
In      -4.34746256       3.07412026       5.85619988        0      -0.00218424       0.00154449      -0.00267513
In       7.39047248       1.22934564       1.59762169        1       0.00218424      -0.00154449       0.00267513
In       1.30445264      -0.92238731       5.32453247        2       0.00218424      -0.00154449       0.00267513
In      -1.52150496      -2.15173294       3.72691079        3      -0.00000000      -0.00000000       0.00000000
In      -1.30445265       4.14998673       3.46107708        4      -0.00218424       0.00154449       0.00267513
In       4.78156718      -2.92064109       5.59036618        5      -0.00218424      -0.00308898       0.00000000
In      -1.30445265       1.38282480       5.59036618        6      -0.00218424      -0.00308898       0.00000000
In      -1.73855727       7.22410699       1.86345539        7       0.00218424       0.00308898      -0.00000000
In       4.34746256       0.15347916       3.99274449        8       0.00218424      -0.00154449      -0.00267513
In      -1.52150496       4.30346589      -0.00000000        9      -0.00000000      -0.00000000       0.00000000
In       4.34746256       6.60867800       0.26583370       10       0.00218424      -0.00154449      -0.00267513
In      -1.30445265      -2.30521211       7.18798787       11      -0.00218424       0.00154449       0.00267513
In       4.34746256       2.92064110       1.86345539       12       0.00218424       0.00308898       0.00000000
In       1.73855727       5.22585321       2.12928910       13      -0.00218424       0.00154449      -0.00267513
In       4.56451487       0.00000000      -0.00000000       14      -0.00000000      -0.00000000       0.00000000
In       1.52150496       2.15173295       3.72691079       15      -0.00000000       0.00000000       0.00000000
O        0.92594111       4.31004016       4.04103817       16       0.02825927       0.00620901       0.01317631
O       -2.11706881       3.49635458       5.42760900       17       0.02825927       0.00830651      -0.01196532
O       -0.44610653       2.31480582       0.02028991       18       0.02310512       0.01195105      -0.01827783
O       -0.92594111      -0.80053704       2.01482560       19      -0.02825927       0.01451552       0.00121099
O        4.00208431       5.11571733       1.99453569       20      -0.00158830      -0.02506823       0.01948883
O        2.08393551       2.98227303       1.70069822       21       0.00158830      -0.02941194      -0.01196532
O        2.08393551       6.43691019       0.29383747       22       0.00158830       0.00434370       0.03145414
O       -2.33112204       6.10419017       3.74720070       23      -0.00356585      -0.02576740      -0.01827783
O        3.48911644       1.98866007       7.43353166       24      -0.02310512      -0.01195105       0.01827783
O        5.37413195      -1.80072427       3.70662087       25       0.00356585       0.02576740       0.01827783
O        6.53212636       3.32670744       1.73237509       26      -0.02310512      -0.00985355      -0.01948883
O        3.75489779       2.34480887       4.02074826       27      -0.00356585      -0.00294537       0.03145414
O        0.71188788       4.46139865       7.13969419       28      -0.00356585       0.02871277      -0.01317631
O        2.33112203      -0.15793275       0.31412738       29       0.00356585      -0.02871277       0.01317631
O       -3.48911645       0.97675846       5.72144648       30       0.02310512       0.00985355       0.01948883
O        5.16007872       0.80711131       2.02621257       31      -0.02825927      -0.00830651       0.01196532
O        0.95907440       1.32119286       5.75312335       32      -0.00158830       0.02941194       0.01196532
O        3.48911644      -1.01190161       5.74173639       33      -0.02310512       0.02180459       0.00121099
O        2.11706881      -0.00657426       3.41278340       34      -0.02825927      -0.00620901      -0.01317631
O        0.95907440      -2.13344429       7.15998410       35      -0.00158830      -0.00434370      -0.03145414
O       -0.71188788       1.95865703       3.43307331       36       0.00356585       0.00294537      -0.03145414
O       -0.95907440      -0.81225143       5.45928588       37       0.00158830       0.02506823      -0.01948883
O       -0.44610653       5.31536751       1.71208518       38       0.02310512      -0.02180459      -0.00121099
O        3.96895102       5.10400294       5.43899597       39       0.02825927      -0.01451552      -0.00121099
40
Lattice="9.129029747303107 7.155076571976501e-10 7.373305591836049e-15 -3.0430099164422875 8.606931786390485 -1.2392957848480353e-09 -3.043009915430417 -4.303465892479736 7.453821576480138" Properties=species:S:1:pos:R:3:spacegroup_kinds:I:1:forces:R:3 spacegroup="P 1" unit_cell=conventional occupancy="_JSON {\"0\": {\"In\": 1}, \"1\": {\"In\": 1}, \"2\": {\"In\": 1}, \"3\": {\"In\": 1}, \"4\": {\"In\": 1}, \"5\": {\"In\": 1}, \"6\": {\"In\": 1}, \"7\": {\"In\": 1}, \"8\": {\"In\": 1}, \"9\": {\"In\": 1}, \"10\": {\"In\": 1}, \"11\": {\"In\": 1}, \"12\": {\"In\": 1}, \"13\": {\"In\": 1}, \"14\": {\"In\": 1}, \"15\": {\"In\": 1}, \"16\": {\"O\": 1}, \"17\": {\"O\": 1}, \"18\": {\"O\": 1}, \"19\": {\"O\": 1}, \"20\": {\"O\": 1}, \"21\": {\"O\": 1}, \"22\": {\"O\": 1}, \"23\": {\"O\": 1}, \"24\": {\"O\": 1}, \"25\": {\"O\": 1}, \"26\": {\"O\": 1}, \"27\": {\"O\": 1}, \"28\": {\"O\": 1}, \"29\": {\"O\": 1}, \"30\": {\"O\": 1}, \"31\": {\"O\": 1}, \"32\": {\"O\": 1}, \"33\": {\"O\": 1}, \"34\": {\"O\": 1}, \"35\": {\"O\": 1}, \"36\": {\"O\": 1}, \"37\": {\"O\": 1}, \"38\": {\"O\": 1}, \"39\": {\"O\": 1}}" n_minim_iter=4 energy=-45150.700300222525 stress="0.054897732893490994 5.0803810666166974e-14 -1.3253326245470796e-13 5.0803810666166974e-14 0.05489773289379997 3.93954262021324e-13 -1.3253326245470796e-13 3.93954262021324e-13 0.05489773289346679" free_energy=-45150.700300222525 pbc="T T T"
In      -4.34515771       3.07249049       5.85902274        0      -0.01864582       0.01318459      -0.02283637
In       7.38816763       1.23097541       1.59479883        1       0.01864582      -0.01318459       0.02283637
In       1.30214779      -0.92075753       5.32170962        2       0.01864582      -0.01318459       0.02283637
In      -1.52150496      -2.15173294       3.72691079        3      -0.00000000       0.00000000      -0.00000000
In      -1.30214780       4.14835696       3.45825423        4      -0.01864582       0.01318459       0.02283637
In       4.78387203      -2.91738154       5.59036618        5      -0.01864582      -0.02636917      -0.00000000
In      -1.30214780       1.38608435       5.59036618        6      -0.01864582      -0.02636917      -0.00000000
In      -1.74086212       7.22084744       1.86345539        7       0.01864582       0.02636917       0.00000000
In       4.34515771       0.15510894       3.99556734        8       0.01864582      -0.01318459      -0.02283637
In      -1.52150496       4.30346589      -0.00000000        9       0.00000000       0.00000000      -0.00000000
In       4.34515771       6.61030778       0.26865656       10       0.01864582      -0.01318459      -0.02283637
In      -1.30214780      -2.30684188       7.18516501       11      -0.01864582       0.01318459       0.02283637
In       4.34515771       2.91738155       1.86345539       12       0.01864582       0.02636917      -0.00000000
In       1.74086212       5.22422343       2.13211195       13      -0.01864582       0.01318459      -0.02283637
In       4.56451487       0.00000000      -0.00000000       14       0.00000000       0.00000000      -0.00000000
In       1.52150496       2.15173295       3.72691079       15       0.00000000      -0.00000000       0.00000000
O        0.93014385       4.31135669       4.03974461       16       0.02540682      -0.00564349       0.02990555
O       -2.11286607       3.49457606       5.42711564       17       0.02540682       0.02872071      -0.01006537
O       -0.44514119       2.31531649       0.01583155       18       0.03022635       0.02531278      -0.00416267
O       -0.93014385      -0.80099904       2.01303867       19      -0.02540682       0.02307722       0.01984018
O        3.99900659       5.11360529       1.99720711       20       0.01860920      -0.02548054       0.02400285
O        2.08701324       2.97890349       1.70020485       21      -0.01860920      -0.03352735      -0.01006537
O        2.08701324       6.43816769       0.29700226       22      -0.01860920       0.00804681       0.03406822
O       -2.33128171       6.10310981       3.74274234       23      -0.01378967      -0.03693527      -0.00416267
O        3.48815110       1.98814941       7.43799002       24      -0.03022635      -0.02531278       0.00416267
O        5.37429163      -1.79964392       3.71107923       25       0.01378967       0.03693527       0.00416267
O        6.53116101       3.32310172       1.72970367       26      -0.03022635       0.00905141      -0.02400285
O        3.75473812       2.34148799       4.02391305       27      -0.01378967       0.01486266       0.03406822
O        0.71172820       4.46579988       7.14098775       28      -0.01378967       0.02207261      -0.02990555
O        2.33128171      -0.16233398       0.31283382       29       0.01378967      -0.02207261       0.02990555
O       -3.48815110       0.98036418       5.72411790       30       0.03022635      -0.00905141       0.02400285
O        5.15587598       0.80888984       2.02670593       31      -0.02540682      -0.02872071       0.01006537
O        0.95599667       1.32456241       5.75361672       32       0.01860920       0.03352735       0.01006537
O        3.48815110      -1.00778523       5.73994946       33      -0.03022635       0.01626137       0.01984018
O        2.11286606      -0.00789080       3.41407696       34      -0.02540682       0.00564349      -0.02990555
O        0.95599667      -2.13470179       7.15681931       35       0.01860920      -0.00804681      -0.03406822
O       -0.71172821       1.96197790       3.42990852       36       0.01378967      -0.01486266      -0.03406822
O       -0.95599668      -0.81013939       5.45661446       37      -0.01860920       0.02548054      -0.02400285
O       -0.44514119       5.31125113       1.71387211       38       0.03022635      -0.01626137      -0.01984018
O        3.97315376       5.10446493       5.44078290       39       0.02540682      -0.02307722      -0.01984018
40
Lattice="9.129029747303115 7.155076571976508e-10 7.373305591836073e-15 -3.0430099164422906 8.606931786390492 -1.2392957848480366e-09 -3.04300991543042 -4.30346589247974 7.453821576480146" Properties=species:S:1:pos:R:3:spacegroup_kinds:I:1:forces:R:3 spacegroup="P 1" unit_cell=conventional occupancy="_JSON {\"0\": {\"In\": 1}, \"1\": {\"In\": 1}, \"2\": {\"In\": 1}, \"3\": {\"In\": 1}, \"4\": {\"In\": 1}, \"5\": {\"In\": 1}, \"6\": {\"In\": 1}, \"7\": {\"In\": 1}, \"8\": {\"In\": 1}, \"9\": {\"In\": 1}, \"10\": {\"In\": 1}, \"11\": {\"In\": 1}, \"12\": {\"In\": 1}, \"13\": {\"In\": 1}, \"14\": {\"In\": 1}, \"15\": {\"In\": 1}, \"16\": {\"O\": 1}, \"17\": {\"O\": 1}, \"18\": {\"O\": 1}, \"19\": {\"O\": 1}, \"20\": {\"O\": 1}, \"21\": {\"O\": 1}, \"22\": {\"O\": 1}, \"23\": {\"O\": 1}, \"24\": {\"O\": 1}, \"25\": {\"O\": 1}, \"26\": {\"O\": 1}, \"27\": {\"O\": 1}, \"28\": {\"O\": 1}, \"29\": {\"O\": 1}, \"30\": {\"O\": 1}, \"31\": {\"O\": 1}, \"32\": {\"O\": 1}, \"33\": {\"O\": 1}, \"34\": {\"O\": 1}, \"35\": {\"O\": 1}, \"36\": {\"O\": 1}, \"37\": {\"O\": 1}, \"38\": {\"O\": 1}, \"39\": {\"O\": 1}}" n_minim_iter=5 energy=-45150.703876145766 stress="0.05487602248717727 3.4218243746284675e-13 -9.300250576834552e-14 3.4218243746284675e-13 0.054876022487029205 -2.51227044594345e-13 -9.300250576834552e-14 -2.51227044594345e-13 0.054876022487971694" free_energy=-45150.703876145766 pbc="T T T"
In      -4.34535409       3.07262934       5.85878223        0       0.00279150      -0.00197389       0.00341888
In       7.38836400       1.23083656       1.59503934        1      -0.00279150       0.00197389      -0.00341888
In       1.30234417      -0.92089639       5.32195013        2      -0.00279150       0.00197389      -0.00341888
In      -1.52150496      -2.15173294       3.72691079        3      -0.00000000       0.00000000      -0.00000000
In      -1.30234417       4.14849582       3.45849473        4       0.00279150      -0.00197389      -0.00341888
In       4.78367566      -2.91765926       5.59036618        5       0.00279150       0.00394778      -0.00000000
In      -1.30234417       1.38580664       5.59036618        6       0.00279150       0.00394778      -0.00000000
In      -1.74066575       7.22112515       1.86345539        7      -0.00279150      -0.00394778      -0.00000000
In       4.34535408       0.15497008       3.99532684        8      -0.00279150       0.00197389       0.00341888
In      -1.52150496       4.30346589      -0.00000000        9      -0.00000000       0.00000000      -0.00000000
In       4.34535408       6.61016892       0.26841605       10      -0.00279150       0.00197389       0.00341888
In      -1.30234417      -2.30670302       7.18540552       11       0.00279150      -0.00197389      -0.00341888
In       4.34535408       2.91765926       1.86345539       12      -0.00279150      -0.00394778      -0.00000000
In       1.74066575       5.22436229       2.13187144       13       0.00279150      -0.00197389       0.00341888
In       4.56451487       0.00000000      -0.00000000       14       0.00000000       0.00000000      -0.00000000
In       1.52150496       2.15173295       3.72691079       15      -0.00000000       0.00000000       0.00000000
O        0.93832120       4.31270560       4.04285794       16       0.00678671      -0.02371084      -0.00740805
O       -2.10468872       3.49659783       5.42439079       17       0.00678671       0.00543986       0.02423821
O       -0.43923750       2.31894598       0.01032205       18      -0.01496380       0.02081980      -0.00240062
O       -0.93832120      -0.79762836       2.01342715       19      -0.00678671      -0.01827097       0.01683016
O        3.99818695       5.10705370       2.00310510       20       0.00286651       0.01688497       0.01923079
O        2.08783288       2.97051989       1.69748000       21      -0.00286651      -0.00821186       0.02423821
O        2.08783288       6.43999970       0.30562510       22      -0.00286651       0.02509684      -0.00500742
O       -2.33273574       6.09633393       3.73723284       23      -0.02461703       0.00716808      -0.00240062
O        3.48224741       1.98451992       7.44349952       24       0.01496380      -0.02081980       0.00240062
O        5.37574565      -1.79286804       3.71658873       25       0.02461703      -0.00716808       0.00240062
O        6.52525733       3.32014510       1.72380568       26       0.01496380       0.00833090      -0.01923079
O        3.75328409       2.34010456       4.03253589       27      -0.02461703      -0.00566304      -0.00500742
O        0.71027418       4.47395919       7.13787442       28      -0.02461703      -0.00150504       0.00740805
O        2.33273573      -0.17049329       0.31594715       29       0.02461703       0.00150504      -0.00740805
O       -3.48224742       0.98332080       5.73001589       30      -0.01496380      -0.00833090       0.01923079
O        5.14769863       0.80686807       2.02943078       31      -0.00678671      -0.00543986      -0.02423821
O        0.95517704       1.33294601       5.75634157       32       0.00286651       0.00821186      -0.02423821
O        3.48224741      -1.00119911       5.74033794       33       0.01496380       0.01248890       0.01683016
O        2.10468871      -0.00923970       3.41096363       34      -0.00678671       0.02371084       0.00740805
O        0.95517704      -2.13653380       7.14819647       35       0.00286651      -0.02509684       0.00500742
O       -0.71027418       1.96336134       3.42128568       36       0.02461703       0.00566304       0.00500742
O       -0.95517704      -0.80358780       5.45071647       37      -0.00286651      -0.01688497      -0.01923079
O       -0.43923750       5.30466501       1.71348363       38      -0.01496380      -0.01248890      -0.01683016
O        3.98133111       5.10109426       5.44039442       39       0.00678671       0.01827097      -0.01683016
40