40
Lattice="8.604044290434526 6.743601615626579e-10 1.0186514128316643e-14 -2.8680147641139673 8.11197075096941 -1.16803364224732e-09 -2.8680147631602866 -4.055985374810341 7.025172745874529" Properties=species:S:1:pos:R:3:spacegroup_kinds:I:1:forces:R:3 spacegroup="P 1" unit_cell=conventional occupancy="_JSON {\"0\": {\"In\": 1}, \"1\": {\"In\": 1}, \"2\": {\"In\": 1}, \"3\": {\"In\": 1}, \"4\": {\"In\": 1}, \"5\": {\"In\": 1}, \"6\": {\"In\": 1}, \"7\": {\"In\": 1}, \"8\": {\"In\": 1}, \"9\": {\"In\": 1}, \"10\": {\"In\": 1}, \"11\": {\"In\": 1}, \"12\": {\"In\": 1}, \"13\": {\"In\": 1}, \"14\": {\"In\": 1}, \"15\": {\"In\": 1}, \"16\": {\"O\": 1}, \"17\": {\"O\": 1}, \"18\": {\"O\": 1}, \"19\": {\"O\": 1}, \"20\": {\"O\": 1}, \"21\": {\"O\": 1}, \"22\": {\"O\": 1}, \"23\": {\"O\": 1}, \"24\": {\"O\": 1}, \"25\": {\"O\": 1}, \"26\": {\"O\": 1}, \"27\": {\"O\": 1}, \"28\": {\"O\": 1}, \"29\": {\"O\": 1}, \"30\": {\"O\": 1}, \"31\": {\"O\": 1}, \"32\": {\"O\": 1}, \"33\": {\"O\": 1}, \"34\": {\"O\": 1}, \"35\": {\"O\": 1}, \"36\": {\"O\": 1}, \"37\": {\"O\": 1}, \"38\": {\"O\": 1}, \"39\": {\"O\": 1}}" n_minim_iter=3 energy=-45148.92384321671 stress="-0.12150658277428329 -1.9319252811461428e-13 -2.901595346630688e-13 -1.9319252811461428e-13 -0.12150658277563622 -5.613823047981608e-13 -2.901595346630688e-13 -5.613823047981608e-13 -0.12150658277537171" free_energy=-45148.92384321671 pbc="T T T"
In      -4.10479808       2.90253056       5.51042871        0      -0.00033412       0.00023626      -0.00040922
In       6.97281285       1.15345482       1.51474403        1       0.00033412      -0.00023626       0.00040922
In       1.23678332      -0.87453787       5.02733040        2       0.00033412      -0.00023626       0.00040922
In      -1.43400738      -2.02799269       3.51258637        3       0.00000000       0.00000000       0.00000000
In      -1.23678332       3.91652691       3.27103721        4      -0.00033412       0.00023626       0.00040922
In       4.49924621      -2.76307209       5.26887956        5      -0.00033412      -0.00047252      -0.00000000
In      -1.23678332       1.29291329       5.26887956        6      -0.00033412      -0.00047252      -0.00000000
In      -1.63123145       6.81905747       1.75629318        7       0.00033412       0.00047252      -0.00000000
In       4.10479808       0.13945847       3.75413553        8       0.00033412      -0.00023626      -0.00040922
In      -1.43400738       4.05598538      -0.00000000        9      -0.00000000      -0.00000000      -0.00000000
In       4.10479808       6.22343654       0.24154916       10       0.00033412      -0.00023626      -0.00040922
In      -1.23678332      -2.16745116       6.78362358       11      -0.00033412       0.00023626       0.00040922
In       4.10479808       2.76307209       1.75629318       12       0.00033412       0.00047252       0.00000000
In       1.63123144       4.93052325       1.99784234       13      -0.00033412       0.00023626      -0.00040922
In       4.30202214       0.00000000      -0.00000000       14       0.00000000      -0.00000000      -0.00000000
In       1.43400738       2.02799269       3.51258637       15       0.00000000       0.00000000      -0.00000000
O        0.82482792       4.04980029       3.84775375       16      -0.00501385       0.00714450      -0.00170875
O       -2.04318684       3.33534504       5.10665231       17      -0.00501385      -0.00505207      -0.00533294
O       -0.41031494       2.18073025       0.08133105       18       0.00030148      -0.00881058       0.00117697
O       -0.82482793      -0.72682542       1.92923332       19       0.00501385       0.00209243      -0.00704170
O        3.82565574       4.82976731       1.84790227       20      -0.00309186      -0.00141290      -0.00821867
O        1.91037379       2.84254603       1.59406594       21       0.00309186       0.00641113      -0.00533294
O        1.91037379       6.04320665       0.25383632       22       0.00309186      -0.00782403      -0.00288573
O       -2.19278385       5.74391662       3.59391742       23       0.00840718       0.00265262       0.00117697
O        3.27832970       1.87525513       6.94384169       24      -0.00030148       0.00881058      -0.00117697
O        5.06079861      -1.68793124       3.43125532       25      -0.00840718      -0.00265262      -0.00117697
O        6.14634447       3.18879257       1.66468410       26      -0.00030148      -0.00338600       0.00821867
O        3.54324568       2.26845817       3.76642270       27       0.00840718      -0.00030702      -0.00288573
O        0.67523092       4.15558135       6.69000536       28       0.00840718      -0.00234560       0.00170875
O        2.19278384      -0.09959597       0.33516738       29      -0.00840718       0.00234560      -0.00170875
O       -3.27832971       0.86719281       5.36048864       30       0.00030148       0.00338600      -0.00821867
O        4.91120160       0.72064034       1.91852043       31       0.00501385       0.00505207       0.00533294
O        0.95764097       1.21343935       5.43110680       32      -0.00309186      -0.00641113       0.00533294
O        3.27832970      -1.00806232       5.44181969       33      -0.00030148      -0.00542458      -0.00704170
O        2.04318684       0.00618509       3.17741899       34       0.00501385      -0.00714450       0.00170875
O        0.95764098      -1.98722127       6.77133642       35      -0.00309186       0.00782403       0.00288573
O       -0.67523092       1.78752721       3.25875004       36      -0.00840718       0.00030702       0.00288573
O       -0.95764098      -0.77378193       5.17727047       37       0.00309186       0.00141290       0.00821867
O       -0.41031494       5.06404770       1.58335305       38       0.00030148       0.00542458       0.00704170
O        3.69284269       4.78281080       5.09593942       39      -0.00501385      -0.00209243       0.00704170
