40
Lattice="8.98524153408439 7.042377898414135e-10 -2.3400103886693154e-16 -2.9950805120254254 8.471366958898713 -1.2197751578020352e-09 -2.9950805110294847 -4.235683478745118 7.336418991999595" Properties=species:S:1:pos:R:3:spacegroup_kinds:I:1:forces:R:3 spacegroup="P 1" unit_cell=conventional occupancy="_JSON {\"0\": {\"In\": 1}, \"1\": {\"In\": 1}, \"2\": {\"In\": 1}, \"3\": {\"In\": 1}, \"4\": {\"In\": 1}, \"5\": {\"In\": 1}, \"6\": {\"In\": 1}, \"7\": {\"In\": 1}, \"8\": {\"In\": 1}, \"9\": {\"In\": 1}, \"10\": {\"In\": 1}, \"11\": {\"In\": 1}, \"12\": {\"In\": 1}, \"13\": {\"In\": 1}, \"14\": {\"In\": 1}, \"15\": {\"In\": 1}, \"16\": {\"O\": 1}, \"17\": {\"O\": 1}, \"18\": {\"O\": 1}, \"19\": {\"O\": 1}, \"20\": {\"O\": 1}, \"21\": {\"O\": 1}, \"22\": {\"O\": 1}, \"23\": {\"O\": 1}, \"24\": {\"O\": 1}, \"25\": {\"O\": 1}, \"26\": {\"O\": 1}, \"27\": {\"O\": 1}, \"28\": {\"O\": 1}, \"29\": {\"O\": 1}, \"30\": {\"O\": 1}, \"31\": {\"O\": 1}, \"32\": {\"O\": 1}, \"33\": {\"O\": 1}, \"34\": {\"O\": 1}, \"35\": {\"O\": 1}, \"36\": {\"O\": 1}, \"37\": {\"O\": 1}, \"38\": {\"O\": 1}, \"39\": {\"O\": 1}}" n_minim_iter=7 energy=-45151.75997630628 stress="0.020861680305037753 -1.0130968519065521e-13 -2.536856546554921e-13 -1.0130968519065521e-13 0.020861680304250438 7.120058393235412e-14 -2.536856546554921e-13 7.120058393235412e-14 0.020861680304689077" free_energy=-45151.75997630628 pbc="T T T"
In      -4.28797314       3.03205489       5.75295537        0       0.00548233      -0.00387659       0.00671445
In       7.28305365       1.20362860       1.58346362        1      -0.00548233       0.00387659      -0.00671445
In       1.29289263      -0.91421314       5.25167311        2      -0.00548233       0.00387659      -0.00671445
In      -1.49754026      -2.11784174       3.66820949        3       0.00000000      -0.00000000       0.00000000
In      -1.29289263       4.09097576       3.41756836        4       0.00548233      -0.00387659      -0.00671445
In       4.69726839      -2.88734716       5.50231424        5       0.00548233       0.00775318       0.00000000
In      -1.29289263       1.34833632       5.50231424        6       0.00548233       0.00775318      -0.00000000
In      -1.70218788       7.12303064       1.83410474        7      -0.00548233      -0.00775318      -0.00000000
In       4.28797314       0.14470773       3.91885062        8      -0.00548233       0.00387659       0.00671445
In      -1.49754026       4.23568348      -0.00000000        9       0.00000000       0.00000000      -0.00000000
In       4.28797314       6.49823294       0.25064113       10      -0.00548233       0.00387659       0.00671445
In      -1.29289263      -2.26254946       7.08577786       11       0.00548233      -0.00387659      -0.00671445
In       4.28797314       2.88734716       1.83410475       12      -0.00548233      -0.00775318       0.00000000
In       1.70218788       5.14989663       2.08474587       13       0.00548233      -0.00387659       0.00671445
In       4.49262077       0.00000000      -0.00000000       14      -0.00000000       0.00000000      -0.00000000
In       1.49754025       2.11784174       3.66820949       15      -0.00000000      -0.00000000       0.00000000
O        0.89301899       4.23804560       3.98644035       16       0.00021544       0.00599330       0.00595135
O       -2.10206152       3.45117756       5.34115316       17       0.00021544       0.00215737      -0.00816602
O       -0.43973925       2.27573822       0.04065484       18       0.00775634      -0.00317485       0.00106965
O       -0.89301900      -0.78214380       1.99117453       19      -0.00021544       0.00815067      -0.00221468
O        3.95448858       5.04129937       1.95051969       20       0.00196217      -0.00753310      -0.00328433
O        2.03567244       2.94929182       1.67294366       21      -0.00196217      -0.00092224      -0.00816602
O        2.03567244       6.32769102       0.27757602       22      -0.00196217      -0.00661087       0.00488169
O       -2.29216632       6.00953596       3.70886433       23       0.00557873      -0.00625446       0.00106965
O        3.43481976       1.95994527       7.29576415       24      -0.00775634       0.00317485      -0.00106965
O        5.28724683      -1.77385247       3.62755465       25      -0.00557873       0.00625446      -0.00106965
O        6.42990027       3.29091897       1.71768980       26      -0.00775634      -0.00066108       0.00328433
O        3.69799470       2.32504450       3.94578551       27       0.00557873       0.00405358       0.00488169
O        0.70291419       4.37246999       7.01818813       28       0.00557873       0.00220088      -0.00595135
O        2.29216632      -0.13678651       0.31823086       29      -0.00557873      -0.00220088       0.00595135
O       -3.43481976       0.94476451       5.61872918       30       0.00775634       0.00066108      -0.00328433
O        5.09714203       0.78450592       1.99526583       31      -0.00021544      -0.00215737       0.00816602
O        0.95940807       1.28639166       5.66347532       32       0.00196217       0.00092224       0.00816602
O        3.43481976      -1.01518075       5.65938402       33      -0.00775634      -0.00251377      -0.00221468
O        2.10206151      -0.00236211       3.34997863       34      -0.00021544      -0.00599330      -0.00595135
O        0.95940807      -2.09200754       7.05884297       35       0.00196217       0.00661087      -0.00488169
O       -0.70291420       1.91063899       3.39063347       36      -0.00557873      -0.00405358      -0.00488169
O       -0.95940807      -0.80561588       5.38589930       37      -0.00196217       0.00753310       0.00328433
O       -0.43973925       5.25086424       1.67703496       38       0.00775634       0.00251377       0.00221468
O        3.88809951       5.01782729       5.34524446       39       0.00021544      -0.00815067       0.00221468
