40
Lattice="8.185697693775019 6.415720295253022e-10 2.1380273170799077e-14 -2.728565898529887 7.717549797134675 -1.1112391647283914e-09 -2.7285658976225844 -3.8587748979257674 6.683594180030885" Properties=species:S:1:pos:R:3:spacegroup_kinds:I:1:forces:R:3 spacegroup="P 1" unit_cell=conventional occupancy="_JSON {\"0\": {\"In\": 1}, \"1\": {\"In\": 1}, \"2\": {\"In\": 1}, \"3\": {\"In\": 1}, \"4\": {\"In\": 1}, \"5\": {\"In\": 1}, \"6\": {\"In\": 1}, \"7\": {\"In\": 1}, \"8\": {\"In\": 1}, \"9\": {\"In\": 1}, \"10\": {\"In\": 1}, \"11\": {\"In\": 1}, \"12\": {\"In\": 1}, \"13\": {\"In\": 1}, \"14\": {\"In\": 1}, \"15\": {\"In\": 1}, \"16\": {\"O\": 1}, \"17\": {\"O\": 1}, \"18\": {\"O\": 1}, \"19\": {\"O\": 1}, \"20\": {\"O\": 1}, \"21\": {\"O\": 1}, \"22\": {\"O\": 1}, \"23\": {\"O\": 1}, \"24\": {\"O\": 1}, \"25\": {\"O\": 1}, \"26\": {\"O\": 1}, \"27\": {\"O\": 1}, \"28\": {\"O\": 1}, \"29\": {\"O\": 1}, \"30\": {\"O\": 1}, \"31\": {\"O\": 1}, \"32\": {\"O\": 1}, \"33\": {\"O\": 1}, \"34\": {\"O\": 1}, \"35\": {\"O\": 1}, \"36\": {\"O\": 1}, \"37\": {\"O\": 1}, \"38\": {\"O\": 1}, \"39\": {\"O\": 1}}" n_minim_iter=1 energy=-45131.80366902919 stress="-0.41848658948649786 -3.8954153637431357e-13 -6.477059919514567e-14 -3.8954153637431357e-13 -0.41848658948615286 3.136824125387648e-13 -6.477059919514567e-14 3.136824125387648e-13 -0.41848658948479345" free_energy=-45131.80366902919 pbc="T T T"
In      -3.89311057       2.75284489       5.25732406        0      -0.01417273       0.01002163      -0.01735797
In       6.62167647       1.10593002       1.42627011        1       0.01417273      -0.01002163       0.01735797
In       1.16454467      -0.82345743       4.76806720        2       0.01417273      -0.01002163       0.01735797
In      -1.36428295      -1.92938745       3.34179709        3       0.00000000       0.00000000       0.00000000
In      -1.16454467       3.71753861       3.09716866        4      -0.01417273       0.01002163       0.01735797
In       4.29258712      -2.61160859       5.01269563        5      -0.01417273      -0.02004326       0.00000000
In      -1.16454467       1.24716631       5.01269563        6      -0.01417273      -0.02004326       0.00000000
In      -1.56402123       6.47038350       1.67089854        7       0.01417273       0.02004326      -0.00000000
In       3.89311057       0.14123629       3.58642552        8       0.01417273      -0.01002163      -0.01735797
In      -1.36428295       3.85877490      -0.00000000        9       0.00000000       0.00000000       0.00000000
In       3.89311057       5.92939864       0.24462843       10       0.01417273      -0.01002163      -0.01735797
In      -1.16454467      -2.07062374       6.43896575       11      -0.01417273       0.01002163       0.01735797
In       3.89311057       2.61160860       1.67089854       12       0.01417273       0.02004326       0.00000000
In       1.56402122       4.68223234       1.91552697       13      -0.01417273       0.01002163      -0.01735797
In       4.09284885       0.00000000      -0.00000000       14      -0.00000000       0.00000000       0.00000000
In       1.36428295       1.92938745       3.34179709       15       0.00000000       0.00000000       0.00000000
O        0.77596810       3.84871053       3.68933414       16      -0.01209233       0.02810761       0.14846845
O       -1.95259780       3.20008928       4.84764311       17      -0.01209233       0.11452364      -0.09857613
O       -0.37184750       2.08233003       0.10006474       18       0.13044326       0.01373576       0.07599361
O       -0.77596810      -0.66874999       1.85338307       19       0.01209233       0.14263125       0.04989232
O        3.66793904       4.58529730       1.75331833       20       0.11200470      -0.09875632      -0.02610129
O        1.78919276       2.70361788       1.50584602       21      -0.11200470      -0.02677378      -0.09857613
O        1.78919275       5.74045432       0.24747231       22      -0.11200470      -0.07198254       0.07247484
O       -2.08718875       5.44463353       3.44186183       23       0.03053089      -0.12756167       0.07599361
O        3.10041340       1.77644487       6.58352944       24      -0.13044326      -0.01373576      -0.07599361
O        4.81575464      -1.58585863       3.24173235       25      -0.03053089       0.12756167      -0.07599361
O        5.82897930       3.05721107       1.58847875       26      -0.13044326       0.07268027       0.02610129
O        3.36994305       2.18781047       3.58926940       27       0.03053089       0.12959323       0.07247484
O        0.64137715       3.94388070       6.33605712       28       0.03053089      -0.00203156      -0.14846845
O        2.08718875      -0.08510580       0.34753706       29      -0.03053089       0.00203156       0.14846845
O       -3.10041340       0.80156383       5.09511542       30       0.13044326      -0.07268027      -0.02610129
O        4.68116369       0.65868562       1.83595107       31       0.01209233      -0.11452364       0.09857613
O        0.93937314       1.15515702       5.17774816       32       0.11200470       0.02677378       0.09857613
O        3.10041340      -0.97488104       5.19518016       33      -0.13044326      -0.05894451       0.04989232
O        1.95259779       0.01006437       2.99426003       34       0.01209233      -0.02810761      -0.14846845
O        0.93937314      -1.88167941       6.43612186       35       0.11200470       0.07198254      -0.07247484
O       -0.64137715       1.67096443       3.09432477       36      -0.03053089      -0.12959323      -0.07247484
O       -0.93937314      -0.72652239       4.93027584       37      -0.11200470       0.09875632       0.02610129
O       -0.37184751       4.83365594       1.48841401       38       0.13044326       0.05894451      -0.04989232
O        3.50453400       4.52752489       4.83021110       39      -0.01209233      -0.14263125      -0.04989232
40
Lattice="8.18569769377502 6.415720295253027e-10 2.138027317079909e-14 -2.728565898529889 7.71754979713468 -1.1112391647283916e-09 -2.728565897622586 -3.85877489792577 6.6835941800308865" Properties=species:S:1:pos:R:3:spacegroup_kinds:I:1:forces:R:3 spacegroup="P 1" unit_cell=conventional occupancy="_JSON {\"0\": {\"In\": 1}, \"1\": {\"In\": 1}, \"2\": {\"In\": 1}, \"3\": {\"In\": 1}, \"4\": {\"In\": 1}, \"5\": {\"In\": 1}, \"6\": {\"In\": 1}, \"7\": {\"In\": 1}, \"8\": {\"In\": 1}, \"9\": {\"In\": 1}, \"10\": {\"In\": 1}, \"11\": {\"In\": 1}, \"12\": {\"In\": 1}, \"13\": {\"In\": 1}, \"14\": {\"In\": 1}, \"15\": {\"In\": 1}, \"16\": {\"O\": 1}, \"17\": {\"O\": 1}, \"18\": {\"O\": 1}, \"19\": {\"O\": 1}, \"20\": {\"O\": 1}, \"21\": {\"O\": 1}, \"22\": {\"O\": 1}, \"23\": {\"O\": 1}, \"24\": {\"O\": 1}, \"25\": {\"O\": 1}, \"26\": {\"O\": 1}, \"27\": {\"O\": 1}, \"28\": {\"O\": 1}, \"29\": {\"O\": 1}, \"30\": {\"O\": 1}, \"31\": {\"O\": 1}, \"32\": {\"O\": 1}, \"33\": {\"O\": 1}, \"34\": {\"O\": 1}, \"35\": {\"O\": 1}, \"36\": {\"O\": 1}, \"37\": {\"O\": 1}, \"38\": {\"O\": 1}, \"39\": {\"O\": 1}}" n_minim_iter=2 energy=-45131.80945497925 stress="-0.41786172980438935 -1.2438878994531896e-13 -4.5342587924571367e-13 -1.2438878994531896e-13 -0.4178617298041904 2.6060800401700624e-13 -4.5342587924571367e-13 2.6060800401700624e-13 -0.41786172980464437" free_energy=-45131.80945497925 pbc="T T T"
In      -3.89331304       2.75298805       5.25707609        0       0.03498855      -0.02474064       0.04285205
In       6.62187893       1.10578685       1.42651808        1      -0.03498855       0.02474064      -0.04285205
In       1.16474714      -0.82360060       4.76831517        2      -0.03498855       0.02474064      -0.04285205
In      -1.36428295      -1.92938745       3.34179709        3       0.00000000      -0.00000000      -0.00000000
In      -1.16474714       3.71768178       3.09741663        4       0.03498855      -0.02474064      -0.04285205
In       4.29238465      -2.61189493       5.01269563        5       0.03498855       0.04948128       0.00000000
In      -1.16474714       1.24687997       5.01269563        6       0.03498855       0.04948128      -0.00000000
In      -1.56381876       6.47066983       1.67089854        7      -0.03498855      -0.04948128       0.00000000
In       3.89331304       0.14109313       3.58617755        8      -0.03498855       0.02474064       0.04285205
In      -1.36428295       3.85877490      -0.00000000        9       0.00000000      -0.00000000       0.00000000
In       3.89331304       5.92925547       0.24438046       10      -0.03498855       0.02474064       0.04285205
In      -1.16474714      -2.07048057       6.43921372       11       0.03498855      -0.02474064      -0.04285205
In       3.89331304       2.61189493       1.67089854       12      -0.03498855      -0.04948128       0.00000000
In       1.56381876       4.68237550       1.91527900       13       0.03498855      -0.02474064       0.04285205
In       4.09284885       0.00000000      -0.00000000       14       0.00000000      -0.00000000      -0.00000000
In       1.36428295       1.92938745       3.34179709       15      -0.00000000      -0.00000000       0.00000000
O        0.77579535       3.84911207       3.69145512       16      -0.02801003      -0.01002055       0.07512394
O       -1.95277054       3.20172533       4.84623487       17      -0.02801003       0.07006951      -0.02888392
O       -0.36998403       2.08252626       0.10115036       18       0.04727803       0.01683282       0.06332474
O       -0.77579536      -0.66671240       1.85409582       19       0.02801003       0.06004897       0.04624002
O        3.66953910       4.58388649       1.75294546       20       0.07539884      -0.02348841      -0.01708472
O        1.78759269       2.70323540       1.50443779       21      -0.07539884       0.00305160      -0.02888392
O        1.78759269       5.73942599       0.24850767       22      -0.07539884      -0.02654001       0.01179920
O       -2.08675259       5.44281122       3.44294745       23      -0.00011079      -0.05018509       0.06332474
O        3.09854992       1.77624865       6.58244381       24      -0.04727803      -0.01683282      -0.06332474
O        4.81531849      -1.58403632       3.24064672       25       0.00011079       0.05018509      -0.06332474
O        5.82711582       3.05824936       1.58885163       26      -0.04727803       0.06325724       0.01708472
O        3.37037920       2.18966180       3.59030476       27      -0.00011079       0.07993338       0.01179920
O        0.64181330       3.94385168       6.33393614       28      -0.00011079      -0.02974829      -0.07512394
O        2.08675259      -0.08507678       0.34965803       29       0.00011079       0.02974829       0.07512394
O       -3.09854993       0.80052554       5.09474255       30       0.04727803      -0.06325724      -0.01708472
O        4.68133644       0.65704957       1.83735930       31       0.02801003      -0.07006951       0.02888392
O        0.94097321       1.15553950       5.17915639       32       0.07539884      -0.00305160       0.02888392
O        3.09854992      -0.97572310       5.19589291       33      -0.04727803      -0.04642443       0.04624002
O        1.95277054       0.00966284       2.99213905       34       0.02801003       0.01002055      -0.07512394
O        0.94097321      -1.88065109       6.43508651       35       0.07539884       0.02654001      -0.01179920
O       -0.64181331       1.66911310       3.09328942       36       0.00011079      -0.07993338      -0.01179920
O       -0.94097321      -0.72511159       4.93064872       37      -0.07539884       0.02348841       0.01708472
O       -0.36998403       4.83449801       1.48770126       38       0.04727803       0.04642443      -0.04624002
O        3.50436125       4.52548730       4.82949835       39      -0.02801003      -0.06004896      -0.04624002
40
Lattice="8.18569769377502 6.415720295253027e-10 2.138027317079908e-14 -2.728565898529889 7.71754979713468 -1.1112391647283916e-09 -2.728565897622586 -3.85877489792577 6.6835941800308865" Properties=species:S:1:pos:R:3:spacegroup_kinds:I:1:forces:R:3 spacegroup="P 1" unit_cell=conventional occupancy="_JSON {\"0\": {\"In\": 1}, \"1\": {\"In\": 1}, \"2\": {\"In\": 1}, \"3\": {\"In\": 1}, \"4\": {\"In\": 1}, \"5\": {\"In\": 1}, \"6\": {\"In\": 1}, \"7\": {\"In\": 1}, \"8\": {\"In\": 1}, \"9\": {\"In\": 1}, \"10\": {\"In\": 1}, \"11\": {\"In\": 1}, \"12\": {\"In\": 1}, \"13\": {\"In\": 1}, \"14\": {\"In\": 1}, \"15\": {\"In\": 1}, \"16\": {\"O\": 1}, \"17\": {\"O\": 1}, \"18\": {\"O\": 1}, \"19\": {\"O\": 1}, \"20\": {\"O\": 1}, \"21\": {\"O\": 1}, \"22\": {\"O\": 1}, \"23\": {\"O\": 1}, \"24\": {\"O\": 1}, \"25\": {\"O\": 1}, \"26\": {\"O\": 1}, \"27\": {\"O\": 1}, \"28\": {\"O\": 1}, \"29\": {\"O\": 1}, \"30\": {\"O\": 1}, \"31\": {\"O\": 1}, \"32\": {\"O\": 1}, \"33\": {\"O\": 1}, \"34\": {\"O\": 1}, \"35\": {\"O\": 1}, \"36\": {\"O\": 1}, \"37\": {\"O\": 1}, \"38\": {\"O\": 1}, \"39\": {\"O\": 1}}" n_minim_iter=3 energy=-45131.81455749226 stress="-0.4170837063373112 6.26205763254337e-13 -1.740028414813238e-13 6.26205763254337e-13 -0.41708370633824204 -4.442356864638702e-13 -1.740028414813238e-13 -4.442356864638702e-13 -0.417083706337746" free_energy=-45131.81455749226 pbc="T T T"
In      -3.89250996       2.75242019       5.25805966        0       0.05947928      -0.04205820       0.07284694
In       6.62107585       1.10635471       1.42553452        1      -0.05947928       0.04205820      -0.07284694
In       1.16394406      -0.82303274       4.76733161        2      -0.05947928       0.04205820      -0.07284694
In      -1.36428295      -1.92938745       3.34179709        3       0.00000000       0.00000000      -0.00000000
In      -1.16394406       3.71711391       3.09643306        4       0.05947928      -0.04205820      -0.07284694
In       4.29318773      -2.61075920       5.01269563        5       0.05947928       0.08411640      -0.00000000
In      -1.16394406       1.24801570       5.01269563        6       0.05947928       0.08411640       0.00000000
In      -1.56462184       6.46953410       1.67089854        7      -0.05947928      -0.08411640      -0.00000000
In       3.89250996       0.14166099       3.58716111        8      -0.05947928       0.04205820       0.07284694
In      -1.36428295       3.85877490      -0.00000000        9       0.00000000       0.00000000       0.00000000
In       3.89250996       5.92982334       0.24536402       10      -0.05947928       0.04205820       0.07284694
In      -1.16394406      -2.07104843       6.43823015       11       0.05947928      -0.04205820      -0.07284694
In       3.89250996       2.61075920       1.67089854       12      -0.05947928      -0.08411640      -0.00000000
In       1.56462184       4.68180764       1.91626257       13       0.05947928      -0.04205820       0.07284694
In       4.09284885       0.00000000      -0.00000000       14      -0.00000000      -0.00000000       0.00000000
In       1.36428295       1.92938745       3.34179709       15      -0.00000000      -0.00000000       0.00000000
O        0.77497873       3.84906031       3.69450536       16      -0.02439579      -0.02882715       0.01235558
O       -1.95358717       3.20439279       4.84475458       17      -0.02439579       0.02511382       0.01878725
O       -0.36779013       2.08306496       0.10335719       18      -0.01163289       0.01608909       0.03441855
O       -0.77497873      -0.66409670       1.85566576       19       0.02439579      -0.00371332       0.03114284
O        3.67232622       4.58254490       1.75230857       20       0.03180947       0.02358488      -0.00327572
O        1.78480557       2.70311616       1.50295749       21      -0.03180947       0.01462930       0.01878725
O        1.78480557       5.73820364       0.24935108       22      -0.03180947       0.00895559      -0.02206297
O       -2.08652918       5.44056322       3.44515428       23      -0.01904657       0.00560456       0.03441855
O        3.09635602       1.77570995       6.58023698       24       0.01163289      -0.01608909      -0.03441855
O        4.81509508      -1.58178832       3.23843990       25       0.01904657      -0.00560456      -0.03441855
O        5.82492192       3.06042988       1.58948852       26       0.01163289       0.03785188       0.00327572
O        3.37060261       2.19269697       3.59114817       27      -0.01904657       0.02700506      -0.02206297
O        0.64203671       3.94306451       6.33088591       28      -0.01904657      -0.03260962      -0.01235558
O        2.08652918      -0.08428961       0.35270827       29       0.01904657       0.03260962       0.01235558
O       -3.09635603       0.79834502       5.09410566       30      -0.01163289      -0.03785188      -0.00327572
O        4.68215306       0.65438211       1.83883959       31       0.02439579      -0.02511382      -0.01878725
O        0.94376032       1.15565874       5.18063668       32       0.03180947      -0.01462930      -0.01878725
O        3.09635602      -0.97736492       5.19746285       33       0.01163289      -0.02176280       0.03114284
O        1.95358716       0.00971459       2.98908882       34       0.02439579       0.02882715      -0.01235558
O        0.94376032      -1.87942874       6.43424310       35       0.03180947      -0.00895559       0.02206297
O       -0.64203672       1.66607793       3.09244601       36       0.01904657      -0.02700506       0.02206297
O       -0.94376032      -0.72377000       4.93128561       37      -0.03180947      -0.02358488       0.00327572
O       -0.36779013       4.83613983       1.48613132       38      -0.01163289       0.02176280      -0.03114284
O        3.50354463       4.52287160       4.82792841       39      -0.02439579       0.00371332      -0.03114284
40
Lattice="8.185697693775031 6.415720295253036e-10 2.1380273170799106e-14 -2.728565898529893 7.717549797134691 -1.111239164728393e-09 -2.72856589762259 -3.8587748979257754 6.683594180030895" Properties=species:S:1:pos:R:3:spacegroup_kinds:I:1:forces:R:3 spacegroup="P 1" unit_cell=conventional occupancy="_JSON {\"0\": {\"In\": 1}, \"1\": {\"In\": 1}, \"2\": {\"In\": 1}, \"3\": {\"In\": 1}, \"4\": {\"In\": 1}, \"5\": {\"In\": 1}, \"6\": {\"In\": 1}, \"7\": {\"In\": 1}, \"8\": {\"In\": 1}, \"9\": {\"In\": 1}, \"10\": {\"In\": 1}, \"11\": {\"In\": 1}, \"12\": {\"In\": 1}, \"13\": {\"In\": 1}, \"14\": {\"In\": 1}, \"15\": {\"In\": 1}, \"16\": {\"O\": 1}, \"17\": {\"O\": 1}, \"18\": {\"O\": 1}, \"19\": {\"O\": 1}, \"20\": {\"O\": 1}, \"21\": {\"O\": 1}, \"22\": {\"O\": 1}, \"23\": {\"O\": 1}, \"24\": {\"O\": 1}, \"25\": {\"O\": 1}, \"26\": {\"O\": 1}, \"27\": {\"O\": 1}, \"28\": {\"O\": 1}, \"29\": {\"O\": 1}, \"30\": {\"O\": 1}, \"31\": {\"O\": 1}, \"32\": {\"O\": 1}, \"33\": {\"O\": 1}, \"34\": {\"O\": 1}, \"35\": {\"O\": 1}, \"36\": {\"O\": 1}, \"37\": {\"O\": 1}, \"38\": {\"O\": 1}, \"39\": {\"O\": 1}}" n_minim_iter=4 energy=-45131.81832935525 stress="-0.4163406716234848 2.3762134689735924e-13 2.2563355015275596e-13 2.3762134689735924e-13 -0.416340671624427 -2.6549615267697116e-13 2.2563355015275596e-13 -2.6549615267697116e-13 -0.4163406716235733" free_energy=-45131.81832935525 pbc="T T T"
In      -3.89076039       2.75118306       5.26020244        0       0.04907260      -0.03469957       0.06010141
In       6.61932628       1.10759185       1.42339174        1      -0.04907260       0.03469957      -0.06010141
In       1.16219449      -0.82179560       4.76518883        2      -0.04907260       0.03469957      -0.06010141
In      -1.36428295      -1.92938745       3.34179709        3       0.00000000       0.00000000       0.00000000
In      -1.16219449       3.71587678       3.09429028        4       0.04907260      -0.03469957      -0.06010141
In       4.29493730      -2.60828493       5.01269563        5       0.04907260       0.06939914       0.00000000
In      -1.16219449       1.25048997       5.01269563        6       0.04907260       0.06939914      -0.00000000
In      -1.56637141       6.46705983       1.67089854        7      -0.04907260      -0.06939914       0.00000000
In       3.89076039       0.14289812       3.58930389        8      -0.04907260       0.03469957       0.06010141
In      -1.36428295       3.85877490      -0.00000000        9       0.00000000      -0.00000000      -0.00000000
In       3.89076039       5.93106047       0.24750680       10      -0.04907260       0.03469957       0.06010141
In      -1.16219449      -2.07228557       6.43608737       11       0.04907260      -0.03469957      -0.06010141
In       3.89076039       2.60828494       1.67089854       12      -0.04907260      -0.06939914       0.00000000
In       1.56637141       4.68057051       1.91840535       13       0.04907260      -0.03469957       0.06010141
In       4.09284885       0.00000000      -0.00000000       14      -0.00000000       0.00000000      -0.00000000
In       1.36428295       1.92938745       3.34179709       15       0.00000000      -0.00000000       0.00000000
O        0.77386090       3.84857807       3.69769252       16      -0.00201757      -0.02131693      -0.01994405
O       -1.95470499       3.20739408       4.84357863       17      -0.00201757      -0.00661359       0.02843303
O       -0.36578776       2.08385992       0.10600268       18      -0.02700567       0.01105566      -0.00217102
O       -0.77386091      -0.66157765       1.85767697       19       0.00201757      -0.02793052       0.00848898
O        3.67552846       4.58155323       1.75167428       20      -0.00556283       0.02667708       0.01065999
O        1.78160333       2.70316963       1.50178154       21       0.00556283       0.00410672       0.02843303
O        1.78160333       5.73715850       0.24989275       22       0.00556283       0.02257037      -0.01777303
O       -2.08661123       5.43841038       3.44779977       23      -0.01942527       0.02177597      -0.00217102
O        3.09435365       1.77491498       6.57759149       24       0.02700567      -0.01105566       0.00217102
O        4.81517712      -1.57963548       3.23579440       25       0.01942527      -0.02177597       0.00217102
O        5.82291955       3.06311843       1.59012280       26       0.02700567       0.00364768      -0.01065999
O        3.37052057       2.19606445       3.59168984       27      -0.01942527      -0.01276814      -0.01777303
O        0.64195467       3.94184987       6.32769874       28      -0.01942527      -0.00900783       0.01994405
O        2.08661123      -0.08307497       0.35589543       29       0.01942527       0.00900783      -0.01994405
O       -3.09435365       0.79565647       5.09347137       30      -0.02700567      -0.00364768       0.01065999
O        4.68327089       0.65138083       1.84001555       31       0.00201757       0.00661359      -0.02843303
O        0.94696256       1.15560527       5.18181264       32      -0.00556283      -0.00410672      -0.02843303
O        3.09435365      -0.97925850       5.19947406       33       0.02700567       0.00740799       0.00848898
O        1.95470499       0.01019683       2.98590165       34       0.00201757       0.02131693       0.01994405
O        0.94696256      -1.87838359       6.43370143       35      -0.00556283      -0.02257037       0.01777303
O       -0.64195467       1.66271045       3.09190434       36       0.01942527       0.01276814       0.01777303
O       -0.94696257      -0.72277833       4.93191989       37       0.00556283      -0.02667708      -0.01065999
O       -0.36578776       4.83803341       1.48412011       38      -0.02700567      -0.00740799      -0.00848898
O        3.50242680       4.52035255       4.82591720       39      -0.00201757       0.02793052      -0.00848898
40
Lattice="8.18569769377504 6.415720295253043e-10 2.1380273170799156e-14 -2.728565898529896 7.7175497971347 -1.1112391647283943e-09 -2.7285658976225933 -3.85877489792578 6.6835941800309016" Properties=species:S:1:pos:R:3:spacegroup_kinds:I:1:forces:R:3 spacegroup="P 1" unit_cell=conventional occupancy="_JSON {\"0\": {\"In\": 1}, \"1\": {\"In\": 1}, \"2\": {\"In\": 1}, \"3\": {\"In\": 1}, \"4\": {\"In\": 1}, \"5\": {\"In\": 1}, \"6\": {\"In\": 1}, \"7\": {\"In\": 1}, \"8\": {\"In\": 1}, \"9\": {\"In\": 1}, \"10\": {\"In\": 1}, \"11\": {\"In\": 1}, \"12\": {\"In\": 1}, \"13\": {\"In\": 1}, \"14\": {\"In\": 1}, \"15\": {\"In\": 1}, \"16\": {\"O\": 1}, \"17\": {\"O\": 1}, \"18\": {\"O\": 1}, \"19\": {\"O\": 1}, \"20\": {\"O\": 1}, \"21\": {\"O\": 1}, \"22\": {\"O\": 1}, \"23\": {\"O\": 1}, \"24\": {\"O\": 1}, \"25\": {\"O\": 1}, \"26\": {\"O\": 1}, \"27\": {\"O\": 1}, \"28\": {\"O\": 1}, \"29\": {\"O\": 1}, \"30\": {\"O\": 1}, \"31\": {\"O\": 1}, \"32\": {\"O\": 1}, \"33\": {\"O\": 1}, \"34\": {\"O\": 1}, \"35\": {\"O\": 1}, \"36\": {\"O\": 1}, \"37\": {\"O\": 1}, \"38\": {\"O\": 1}, \"39\": {\"O\": 1}}" n_minim_iter=5 energy=-45131.81963481751 stress="-0.41606533107804344 7.616771615762101e-13 -2.465053401571722e-13 7.616771615762101e-13 -0.41606533107903015 -7.076961184885804e-13 -2.465053401571722e-13 -7.076961184885804e-13 -0.41606533107757054" free_energy=-45131.81963481751 pbc="T T T"
In      -3.88936397       2.75019564       5.26191269        0       0.02264914      -0.01601536       0.02773942
In       6.61792987       1.10857926       1.42168148        1      -0.02264914       0.01601536      -0.02773942
In       1.16079807      -0.82080819       4.76347857        2      -0.02264914       0.01601536      -0.02773942
In      -1.36428295      -1.92938745       3.34179709        3      -0.00000000       0.00000000       0.00000000
In      -1.16079807       3.71488936       3.09258003        4       0.02264914      -0.01601536      -0.02773942
In       4.29633372      -2.60631010       5.01269563        5       0.02264914       0.03203072       0.00000000
In      -1.16079807       1.25246480       5.01269563        6       0.02264914       0.03203072       0.00000000
In      -1.56776783       6.46508500       1.67089854        7      -0.02264914      -0.03203072      -0.00000000
In       3.88936397       0.14388554       3.59101415        8      -0.02264914       0.01601536       0.02773942
In      -1.36428295       3.85877490      -0.00000000        9       0.00000000      -0.00000000      -0.00000000
In       3.88936397       5.93204789       0.24921706       10      -0.02264914       0.01601536       0.02773942
In      -1.16079807      -2.07327298       6.43437712       11       0.02264914      -0.01601536      -0.02773942
In       3.88936397       2.60631010       1.67089854       12      -0.02264914      -0.03203072      -0.00000000
In       1.56776782       4.67958309       1.92011560       13       0.02264914      -0.01601536       0.02773942
In       4.09284885       0.00000000      -0.00000000       14       0.00000000      -0.00000000       0.00000000
In       1.36428295       1.92938745       3.34179709       15      -0.00000000       0.00000000      -0.00000000
O        0.77344488       3.84818015       3.69904416       16       0.01643457      -0.00256599      -0.01329283
O       -1.95512102       3.20876359       4.84324742       17       0.01643457      -0.01022893       0.00886862
O       -0.36501041       2.08438560       0.10713306       18      -0.00658497       0.00604834      -0.01932445
O       -0.77344488      -0.66060606       1.85869741       19      -0.01643457      -0.01279492      -0.00442420
O        3.67695833       4.58123426       1.75156435       20      -0.01512212       0.00163794       0.01490024
O        1.78017346       2.70310536       1.50145033       21       0.01512212      -0.01208502       0.00886862
O        1.78017346       5.73690380       0.25011401       22       0.01512212       0.01372296       0.00603162
O       -2.08684772       5.43750226       3.44893015       23      -0.00789742       0.00419226      -0.01932445
O        3.09357630       1.77438930       6.57646112       24       0.00658497      -0.00604834       0.01932445
O        4.81541362      -1.57872736       3.23466403       25       0.00789742      -0.00419226       0.01932445
O        5.82214220       3.06436020       1.59023274       26       0.00658497      -0.01371129      -0.01490024
O        3.37028407       2.19749745       3.59191110       27      -0.00789742      -0.01883159       0.00603162
O        0.64171818       3.94132499       6.32634710       28      -0.00789742       0.01463933       0.01329283
O        2.08684772      -0.08255009       0.35724707       29       0.00789742      -0.01463933      -0.01329283
O       -3.09357630       0.79441470       5.09336144       30      -0.00658497       0.01371129       0.01490024
O        4.68368691       0.65001131       1.84034676       31      -0.01643457       0.01022893      -0.00886862
O        0.94839243       1.15566954       5.18214385       32      -0.01512212       0.01208502      -0.00886862
O        3.09357630      -0.97997460       5.20049450       33       0.00658497       0.01975963      -0.00442420
O        1.95512101       0.01059475       2.98455001       34      -0.01643457       0.00256599       0.01329283
O        0.94839243      -1.87812890       6.43348016       35      -0.01512212      -0.01372296      -0.00603162
O       -0.64171818       1.66127746       3.09168307       36       0.00789742       0.01883159      -0.00603162
O       -0.94839244      -0.72245936       4.93202983       37       0.01512212      -0.00163794      -0.01490024
O       -0.36501041       4.83874950       1.48309968       38      -0.00658497      -0.01975963       0.00442420
O        3.50201078       4.51938096       4.82489677       39       0.01643457       0.01279492       0.00442420
40