40
Lattice="8.27278612052341 6.483956305893884e-10 1.8050581830584603e-14 -2.7575953741191217 7.799657553287954 -1.1230690361227176e-09 -2.7575953732021654 -3.8998287759955734 6.754701582715236" Properties=species:S:1:pos:R:3:spacegroup_kinds:I:1:forces:R:3 spacegroup="P 1" unit_cell=conventional occupancy="_JSON {\"0\": {\"In\": 1}, \"1\": {\"In\": 1}, \"2\": {\"In\": 1}, \"3\": {\"In\": 1}, \"4\": {\"In\": 1}, \"5\": {\"In\": 1}, \"6\": {\"In\": 1}, \"7\": {\"In\": 1}, \"8\": {\"In\": 1}, \"9\": {\"In\": 1}, \"10\": {\"In\": 1}, \"11\": {\"In\": 1}, \"12\": {\"In\": 1}, \"13\": {\"In\": 1}, \"14\": {\"In\": 1}, \"15\": {\"In\": 1}, \"16\": {\"O\": 1}, \"17\": {\"O\": 1}, \"18\": {\"O\": 1}, \"19\": {\"O\": 1}, \"20\": {\"O\": 1}, \"21\": {\"O\": 1}, \"22\": {\"O\": 1}, \"23\": {\"O\": 1}, \"24\": {\"O\": 1}, \"25\": {\"O\": 1}, \"26\": {\"O\": 1}, \"27\": {\"O\": 1}, \"28\": {\"O\": 1}, \"29\": {\"O\": 1}, \"30\": {\"O\": 1}, \"31\": {\"O\": 1}, \"32\": {\"O\": 1}, \"33\": {\"O\": 1}, \"34\": {\"O\": 1}, \"35\": {\"O\": 1}, \"36\": {\"O\": 1}, \"37\": {\"O\": 1}, \"38\": {\"O\": 1}, \"39\": {\"O\": 1}}" n_minim_iter=6 energy=-45136.93761111317 stress="-0.3373697000142275 3.1983345345237246e-13 -2.375875050464715e-13 3.1983345345237246e-13 -0.3373697000148118 5.639984182374847e-14 -2.375875050464715e-13 5.639984182374847e-14 -0.33736970001508954" free_energy=-45136.93761111317 pbc="T T T"
In      -3.93452975       2.78213267       5.31325724        0      -0.00227387       0.00160787      -0.00278491
In       6.69212512       1.11769611       1.44144434        1       0.00227387      -0.00160787       0.00278491
In       1.17693437      -0.83221828       4.81879513        2       0.00227387      -0.00160787       0.00278491
In      -1.37879769      -1.94991439       3.37735079        3       0.00000000       0.00000000      -0.00000000
In      -1.17693438       3.75708986       3.13011973        4      -0.00227387       0.00160787       0.00278491
In       4.33825637      -2.63939375       5.06602618        5      -0.00227387      -0.00321574      -0.00000000
In      -1.17693438       1.26043503       5.06602618        6      -0.00227387      -0.00321574       0.00000000
In      -1.58066100       6.53922253       1.68867539        7       0.00227387       0.00321574      -0.00000000
In       3.93452975       0.14273892       3.62458184        8       0.00227387      -0.00160787      -0.00278491
In      -1.37879769       3.89982878      -0.00000000        9      -0.00000000       0.00000000       0.00000000
In       3.93452975       5.99248208       0.24723105       10       0.00227387      -0.00160787      -0.00278491
In      -1.17693438      -2.09265330       6.50747053       11      -0.00227387       0.00160787       0.00278491
In       3.93452975       2.63939375       1.68867539       12       0.00227387       0.00321574      -0.00000000
In       1.58066100       4.73204706       1.93590645       13      -0.00227387       0.00160787      -0.00278491
In       4.13639306       0.00000000      -0.00000000       14       0.00000000      -0.00000000       0.00000000
In       1.37879769       1.94991439       3.37735079       15      -0.00000000       0.00000000       0.00000000
O        0.78422370       3.88965733       3.72858533       16       0.00354682      -0.00023200       0.00419965
O       -1.97337167       3.23413534       4.89921765       17       0.00354682       0.00375301      -0.00189891
O       -0.37580363       2.10448414       0.10112934       18       0.00450191       0.00307766      -0.00072917
O       -0.78422370      -0.67586488       1.87310139       19      -0.00354682       0.00352100       0.00230075
O        3.70696259       4.63408072       1.77197205       20       0.00235609      -0.00394199       0.00302991
O        1.80822815       2.73238193       1.52186686       21      -0.00235609      -0.00459498      -0.00189891
O        1.80822815       5.80152756       0.25010519       22      -0.00235609       0.00065299       0.00492882
O       -2.10939455       5.50255951       3.47848013       23      -0.00140101      -0.00527033      -0.00072917
O        3.13339900       1.79534464       6.65357224       24      -0.00450191      -0.00307766       0.00072917
O        4.86698992      -1.60273073       3.27622145       25       0.00140101       0.00527033       0.00072917
O        5.89099437       3.08973704       1.60537873       26      -0.00450191       0.00090735      -0.00302991
O        3.40579620       2.21108680       3.62745599       27      -0.00140101       0.00200368       0.00492882
O        0.64820082       3.98584003       6.40346704       28      -0.00140101       0.00326664      -0.00419965
O        2.10939455      -0.08601125       0.35123454       29       0.00140101      -0.00326664       0.00419965
O       -3.13339900       0.81009174       5.14932285       30       0.00450191      -0.00090735       0.00302991
O        4.73096704       0.66569344       1.85548393       31      -0.00354682      -0.00375301       0.00189891
O        0.94936722       1.16744685       5.23283472       32       0.00235609       0.00459498       0.00189891
O        3.13339900      -0.98525289       5.25045219       33      -0.00450191       0.00217031       0.00230075
O        1.97337167       0.01017145       3.02611625       34      -0.00354682       0.00023200      -0.00419965
O        0.94936722      -1.90169878       6.50459638       35       0.00235609      -0.00065299      -0.00492882
O       -0.64820083       1.68874198       3.12724559       36       0.00140101      -0.00200368      -0.00492882
O       -0.94936722      -0.73425194       4.98272952       37      -0.00235609       0.00394199      -0.00302991
O       -0.37580363       4.88508167       1.50424939       38       0.00450191      -0.00217031      -0.00230075
O        3.54181907       4.57569367       4.88160018       39       0.00354682      -0.00352100      -0.00230075
