40
Lattice="8.523627956743336 6.68057361396862e-10 1.0091307491572174e-14 -2.841209319544295 8.036153504476578 -1.1571168012866197e-09 -2.8412093185995277 -4.018076751570227 6.959513084359471" Properties=species:S:1:pos:R:3:spacegroup_kinds:I:1:forces:R:3 spacegroup="P 1" unit_cell=conventional occupancy="_JSON {\"0\": {\"In\": 1}, \"1\": {\"In\": 1}, \"2\": {\"In\": 1}, \"3\": {\"In\": 1}, \"4\": {\"In\": 1}, \"5\": {\"In\": 1}, \"6\": {\"In\": 1}, \"7\": {\"In\": 1}, \"8\": {\"In\": 1}, \"9\": {\"In\": 1}, \"10\": {\"In\": 1}, \"11\": {\"In\": 1}, \"12\": {\"In\": 1}, \"13\": {\"In\": 1}, \"14\": {\"In\": 1}, \"15\": {\"In\": 1}, \"16\": {\"O\": 1}, \"17\": {\"O\": 1}, \"18\": {\"O\": 1}, \"19\": {\"O\": 1}, \"20\": {\"O\": 1}, \"21\": {\"O\": 1}, \"22\": {\"O\": 1}, \"23\": {\"O\": 1}, \"24\": {\"O\": 1}, \"25\": {\"O\": 1}, \"26\": {\"O\": 1}, \"27\": {\"O\": 1}, \"28\": {\"O\": 1}, \"29\": {\"O\": 1}, \"30\": {\"O\": 1}, \"31\": {\"O\": 1}, \"32\": {\"O\": 1}, \"33\": {\"O\": 1}, \"34\": {\"O\": 1}, \"35\": {\"O\": 1}, \"36\": {\"O\": 1}, \"37\": {\"O\": 1}, \"38\": {\"O\": 1}, \"39\": {\"O\": 1}}" n_minim_iter=3 energy=-45148.92384321671 stress="-0.12150658277428329 -1.9319252811461428e-13 -2.901595346630688e-13 -1.9319252811461428e-13 -0.12150658277563622 -5.613823047981608e-13 -2.901595346630688e-13 -5.613823047981608e-13 -0.12150658277537171" free_energy=-45148.92384321671 pbc="T T T"
In      -4.06643324       2.87540252       5.45892637        0      -0.00033412       0.00023626      -0.00040922
In       6.90764256       1.14267424       1.50058671        1       0.00033412      -0.00023626       0.00040922
In       1.22522392      -0.86636414       4.98034325        2       0.00033412      -0.00023626       0.00040922
In      -1.42060466      -2.00903837       3.47975654        3       0.00000000       0.00000000       0.00000000
In      -1.22522392       3.87992171       3.24046498        4      -0.00033412       0.00023626       0.00040922
In       4.45719472      -2.73724747       5.21963481        5      -0.00033412      -0.00047252      -0.00000000
In      -1.22522392       1.28082928       5.21963481        6      -0.00033412      -0.00047252      -0.00000000
In      -1.61598540       6.75532423       1.73987827        7       0.00033412       0.00047252      -0.00000000
In       4.06643324       0.13815505       3.71904810        8       0.00033412      -0.00023626      -0.00040922
In      -1.42060466       4.01807675      -0.00000000        9      -0.00000000      -0.00000000      -0.00000000
In       4.06643324       6.16527018       0.23929155       10       0.00033412      -0.00023626      -0.00040922
In      -1.22522392      -2.14719342       6.72022152       11      -0.00033412       0.00023626       0.00040922
In       4.06643324       2.73724748       1.73987827       12       0.00033412       0.00047252       0.00000000
In       1.61598540       4.88444090       1.97916983       13      -0.00033412       0.00023626      -0.00040922
In       4.26181398       0.00000000      -0.00000000       14       0.00000000      -0.00000000      -0.00000000
In       1.42060466       2.00903838       3.47975654       15       0.00000000       0.00000000      -0.00000000
O        0.81711880       4.01194947       3.81179133       16      -0.00501385       0.00714450      -0.00170875
O       -2.02409052       3.30417177       5.05892380       17      -0.00501385      -0.00505207      -0.00533294
O       -0.40648000       2.16034840       0.08057090       18       0.00030148      -0.00881058       0.00117697
O       -0.81711880      -0.72003227       1.91120205       19       0.00501385       0.00209243      -0.00704170
O        3.78989985       4.78462665       1.83063114       20      -0.00309186      -0.00141290      -0.00821867
O        1.89251878       2.81597863       1.57916726       21       0.00309186       0.00641113      -0.00533294
O        1.89251878       5.98672478       0.25146388       22       0.00309186      -0.00782403      -0.00288573
O       -2.17228934       5.69023201       3.56032744       23       0.00840718       0.00265262       0.00117697
O        3.24768931       1.85772835       6.87894218       24      -0.00030148       0.00881058      -0.00117697
O        5.01349866      -1.67215526       3.39918564       25      -0.00840718      -0.00265262      -0.00117697
O        6.08889863       3.15898903       1.64912539       26      -0.00030148      -0.00338600       0.00821867
O        3.51012930       2.24725639       3.73122043       27       0.00840718      -0.00030702      -0.00288573
O        0.66891998       4.11674186       6.62747829       28       0.00840718      -0.00234560       0.00170875
O        2.17228934      -0.09866511       0.33203479       29      -0.00840718       0.00234560      -0.00170875
O       -3.24768932       0.85908773       5.31038768       30       0.00030148       0.00338600      -0.00821867
O        4.86529983       0.71390499       1.90058928       31       0.00501385       0.00505207       0.00533294
O        0.94869054       1.20209813       5.38034582       32      -0.00309186      -0.00641113       0.00533294
O        3.24768931      -0.99864062       5.39095859       33      -0.00030148      -0.00542458      -0.00704170
O        2.02409051       0.00612728       3.14772175       34       0.00501385      -0.00714450       0.00170875
O        0.94869054      -1.96864802       6.70804920       35      -0.00309186       0.00782403       0.00288573
O       -0.66891998       1.77082037       3.22829265       36      -0.00840718       0.00030702       0.00288573
O       -0.94869054      -0.76654990       5.12888194       37       0.00309186       0.00141290       0.00821867
O       -0.40648000       5.01671738       1.56855449       38       0.00030148       0.00542458       0.00704170
O        3.65832812       4.73810902       5.04831103       39      -0.00501385      -0.00209243       0.00704170
