80
Lattice="17.724525269125998 2.7943228626926704 1.929440670942455 12.061902066580776 13.284485492975168 1.929440670942458 12.061902066580782 6.5110531567811565 11.739100600358" Properties=species:S:1:pos:R:3:spacegroup_kinds:I:1:forces:R:3 spacegroup="P 1" unit_cell=conventional occupancy="_JSON {\"0\": {\"In\": 1}, \"1\": {\"In\": 1}, \"2\": {\"In\": 1}, \"3\": {\"In\": 1}, \"4\": {\"O\": 1}, \"5\": {\"O\": 1}, \"6\": {\"O\": 1}, \"7\": {\"O\": 1}, \"8\": {\"O\": 1}, \"9\": {\"O\": 1}}" n_minim_iter=18 energy=-90722.85343283525 stress="0.0003098466199044938 0.0003557773797367827 0.00026799266999208985 0.0003557773797367827 -0.00015212269416178435 0.00014829692865478858 0.00026799266999208985 0.00014829692865478858 -0.0002894941161900901" free_energy=-11340.35700155127 pbc="T T T"
In      17.78532674       9.59660377       6.62632006        0      -0.45937254      -0.17595323      -0.12151374
In      26.63719487      10.99212648       7.58990888        0       0.00706102       0.00228546       0.00153088
In      23.80588327      16.23720780       7.58990888        0       0.00481759       0.00429634       0.00146678
In      32.66814591      17.63436923       8.55462921        0       0.00361692      -0.00336897      -0.00209597
In      23.80588327      12.85049163      12.49473884        0       0.00484418       0.00286634       0.00352606
In      32.66814591      14.24765306      13.45945918        0       0.00282850      -0.00302704      -0.00169417
In      29.83683431      19.49273437      13.45945918        0      -0.00066541       0.00045408      -0.00036740
In      38.69909694      20.88989581      14.42417951        0       0.01033773       0.00450515       0.00311076
In      13.61131482       7.34743110       5.07329793        1       0.22643078       0.12819833       0.08836435
In      22.47357745       8.74459253       6.03801827        1       0.06878273      -0.01049291      -0.01246317
In      19.64226585      13.98967385       6.03801827        1       0.01028852       0.04284737      -0.00365245
In      28.50452849      15.38683528       7.00273860        1      -0.00490386      -0.00109501      -0.00140920
In      19.64226585      10.60295768      10.94284823        1       0.01123210       0.00751846       0.03833148
In      28.50452849      12.00011911      11.90756857        1      -0.00495502      -0.00160623      -0.00052830
In      25.67321689      17.24520042      11.90756857        1      -0.00221216      -0.00376102      -0.00272512
In      34.53547952      18.64236186      12.87228890        1       0.00246752       0.00092225       0.00033436
In       7.31284989       3.94749967       2.72569305        2       0.00474670       0.00019148       0.00412236
In      16.17511252       5.34466110       3.69041339        2       0.00620998       0.00823944       0.00715344
In      13.34380092      10.58974242       3.69041339        2       0.01723722      -0.00051074       0.00896902
In      22.20606356      11.98690385       4.65513372        2       0.01678365       0.01027282      -0.00511586
In      13.34380092       7.20302625       8.59524335        2       0.01689916       0.01029111      -0.00344429
In      22.20606356       8.60018768       9.55996369        2       0.01714054      -0.00230461       0.00959106
In      19.37475196      13.84526899       9.55996369        2       0.00573113       0.00984707       0.00805262
In      28.23701459      15.24243043      10.52468402        2       0.00472688       0.00020714       0.00410469
In       3.14923247       1.69996572       1.17380244        3      -0.00773772      -0.00680095      -0.00466337
In      12.01149510       3.09712715       2.13852278        3      -0.00382371      -0.00082762      -0.00065780
In       9.18018350       8.34220847       2.13852278        3      -0.00261079      -0.00200486      -0.00077484
In      18.04244614       9.73936990       3.10324311        3      -0.00428581      -0.00536698       0.00397927
In       9.18018350       4.95549230       7.04335274        3      -0.00258110      -0.00147078      -0.00153822
In      18.04244614       6.35265373       8.00807308        3      -0.00815311       0.00360220      -0.00340605
In      15.21113454      11.59773504       8.00807308        3       0.02463213      -0.02280124      -0.01748160
In      24.07339717      12.99489648       8.97279341        3      -0.00167300      -0.00071646      -0.00049509
O        9.66217250       3.83644077       1.97717127        4       0.00026913       0.00238200      -0.00564463
O       18.52443513       5.23360220       2.94189161        4       0.00107907       0.00189293      -0.00410332
O       15.69312353      10.47868352       2.94189161        4      -0.00136731       0.00228511      -0.00218178
O       24.55538617      11.87584495       3.90661194        4      -0.00027970       0.00285666      -0.00562426
O       15.69312353       7.09196735       7.84672157        4       0.01775953       0.02688160      -0.02107292
O       24.55538617       8.48912878       8.81144191        4       0.00086790       0.00281883      -0.00526404
O       21.72407457      13.73421009       8.81144191        4      -0.00017942       0.00258312      -0.00590694
O       30.58633720      15.13137153       9.77616224        4      -0.00370231       0.00555655      -0.00315982
O       12.41503598       7.32993069       2.91446808        5      -0.00362651       0.00550497      -0.00003961
O       21.27729861       8.72709212       3.87918842        5       0.00297937       0.00736639      -0.00550792
O       18.44598701      13.97217344       3.87918842        5      -0.00056133       0.00554260       0.00122286
O       27.30824965      15.36933487       4.84390875        5      -0.00374676       0.00568688      -0.00074654
O       18.44598701      10.58545727       8.78401838        5       0.00855353      -0.00068520      -0.00177470
O       27.30824965      11.98261870       9.74873872        5      -0.00428380       0.00591954      -0.00089957
O       24.47693805      17.22770001       9.74873872        5      -0.00248566       0.00606830       0.00024477
O       33.33920068      18.62486145      10.71345905        5      -0.00624150       0.00931330      -0.00103890
O       12.94026006       4.97770816       4.91194642        6       0.00268168      -0.00242384      -0.00552762
O       21.80252269       6.37486959       5.87666676        6       0.00247737       0.00046194      -0.00765238
O       18.97121109      11.61995091       5.87666676        6       0.00166334      -0.01519818       0.00044111
O       27.83347373      13.01711234       6.84138709        6       0.00363539      -0.00153205      -0.00512637
O       18.97121109       8.23323474      10.78149672        6       0.00516622      -0.00315032      -0.00375578
O       27.83347373       9.63039617      11.74621706        6       0.00210953      -0.00338043      -0.00523805
O       25.00216213      14.87547748      11.74621706        6       0.00260050      -0.00290397      -0.00603882
O       33.86442476      16.27263892      12.71093739        6       0.00315904      -0.00037745      -0.00173788
O        7.98390466       6.31722261       2.88704456        7      -0.00444690       0.00229671       0.00414148
O       16.84616729       7.71438404       3.85176490        7       0.00216238       0.01506992       0.02528869
O       14.01485569      12.95946536       3.85176490        7      -0.00784807       0.00691028      -0.00010342
O       22.87711833      14.35662679       4.81648523        7      -0.00268006       0.00275631       0.00440441
O       14.01485569       9.57274919       8.75659486        7      -0.00184448      -0.00155691       0.00178184
O       22.87711833      10.96991062       9.72131520        7      -0.00409963       0.00207038       0.00453421
O       20.04580673      16.21499193       9.72131520        7      -0.00367896       0.00261382       0.00463166
O       28.90806936      17.61215337      10.68603553        7      -0.00128250      -0.00082157       0.00519317
O       11.26199222       7.45849000       5.82181971        8      -0.00094024      -0.00439542       0.00480251
O       20.12425485       8.85565143       6.78654005        8      -0.02505196       0.00820779      -0.00451965
O       17.29294325      14.10073275       6.78654005        8       0.00314681      -0.00737582       0.00434095
O       26.15520589      15.49789418       7.75126038        8      -0.00035427      -0.00377015       0.00549346
O       17.29294325      10.71401658      11.69137001        8       0.00254861      -0.00188913       0.00686566
O       26.15520589      12.11117801      12.65609035        8       0.00031070      -0.00341756       0.00527453
O       23.32389429      17.35625932      12.65609035        8      -0.00139444      -0.00378872       0.00559547
O       32.18615692      18.75342076      13.62081068        8      -0.00056758      -0.00525071       0.00787958
O        8.50912874       3.96500008       4.88452290        9       0.00249157      -0.00555969       0.00079552
O       17.37139137       5.36216151       5.84924324        9       0.00307191      -0.00483867      -0.00094419
O       14.54007977      10.60724283       5.84924324        9       0.03965289      -0.02535172       0.00697746
O       23.40234241      12.00440426       6.81396357        9       0.00136747      -0.00695370       0.00012399
O       14.54007977       7.22052666      10.75407320        9      -0.00123794      -0.00745632       0.00508593
O       23.40234241       8.61768809      11.71879354        9       0.00242282      -0.00603375       0.00053065
O       20.57103081      13.86276940      11.71879354        9       0.00249393      -0.00506389       0.00099339
O       29.43329344      15.25993084      12.68351387        9       0.00338985      -0.00430715      -0.00164466
