80
Lattice="17.724525269125998 2.7943228626926704 1.929440670942455 12.061902066580776 13.284485492975168 1.929440670942458 12.061902066580782 6.5110531567811565 11.739100600358" Properties=species:S:1:pos:R:3:spacegroup_kinds:I:1:forces:R:3 spacegroup="P 1" unit_cell=conventional occupancy="_JSON {\"0\": {\"In\": 1}, \"1\": {\"In\": 1}, \"2\": {\"In\": 1}, \"3\": {\"In\": 1}, \"4\": {\"O\": 1}, \"5\": {\"O\": 1}, \"6\": {\"O\": 1}, \"7\": {\"O\": 1}, \"8\": {\"O\": 1}, \"9\": {\"O\": 1}}" n_minim_iter=18 energy=-90722.85601241807 stress="-6.295237376866331e-05 0.0001531185024329647 0.00010572584015248818 0.0001531185024329647 -0.00026395502783487857 5.707105819587694e-05 0.00010572584015248818 5.707105819587694e-05 -0.00030720178047038933" free_energy=-11340.35700155127 pbc="T T T"
In      17.77493224       9.59496505       6.62518854        0       0.00334651       0.00180637       0.00124725
In      26.63719487      10.99212648       7.58990888        0       0.00334651       0.00180637       0.00124725
In      23.80588327      16.23720780       7.58990888        0       0.00334651       0.00180637       0.00124725
In      32.66814591      17.63436923       8.55462921        0       0.00334651       0.00180637       0.00124725
In      23.80588327      12.85049163      12.49473884        0       0.00334651       0.00180637       0.00124725
In      32.66814591      14.24765306      13.45945918        0       0.00334651       0.00180637       0.00124725
In      29.83683431      19.49273437      13.45945918        0       0.00334651       0.00180637       0.00124725
In      38.69909694      20.88989581      14.42417951        0       0.00334651       0.00180637       0.00124725
In      13.61131482       7.34743110       5.07329793        1      -0.00334648      -0.00180644      -0.00124733
In      22.47357745       8.74459253       6.03801827        1      -0.00334648      -0.00180644      -0.00124733
In      19.64226585      13.98967385       6.03801827        1      -0.00334648      -0.00180644      -0.00124733
In      28.50452849      15.38683528       7.00273860        1      -0.00334648      -0.00180644      -0.00124733
In      19.64226585      10.60295768      10.94284823        1      -0.00334648      -0.00180644      -0.00124733
In      28.50452849      12.00011911      11.90756857        1      -0.00334648      -0.00180644      -0.00124733
In      25.67321689      17.24520042      11.90756857        1      -0.00334648      -0.00180644      -0.00124733
In      34.53547952      18.64236186      12.87228890        1      -0.00334648      -0.00180644      -0.00124733
In       7.31284989       3.94749967       2.72569305        2       0.00334651       0.00180644       0.00124733
In      16.17511252       5.34466110       3.69041339        2       0.00334651       0.00180644       0.00124733
In      13.34380092      10.58974242       3.69041339        2       0.00334651       0.00180644       0.00124733
In      22.20606356      11.98690385       4.65513372        2       0.00334651       0.00180644       0.00124733
In      13.34380092       7.20302625       8.59524335        2       0.00334651       0.00180644       0.00124733
In      22.20606356       8.60018768       9.55996369        2       0.00334651       0.00180644       0.00124733
In      19.37475196      13.84526899       9.55996369        2       0.00334651       0.00180644       0.00124733
In      28.23701459      15.24243043      10.52468402        2       0.00334651       0.00180644       0.00124733
In       3.14923247       1.69996572       1.17380244        3      -0.00334647      -0.00180638      -0.00124725
In      12.01149510       3.09712715       2.13852278        3      -0.00334647      -0.00180638      -0.00124725
In       9.18018350       8.34220847       2.13852278        3      -0.00334647      -0.00180638      -0.00124725
In      18.04244614       9.73936990       3.10324311        3      -0.00334647      -0.00180638      -0.00124725
In       9.18018350       4.95549230       7.04335274        3      -0.00334647      -0.00180638      -0.00124725
In      18.04244614       6.35265373       8.00807308        3      -0.00334647      -0.00180638      -0.00124725
In      15.21113454      11.59773504       8.00807308        3      -0.00334647      -0.00180638      -0.00124725
In      24.07339717      12.99489648       8.97279341        3      -0.00334647      -0.00180638      -0.00124725
O        9.66217250       3.83644077       1.97717127        4      -0.00000006       0.00339560      -0.00491778
O       18.52443513       5.23360220       2.94189161        4      -0.00000006       0.00339560      -0.00491778
O       15.69312353      10.47868352       2.94189161        4      -0.00000006       0.00339560      -0.00491778
O       24.55538617      11.87584495       3.90661194        4      -0.00000006       0.00339560      -0.00491778
O       15.69312353       7.09196735       7.84672157        4      -0.00000006       0.00339560      -0.00491778
O       24.55538617       8.48912878       8.81144191        4      -0.00000006       0.00339560      -0.00491778
O       21.72407457      13.73421009       8.81144191        4      -0.00000006       0.00339560      -0.00491778
O       30.58633720      15.13137153       9.77616224        4      -0.00000006       0.00339560      -0.00491778
O       12.41503598       7.32993069       2.91446808        5      -0.00283884       0.00525889      -0.00000003
O       21.27729861       8.72709212       3.87918842        5      -0.00283884       0.00525889      -0.00000003
O       18.44598701      13.97217344       3.87918842        5      -0.00283884       0.00525889      -0.00000003
O       27.30824965      15.36933487       4.84390875        5      -0.00283884       0.00525889      -0.00000003
O       18.44598701      10.58545727       8.78401838        5      -0.00283884       0.00525889      -0.00000003
O       27.30824965      11.98261870       9.74873872        5      -0.00283884       0.00525889      -0.00000003
O       24.47693805      17.22770001       9.74873872        5      -0.00283884       0.00525889      -0.00000003
O       33.33920068      18.62486145      10.71345905        5      -0.00283884       0.00525889      -0.00000003
O       12.94026006       4.97770816       4.91194642        6       0.00283886      -0.00186319      -0.00491770
O       21.80252269       6.37486959       5.87666676        6       0.00283886      -0.00186319      -0.00491770
O       18.97121109      11.61995091       5.87666676        6       0.00283886      -0.00186319      -0.00491770
O       27.83347373      13.01711234       6.84138709        6       0.00283886      -0.00186319      -0.00491770
O       18.97121109       8.23323474      10.78149672        6       0.00283886      -0.00186319      -0.00491770
O       27.83347373       9.63039617      11.74621706        6       0.00283886      -0.00186319      -0.00491770
O       25.00216213      14.87547748      11.74621706        6       0.00283886      -0.00186319      -0.00491770
O       33.86442476      16.27263892      12.71093739        6       0.00283886      -0.00186319      -0.00491770
O        7.98390466       6.31722261       2.88704456        7      -0.00283891       0.00186319       0.00491772
O       16.84616729       7.71438404       3.85176490        7      -0.00283891       0.00186319       0.00491772
O       14.01485569      12.95946536       3.85176490        7      -0.00283891       0.00186319       0.00491772
O       22.87711833      14.35662679       4.81648523        7      -0.00283891       0.00186319       0.00491772
O       14.01485569       9.57274919       8.75659486        7      -0.00283891       0.00186319       0.00491772
O       22.87711833      10.96991062       9.72131520        7      -0.00283891       0.00186319       0.00491772
O       20.04580673      16.21499193       9.72131520        7      -0.00283891       0.00186319       0.00491772
O       28.90806936      17.61215337      10.68603553        7      -0.00283891       0.00186319       0.00491772
O       11.26199222       7.45849000       5.82181971        8       0.00000009      -0.00339562       0.00491777
O       20.12425485       8.85565143       6.78654005        8       0.00000009      -0.00339562       0.00491777
O       17.29294325      14.10073275       6.78654005        8       0.00000009      -0.00339562       0.00491777
O       26.15520589      15.49789418       7.75126038        8       0.00000009      -0.00339562       0.00491777
O       17.29294325      10.71401658      11.69137001        8       0.00000009      -0.00339562       0.00491777
O       26.15520589      12.11117801      12.65609035        8       0.00000009      -0.00339562       0.00491777
O       23.32389429      17.35625932      12.65609035        8       0.00000009      -0.00339562       0.00491777
O       32.18615692      18.75342076      13.62081068        8       0.00000009      -0.00339562       0.00491777
O        8.50912874       3.96500008       4.88452290        9       0.00283879      -0.00525887       0.00000003
O       17.37139137       5.36216151       5.84924324        9       0.00283879      -0.00525887       0.00000003
O       14.54007977      10.60724283       5.84924324        9       0.00283879      -0.00525887       0.00000003
O       23.40234241      12.00440426       6.81396357        9       0.00283879      -0.00525887       0.00000003
O       14.54007977       7.22052666      10.75407320        9       0.00283879      -0.00525887       0.00000003
O       23.40234241       8.61768809      11.71879354        9       0.00283879      -0.00525887       0.00000003
O       20.57103081      13.86276940      11.71879354        9       0.00283879      -0.00525887       0.00000003
O       29.43329344      15.25993084      12.68351387        9       0.00283879      -0.00525887       0.00000003
