80
Lattice="11.758240233722756 0.010027541059970621 0.006923876195181948 6.460386359023739 9.824445126197006 0.006923876195180972 6.460386359023739 3.4873371351183082 9.184674718450442" Properties=species:S:1:pos:R:3:spacegroup_kinds:I:1:forces:R:3 spacegroup="P 1" unit_cell=conventional occupancy="_JSON {\"0\": {\"In\": 1}, \"1\": {\"In\": 1}, \"2\": {\"In\": 1}, \"3\": {\"In\": 1}, \"4\": {\"O\": 1}, \"5\": {\"O\": 1}, \"6\": {\"O\": 1}, \"7\": {\"O\": 1}, \"8\": {\"O\": 1}, \"9\": {\"O\": 1}}" n_minim_iter=5 energy=-90301.44101771084 stress="-8.498258005768437e-05 -2.4693947308258877e-05 -3.769614793247068e-05 -2.4693947308258877e-05 -2.895873550426849e-05 1.7234197768544594e-05 -3.769614793247068e-05 1.7234197768544594e-05 1.0234874647941402e-05" free_energy=-11287.680190913761 pbc="T T T"
In      10.58795381       5.70970720       3.94247258        0      -0.09631838       0.00714276       0.00440488
In      16.45649039       5.71471194       3.94592829        0       0.00340430       0.00068127      -0.00075833
In      13.80756345      10.62192073       3.94592829        0       0.00068725       0.00131342       0.00060112
In      19.68668357      10.62693450       3.94939023        0      -0.00176369      -0.00127953      -0.00009812
In      13.80756345       7.45336674       8.53480371        0       0.00131848       0.00061440       0.00196582
In      19.68668357       7.45838051       8.53826565        0       0.00111513      -0.00114944      -0.00294589
In      17.03775663      12.36558930       8.53826565        0      -0.00110114      -0.00097577       0.00068841
In      22.91687675      12.37060307       8.54172759        0      -0.00026319      -0.00015635      -0.00010807
In       7.93188945       4.28165919       2.95642551        1       0.01478898       0.01120042       0.00806775
In      13.81100957       4.28667296       2.95988745        1       0.00527018      -0.00156115      -0.00257530
In      11.16208263       9.19388175       2.95988745        1      -0.00101222       0.00260946       0.00014020
In      17.04120275       9.19889552       2.96334939        1       0.00073735       0.00008079       0.00015822
In      11.16208263       6.02532776       7.54876287        1      -0.00101680       0.00109474       0.00085029
In      17.04120275       6.03034153       7.55222481        1       0.00072915       0.00032062       0.00024537
In      14.39227581      10.93755032       7.55222481        1       0.00049601       0.00047887       0.00017075
In      20.27139593      10.94256409       7.55568675        1       0.00092572      -0.00003789       0.00018678
In       4.40761703       2.37924572       1.64283573        2      -0.00018498      -0.00053984      -0.00096952
In      10.28673715       2.38425949       1.64629767        2      -0.00211333       0.00114682       0.00034668
In       7.63781021       7.29146828       1.64629767        2       0.00256637      -0.00338464       0.00598577
In      13.51693033       7.29648205       1.64975961        2       0.00258176       0.00208198      -0.00332044
In       7.63781021       4.12291429       6.23517309        2       0.00331758       0.00153809      -0.00399734
In      13.51693033       4.12792806       6.23863503        2       0.00334284      -0.00245982       0.00510927
In      10.86800339       9.03513685       6.23863503        2      -0.00211379      -0.00032823       0.00050982
In      16.74712351       9.04015062       6.24209697        2      -0.00018558      -0.00053210      -0.00096039
In       1.76213621       0.95120674       0.65679489        3       0.00042751      -0.00049079      -0.00034573
In       7.64125633       0.95622051       0.66025683        3       0.00107379       0.00037707       0.00020333
In       4.99232939       5.86342930       0.66025683        3       0.00042540       0.00075014      -0.00001616
In      10.87144951       5.86844307       0.66371877        3      -0.00215470      -0.00131204      -0.00082755
In       4.99232939       2.69487531       5.24913225        3       0.00113565      -0.00021454       0.00044076
In      10.87144951       2.69988908       5.25259419        3      -0.00520927      -0.00083959       0.00104597
In       8.22252257       7.60709787       5.25259419        3       0.00553323      -0.00636109      -0.00619148
In      14.10164269       7.61211164       5.25605613        3       0.00031056       0.00043560       0.00030000
O        6.02443668       2.31245891       0.21781868        4       0.00008782       0.00542970      -0.00820355
O       11.90355680       2.31747268       0.22128062        4       0.00026438       0.00562847      -0.00814516
O        9.25462986       7.22468147       0.22128062        4       0.00022211       0.00575010      -0.00839065
O       15.13374998       7.22969524       0.22474256        4      -0.00012254       0.00587061      -0.00808591
O        9.25462986       4.05612748       4.81015604        4       0.00674296       0.01061192      -0.00960148
O       15.13374998       4.06114125       4.81361798        4      -0.00295750       0.00632281      -0.00845480
O       12.48482304       8.96835004       4.81361798        4       0.00053648       0.00600480      -0.00849767
O       18.36394316       8.97336381       4.81707992        4      -0.00064473       0.00649577      -0.00759617
O        7.10053930       5.12234531       1.15327725        5      -0.00468593       0.00791519      -0.00046904
O       12.97965942       5.12735908       1.15673919        5      -0.00513927       0.00846778      -0.00022816
O       10.33073248      10.03456787       1.15673919        5      -0.00409986       0.00843175      -0.00006991
O       16.20985260      10.03958164       1.16020113        5      -0.00489137       0.00867727       0.00013529
O       10.33073248       6.86601388       5.74561461        5      -0.00089273       0.00459158      -0.00541131
O       16.20985260       6.87102765       5.74907655        5      -0.00501510       0.00864025       0.00010820
O       13.56092566      11.77823644       5.74907655        5      -0.00550719       0.00781704       0.00017084
O       19.44004578      11.78325021       5.75253849        5      -0.00465927       0.00990505      -0.00069768
O        8.17852725       2.18579227       2.51398736        6       0.00453744      -0.00303723      -0.00842630
O       14.05764737       2.19080604       2.51744930        6       0.00482593      -0.00257331      -0.00783842
O       11.40872043       7.09801483       2.51744930        6       0.01353425       0.00881877      -0.01886451
O       17.28784055       7.10302860       2.52091124        6       0.00273281      -0.00265275      -0.00839485
O       11.40872043       3.92946084       7.10632472        6       0.00537063      -0.00380648      -0.00746183
O       17.28784055       3.93447461       7.10978666        6       0.00441842      -0.00278351      -0.00838353
O       14.63891361       8.84168340       7.10978666        6       0.00470404      -0.00323017      -0.00815294
O       20.51803373       8.84669717       7.11324860        6       0.00442356      -0.00268554      -0.00762785
O        4.16097924       4.47511264       2.08527388        7      -0.00528885       0.00294188       0.00833282
O       10.04009936       4.48012641       2.08873582        7       0.00112544       0.00412748       0.01006935
O        7.39117242       9.38733520       2.08873582        7      -0.00446596       0.00413618       0.00730563
O       13.27029254       9.39234897       2.09219776        7      -0.00566479       0.00163256       0.00862649
O        7.39117242       6.21878121       6.67761124        7      -0.00526817       0.00311245       0.00865897
O       13.27029254       6.22379498       6.68107318        7      -0.00396667       0.00316842       0.00879654
O       10.62136560      11.13100377       6.68107318        7      -0.00466343       0.00287078       0.00794283
O       16.50048572      11.13601754       6.68453512        7      -0.00399935       0.00270285       0.00819024
O        6.31506980       4.34844601       4.38144256        8      -0.00017278      -0.00611681       0.00807494
O       12.19418992       4.35345978       4.38490450        8       0.03074861      -0.02853347       0.01390094
O        9.54526298       9.26066857       4.38490450        8       0.00068500      -0.00392041       0.00809064
O       15.42438310       9.26568234       4.38836644        8      -0.00016069      -0.00584110       0.00825639
O        9.54526298       6.09211458       8.97377992        8      -0.00007616      -0.00542432       0.00819107
O       15.42438310       6.09712835       8.97724186        8      -0.00027645      -0.00578184       0.00768408
O       12.77545616      11.00433714       8.97724186        8      -0.00004151      -0.00585850       0.00759166
O       18.65457628      11.00935091       8.98070380        8      -0.00023586      -0.00568683       0.00914572
O        5.23896719       1.53855960       3.44598399        9       0.00446711      -0.00905055       0.00013209
O       11.11808731       1.54357337       3.44944593        9       0.00482222      -0.00815502       0.00017772
O        8.46916037       6.45078216       3.44944593        9       0.01817180      -0.01150353       0.00080910
O       14.34828049       6.45579593       3.45290787        9       0.00532972      -0.00943132       0.00022325
O        8.46916037       3.28222817       8.03832135        9       0.00464439      -0.00857571       0.00052433
O       14.34828049       3.28724194       8.04178329        9       0.00457627      -0.00843848      -0.00064649
O       11.69935355       8.19445073       8.04178329        9       0.00464955      -0.00872826      -0.00016635
O       17.57847367       8.19946450       8.04524523        9       0.00452508      -0.00849999       0.00036853
