80
Lattice="11.758240233722756 0.010027541059970621 0.006923876195181948 6.460386359023739 9.824445126197006 0.006923876195180972 6.460386359023739 3.4873371351183082 9.184674718450442" Properties=species:S:1:pos:R:3:spacegroup_kinds:I:1:forces:R:3 spacegroup="P 1" unit_cell=conventional occupancy="_JSON {\"0\": {\"In\": 1}, \"1\": {\"In\": 1}, \"2\": {\"In\": 1}, \"3\": {\"In\": 1}, \"4\": {\"O\": 1}, \"5\": {\"O\": 1}, \"6\": {\"O\": 1}, \"7\": {\"O\": 1}, \"8\": {\"O\": 1}, \"9\": {\"O\": 1}}" n_minim_iter=5 energy=-90301.44091769043 stress="-0.00010052905141208944 -3.357727406455573e-05 -8.090379177235141e-05 -3.357727406455573e-05 -3.370504484641191e-05 -1.645216190925967e-05 -8.090379177235141e-05 -1.645216190925967e-05 1.6860789165996034e-05" free_energy=-11287.680190913761 pbc="T T T"
In      10.57737027       5.70969817       3.94246635        0      -0.00040967      -0.00048138      -0.00074228
In      16.45649039       5.71471194       3.94592829        0      -0.00023984       0.00005778       0.00079225
In      13.80756345      10.62192073       3.94592829        0      -0.00027824       0.00003940      -0.00083764
In      19.68668357      10.62693450       3.94939023        0      -0.00061928      -0.00077880      -0.00010683
In      13.80756345       7.45336674       8.53480371        0       0.00643861       0.00441844      -0.00157385
In      19.68668357       7.45838051       8.53826565        0      -0.00361455       0.00156059      -0.00101501
In      17.03775663      12.36558930       8.53826565        0       0.00001711      -0.00032288       0.00003233
In      22.91687675      12.37060307       8.54172759        0      -0.00114566       0.00046900       0.00008225
In       7.93188945       4.28165919       2.95642551        1       0.00103226       0.00045872       0.00008532
In      13.81100957       4.28667296       2.95988745        1      -0.00013319       0.00075728       0.00077011
In      11.16208263       9.19388175       2.95988745        1       0.00071743      -0.00022571       0.00068567
In      17.04120275       9.19889552       2.96334939        1       0.00036744       0.00015785      -0.00031695
In      11.16208263       6.02532776       7.54876287        1       0.00728965       0.00062299       0.00474839
In      17.04120275       6.03034153       7.55222481        1      -0.00246457       0.00013538       0.00210508
In      14.39227581      10.93755032       7.55222481        1       0.00058072      -0.00031875       0.00018825
In      20.27139593      10.94256409       7.55568675        1       0.00076110       0.00129751       0.00013969
In       4.40761703       2.37924572       1.64283573        2       0.02812209      -0.00220315      -0.02345971
In      10.28673715       2.38425949       1.64629767        2      -0.00097736      -0.00008724      -0.00092687
In       7.63781021       7.29146828       1.64629767        2      -0.00076795      -0.00094283      -0.00046230
In      13.51693033       7.29648205       1.64975961        2      -0.00057195       0.00038364      -0.00012735
In       7.63781021       4.12291429       6.23517309        2      -0.00065259      -0.00030450      -0.00020046
In      13.51693033       4.12792806       6.23863503        2       0.00019831      -0.00100643      -0.00103471
In      10.86800339       9.03513685       6.23863503        2      -0.00073530       0.00011466      -0.00038590
In      16.74712351       9.04015062       6.24209697        2      -0.00053915      -0.00012180      -0.00022303
In       1.76213621       0.95120674       0.65679489        3       0.00034199      -0.00030406       0.00057500
In       7.64125633       0.95622051       0.66025683        3       0.03125698      -0.02428238       0.00723522
In       4.99232939       5.86342930       0.66025683        3       0.00118688      -0.00075979      -0.00019465
In      10.87144951       5.86844307       0.66371877        3       0.00032471       0.00023551       0.00015942
In       4.99232939       2.69487531       5.24913225        3       0.00041734       0.00054942       0.00077604
In      10.87144951       2.69988908       5.25259419        3       0.00022270      -0.00024008      -0.00035529
In       8.22252257       7.60709787       5.25259419        3       0.00045061       0.00028817       0.00032816
In      14.10164269       7.61211164       5.25605613        3       0.00026258       0.00022712       0.00058882
O        6.03502022       2.31246794       0.21782491        4      -0.11537504       0.02815250       0.00610354
O       11.90355680       2.31747268       0.22128062        4       0.00104910       0.00548836      -0.00812287
O        9.25462986       7.22468147       0.22128062        4       0.00025157       0.00575001      -0.00815775
O       15.13374998       7.22969524       0.22474256        4       0.00053155       0.00484574      -0.00801132
O        9.25462986       4.05612748       4.81015604        4       0.00025663       0.00555572      -0.00787387
O       15.13374998       4.06114125       4.81361798        4       0.00053451       0.00536598      -0.00878740
O       12.48482304       8.96835004       4.81361798        4       0.00015601       0.00565624      -0.00801342
O       18.36394316       8.97336381       4.81707992        4      -0.00010832       0.00541876      -0.00817908
O        7.10053930       5.12234531       1.15327725        5      -0.00490746       0.01275959       0.00133698
O       12.97965942       5.12735908       1.15673919        5      -0.00417904       0.00835205       0.00000069
O       10.33073248      10.03456787       1.15673919        5      -0.00095289       0.01238867      -0.00124959
O       16.20985260      10.03958164       1.16020113        5      -0.00557869       0.00886141       0.00016408
O       10.33073248       6.86601388       5.74561461        5      -0.00479286       0.00891632      -0.00034581
O       16.20985260       6.87102765       5.74907655        5      -0.00437002       0.00886978      -0.00065805
O       13.56092566      11.77823644       5.74907655        5      -0.00480490       0.00857561       0.00036631
O       19.44004578      11.78325021       5.75253849        5      -0.00500771       0.00856881      -0.00009654
O        8.17852725       2.18579227       2.51398736        6       0.00830247      -0.00292039      -0.00416996
O       14.05764737       2.19080604       2.51744930        6       0.00382884      -0.00281836      -0.00800331
O       11.40872043       7.09801483       2.51744930        6       0.00451282      -0.00274044      -0.00825328
O       17.28784055       7.10302860       2.52091124        6       0.00431761      -0.00316930      -0.00809645
O       11.40872043       3.92946084       7.10632472        6       0.00440446      -0.00030465      -0.00469212
O       17.28784055       3.93447461       7.10978666        6       0.00515000      -0.00314965      -0.00833329
O       14.63891361       8.84168340       7.10978666        6       0.00449670      -0.00331892      -0.00762642
O       20.51803373       8.84669717       7.11324860        6       0.00493946      -0.00357988      -0.00762086
O        4.16097924       4.47511264       2.08527388        7      -0.00313700       0.00018985       0.00553110
O       10.04009936       4.48012641       2.08873582        7      -0.00442504       0.00339641       0.00822317
O        7.39117242       9.38733520       2.08873582        7      -0.00382846       0.00304145       0.00784995
O       13.27029254       9.39234897       2.09219776        7      -0.00518498       0.00153481       0.00936719
O        7.39117242       6.21878121       6.67761124        7      -0.00404038       0.00301156       0.00860656
O       13.27029254       6.22379498       6.68107318        7      -0.00489357       0.00404811       0.00127301
O       10.62136560      11.13100377       6.68107318        7      -0.00464429       0.00269175       0.00782523
O       16.50048572      11.13601754       6.68453512        7      -0.00451009       0.00332062       0.00798779
O        6.31506980       4.34844601       4.38144256        8      -0.00010976      -0.00515220       0.00845342
O       12.19418992       4.35345978       4.38490450        8      -0.00027611      -0.00582269       0.00782737
O        9.54526298       9.26066857       4.38490450        8       0.00020297      -0.00546166       0.00752112
O       15.42438310       9.26568234       4.38836644        8       0.00020275      -0.00604472       0.00837193
O        9.54526298       6.09211458       8.97377992        8       0.01749053      -0.00683725       0.01002260
O       15.42438310       6.09712835       8.97724186        8       0.01819734      -0.00413857       0.00609375
O       12.77545616      11.00433714       8.97724186        8      -0.00027175      -0.00590278       0.00792650
O       18.65457628      11.00935091       8.98070380        8      -0.00010627      -0.00505493       0.00833295
O        5.23896719       1.53855960       3.44598399        9       0.00414691      -0.00796830      -0.00188233
O       11.11808731       1.54357337       3.44944593        9       0.00547847      -0.00884376       0.00005527
O        8.46916037       6.45078216       3.44944593        9       0.00480963      -0.00861640       0.00027582
O       14.34828049       6.45579593       3.45290787        9       0.00466927      -0.00898994      -0.00025276
O        8.46916037       3.28222817       8.03832135        9       0.00479601      -0.00841881       0.00023195
O       14.34828049       3.28724194       8.04178329        9       0.00616425      -0.01201523      -0.00176397
O       11.69935355       8.19445073       8.04178329        9       0.00448149      -0.01473783       0.00335641
O       17.57847367       8.19946450       8.04524523        9       0.00529404      -0.00814712      -0.00024340
