40
Lattice="8.84427246818921 6.931868198407132e-10 4.7667174436675066e-15 -2.948090823383278 8.338460048993035 -1.2006376169362624e-09 -2.948090822402972 -4.1692300238033315 7.2213182316700255" Properties=species:S:1:pos:R:3:spacegroup_kinds:I:1:forces:R:3 spacegroup="P 1" unit_cell=conventional occupancy="_JSON {\"0\": {\"In\": 1}, \"1\": {\"In\": 1}, \"2\": {\"In\": 1}, \"3\": {\"In\": 1}, \"4\": {\"In\": 1}, \"5\": {\"In\": 1}, \"6\": {\"In\": 1}, \"7\": {\"In\": 1}, \"8\": {\"In\": 1}, \"9\": {\"In\": 1}, \"10\": {\"In\": 1}, \"11\": {\"In\": 1}, \"12\": {\"In\": 1}, \"13\": {\"In\": 1}, \"14\": {\"In\": 1}, \"15\": {\"In\": 1}, \"16\": {\"O\": 1}, \"17\": {\"O\": 1}, \"18\": {\"O\": 1}, \"19\": {\"O\": 1}, \"20\": {\"O\": 1}, \"21\": {\"O\": 1}, \"22\": {\"O\": 1}, \"23\": {\"O\": 1}, \"24\": {\"O\": 1}, \"25\": {\"O\": 1}, \"26\": {\"O\": 1}, \"27\": {\"O\": 1}, \"28\": {\"O\": 1}, \"29\": {\"O\": 1}, \"30\": {\"O\": 1}, \"31\": {\"O\": 1}, \"32\": {\"O\": 1}, \"33\": {\"O\": 1}, \"34\": {\"O\": 1}, \"35\": {\"O\": 1}, \"36\": {\"O\": 1}, \"37\": {\"O\": 1}, \"38\": {\"O\": 1}, \"39\": {\"O\": 1}}" n_minim_iter=1 energy=-45151.664382692674 stress="-0.01489425628678229 -2.1542565717114938e-14 1.0619932867164097e-13 -2.1542565717114938e-14 -0.014894256285523532 1.3626294059841523e-14 1.0619932867164097e-13 1.3626294059841523e-14 -0.01489425628570691" free_energy=-45151.664382692674 pbc="T T T"
In      -4.22352522       2.98648333       5.65923649        0      -0.00434964       0.00307566      -0.00532720
In       7.17161604       1.18274670       1.56208174        1       0.00434964      -0.00307566       0.00532720
In       1.27543440      -0.90186831       5.17274085        2       0.00434964      -0.00307566       0.00532720
In      -1.47404541      -2.08461501       3.61065911        3      -0.00000000      -0.00000000      -0.00000000
In      -1.27543440       4.02879083       3.36741129        4      -0.00434964       0.00307566       0.00532720
In       4.62074724      -2.84604413       5.41598867        5      -0.00434964      -0.00615132       0.00000000
In      -1.27543440       1.32318589       5.41598867        6      -0.00434964      -0.00615132       0.00000000
In      -1.67265643       7.01527416       1.80532955        7       0.00434964       0.00615132      -0.00000000
In       4.22352522       0.14043920       3.85390693        8       0.00434964      -0.00307566      -0.00532720
In      -1.47404541       4.16923003      -0.00000000        9       0.00000000      -0.00000000       0.00000000
In       4.22352522       6.39428423       0.24324781       10       0.00434964      -0.00307566      -0.00532720
In      -1.27543440      -2.22505420       6.97807041       11      -0.00434964       0.00307566       0.00532720
In       4.22352522       2.84604413       1.80532956       12       0.00434964       0.00615132      -0.00000000
In       1.67265642       5.07109834       2.04857737       13      -0.00434964       0.00307566      -0.00532720
In       4.42213623       0.00000000      -0.00000000       14       0.00000000      -0.00000000      -0.00000000
In       1.47404541       2.08461501       3.61065911       15      -0.00000000      -0.00000000       0.00000000
O        0.86737742       4.16998760       3.92851016       16      -0.00420953      -0.01622752       0.03359356
O       -2.08071341       3.40181082       5.25640707       17      -0.00420953       0.03720663      -0.00274334
O       -0.43368972       2.23718920       0.05227265       18       0.01837612       0.02123616       0.02491833
O       -0.86737742      -0.76666164       1.96359900       19       0.00420953       0.02097911       0.03085022
O        3.90082913       4.96607130       1.91132635       20       0.03648193      -0.00659251       0.00593189
O        1.99535252       2.91239349       1.64574796       21      -0.03648193      -0.00843343      -0.00274334
O        1.99535252       6.22290784       0.26557839       22      -0.03648193       0.00184092       0.00867523
O       -2.25380545       5.91700190       3.66293177       23      -0.01389627      -0.02440389       0.02491833
O        3.38178054       1.93204083       7.16904557       24      -0.01837612      -0.02123616      -0.02491833
O        5.20189627      -1.74777187       3.55838646       25       0.01389627       0.02440389      -0.02491833
O        6.32987136       3.24847906       1.69933276       26      -0.01837612       0.03219799      -0.00593189
O        3.64237620       2.29830603       3.87623751       27      -0.01389627       0.03378185       0.00867523
O        0.69428538       4.29238215       6.90346718       28      -0.01389627      -0.00937796      -0.03359356
O        2.25380544      -0.12315212       0.31785104       29       0.01389627       0.00937796       0.03359356
O       -3.38178054       0.92075097       5.52198547       30       0.01837612      -0.03219799       0.00593189
O        5.02880422       0.76741921       1.96491115       31       0.00420953      -0.03720663       0.00274334
O        0.95273830       1.25683654       5.57557027       32       0.03648193       0.00843343       0.00274334
O        3.38178054      -1.01128986       5.57425812       33      -0.01837612      -0.01096182       0.03085022
O        2.08071340      -0.00075757       3.29280807       34       0.00420953       0.01622752      -0.03359356
O        0.95273830      -2.05367781       6.95573984       35       0.03648193      -0.00184092      -0.00867523
O       -0.69428538       1.87092400       3.34508072       36       0.01389627      -0.03378185      -0.00867523
O       -0.95273831      -0.79684127       5.30999188       37      -0.03648193       0.00659251      -0.00593189
O       -0.43368972       5.18051989       1.64706011       38       0.01837612       0.01096182      -0.03085022
O        3.81546824       4.93589167       5.25771922       39      -0.00420953      -0.02097911      -0.03085022
40
Lattice="8.844272468189212 6.931868198407131e-10 4.7667174436675145e-15 -2.9480908233832794 8.338460048993033 -1.200637616936263e-09 -2.9480908224029734 -4.169230023803331 7.221318231670031" Properties=species:S:1:pos:R:3:spacegroup_kinds:I:1:forces:R:3 spacegroup="P 1" unit_cell=conventional occupancy="_JSON {\"0\": {\"In\": 1}, \"1\": {\"In\": 1}, \"2\": {\"In\": 1}, \"3\": {\"In\": 1}, \"4\": {\"In\": 1}, \"5\": {\"In\": 1}, \"6\": {\"In\": 1}, \"7\": {\"In\": 1}, \"8\": {\"In\": 1}, \"9\": {\"In\": 1}, \"10\": {\"In\": 1}, \"11\": {\"In\": 1}, \"12\": {\"In\": 1}, \"13\": {\"In\": 1}, \"14\": {\"In\": 1}, \"15\": {\"In\": 1}, \"16\": {\"O\": 1}, \"17\": {\"O\": 1}, \"18\": {\"O\": 1}, \"19\": {\"O\": 1}, \"20\": {\"O\": 1}, \"21\": {\"O\": 1}, \"22\": {\"O\": 1}, \"23\": {\"O\": 1}, \"24\": {\"O\": 1}, \"25\": {\"O\": 1}, \"26\": {\"O\": 1}, \"27\": {\"O\": 1}, \"28\": {\"O\": 1}, \"29\": {\"O\": 1}, \"30\": {\"O\": 1}, \"31\": {\"O\": 1}, \"32\": {\"O\": 1}, \"33\": {\"O\": 1}, \"34\": {\"O\": 1}, \"35\": {\"O\": 1}, \"36\": {\"O\": 1}, \"37\": {\"O\": 1}, \"38\": {\"O\": 1}, \"39\": {\"O\": 1}}" n_minim_iter=2 energy=-45151.66586161882 stress="-0.014760463895078013 8.746776591451092e-13 -2.3538509363944695e-13 8.746776591451092e-13 -0.014760463895240678 -2.388951209191855e-13 -2.3538509363944695e-13 -2.388951209191855e-13 -0.01476046389430316" free_energy=-45151.66586161882 pbc="T T T"
In      -4.22383591       2.98670302       5.65885597        0       0.00824631      -0.00583102       0.01009963
In       7.17192673       1.18252701       1.56246225        1      -0.00824631       0.00583102      -0.01009963
In       1.27574509      -0.90208800       5.17312137        2      -0.00824631       0.00583102      -0.01009963
In      -1.47404541      -2.08461501       3.61065911        3      -0.00000000      -0.00000000       0.00000000
In      -1.27574509       4.02901052       3.36779181        4       0.00824631      -0.00583102      -0.01009963
In       4.62043656      -2.84648351       5.41598867        5       0.00824631       0.01166205      -0.00000000
In      -1.27574509       1.32274651       5.41598867        6       0.00824631       0.01166205       0.00000000
In      -1.67234574       7.01571354       1.80532955        7      -0.00824631      -0.01166205      -0.00000000
In       4.22383591       0.14021951       3.85352642        8      -0.00824631       0.00583102       0.01009963
In      -1.47404541       4.16923003      -0.00000000        9      -0.00000000       0.00000000       0.00000000
In       4.22383591       6.39406454       0.24286730       10      -0.00824631       0.00583102       0.01009963
In      -1.27574509      -2.22483451       6.97845093       11       0.00824631      -0.00583102      -0.01009963
In       4.22383591       2.84648351       1.80532956       12      -0.00824631      -0.01166205      -0.00000000
In       1.67234573       5.07131803       2.04819686       13       0.00824631      -0.00583102       0.01009963
In       4.42213623       0.00000000      -0.00000000       14       0.00000000       0.00000000       0.00000000
In       1.47404541       2.08461501       3.61065911       15      -0.00000000       0.00000000      -0.00000000
O        0.86707674       4.16882849       3.93090970       16      -0.00953263      -0.00517791       0.00649595
O       -2.08101409       3.40446843       5.25621112       17      -0.00953263       0.00821461       0.00123622
O       -0.43237714       2.23870607       0.05405253       18      -0.00031451       0.00169642       0.01252607
O       -0.86707674      -0.76516313       1.96580259       19       0.00953263       0.00303671       0.00773218
O        3.90343498       4.96560040       1.91175006       20       0.01092236       0.00419523      -0.00479390
O        1.99274666       2.91179110       1.64555201       21      -0.01092236       0.00624925       0.00123622
O        1.99274666       6.22303933       0.26619805       22      -0.01092236      -0.00205402      -0.00603012
O       -2.25479804       5.91525876       3.66471165       23      -0.00170423      -0.00026895       0.01252607
O        3.38046796       1.93052396       7.16726569       24       0.00031451      -0.00169642      -0.01252607
O        5.20288886      -1.74602873       3.55660658       25       0.00170423       0.00026895      -0.01252607
O        6.32855878       3.25077892       1.69890905       26       0.00031451       0.01169610       0.00479390
O        3.64138361       2.30071902       3.87685716       27      -0.00170423       0.01098237      -0.00603012
O        0.69329278       4.29171230       6.90106764       28      -0.00170423      -0.01071342      -0.00649595
O        2.25479803      -0.12248227       0.32025058       29       0.00170423       0.01071342       0.00649595
O       -3.38046796       0.91845111       5.52240917       30      -0.00031451      -0.01169610      -0.00479390
O        5.02910491       0.76476160       1.96510711       31       0.00953263      -0.00821461      -0.00123622
O        0.95534416       1.25743893       5.57576622       32       0.01092236      -0.00624925      -0.00123622
O        3.38046796      -1.01207284       5.57646171       33       0.00031451      -0.00999969       0.00773218
O        2.08101408       0.00040154       3.29040853       34       0.00953263       0.00517791      -0.00649595
O        0.95534416      -2.05380930       6.95512018       35       0.01092236       0.00205402       0.00603012
O       -0.69329279       1.86851101       3.34446106       36       0.00170423      -0.01098237       0.00603012
O       -0.95534416      -0.79637038       5.30956817       37      -0.01092236      -0.00419523       0.00479390
O       -0.43237714       5.18130287       1.64485652       38      -0.00031451       0.00999969      -0.00773218
O        3.81516756       4.93439316       5.25551563       39      -0.00953263      -0.00303671      -0.00773218
40
Lattice="8.844272468189212 6.931868198407132e-10 4.766717443667519e-15 -2.94809082338328 8.338460048993033 -1.2006376169362633e-09 -2.948090822402974 -4.169230023803331 7.221318231670033" Properties=species:S:1:pos:R:3:spacegroup_kinds:I:1:forces:R:3 spacegroup="P 1" unit_cell=conventional occupancy="_JSON {\"0\": {\"In\": 1}, \"1\": {\"In\": 1}, \"2\": {\"In\": 1}, \"3\": {\"In\": 1}, \"4\": {\"In\": 1}, \"5\": {\"In\": 1}, \"6\": {\"In\": 1}, \"7\": {\"In\": 1}, \"8\": {\"In\": 1}, \"9\": {\"In\": 1}, \"10\": {\"In\": 1}, \"11\": {\"In\": 1}, \"12\": {\"In\": 1}, \"13\": {\"In\": 1}, \"14\": {\"In\": 1}, \"15\": {\"In\": 1}, \"16\": {\"O\": 1}, \"17\": {\"O\": 1}, \"18\": {\"O\": 1}, \"19\": {\"O\": 1}, \"20\": {\"O\": 1}, \"21\": {\"O\": 1}, \"22\": {\"O\": 1}, \"23\": {\"O\": 1}, \"24\": {\"O\": 1}, \"25\": {\"O\": 1}, \"26\": {\"O\": 1}, \"27\": {\"O\": 1}, \"28\": {\"O\": 1}, \"29\": {\"O\": 1}, \"30\": {\"O\": 1}, \"31\": {\"O\": 1}, \"32\": {\"O\": 1}, \"33\": {\"O\": 1}, \"34\": {\"O\": 1}, \"35\": {\"O\": 1}, \"36\": {\"O\": 1}, \"37\": {\"O\": 1}, \"38\": {\"O\": 1}, \"39\": {\"O\": 1}}" n_minim_iter=3 energy=-45151.66602450562 stress="-0.01471891495688637 -9.731700211062512e-13 -3.705725320262937e-13 -9.731700211062512e-13 -0.014718914956513562 2.312705002783848e-13 -3.705725320262937e-13 2.312705002783848e-13 -0.014718914956277071" free_energy=-45151.66602450562 pbc="T T T"
In      -4.22376473       2.98665268       5.65894316        0       0.00935775      -0.00661693       0.01146086
In       7.17185555       1.18257735       1.56237507        1      -0.00935775       0.00661693      -0.01146086
In       1.27567390      -0.90203767       5.17303419        2      -0.00935775       0.00661693      -0.01146086
In      -1.47404541      -2.08461501       3.61065911        3       0.00000000       0.00000000      -0.00000000
In      -1.27567391       4.02896019       3.36770463        4       0.00935775      -0.00661693      -0.01146086
In       4.62050774      -2.84638284       5.41598867        5       0.00935775       0.01323386      -0.00000000
In      -1.27567391       1.32284718       5.41598867        6       0.00935775       0.01323386      -0.00000000
In      -1.67241692       7.01561287       1.80532955        7      -0.00935775      -0.01323386       0.00000000
In       4.22376473       0.14026984       3.85361360        8      -0.00935775       0.00661693       0.01146086
In      -1.47404541       4.16923003      -0.00000000        9       0.00000000      -0.00000000       0.00000000
In       4.22376473       6.39411488       0.24295448       10      -0.00935775       0.00661693       0.01146086
In      -1.27567391      -2.22488485       6.97836374       11       0.00935775      -0.00661693      -0.01146086
In       4.22376473       2.84638285       1.80532956       12      -0.00935775      -0.01323386       0.00000000
In       1.67241692       5.07126770       2.04828404       13       0.00935775      -0.00661693       0.01146086
In       4.42213623       0.00000000      -0.00000000       14      -0.00000000       0.00000000       0.00000000
In       1.47404541       2.08461501       3.61065911       15       0.00000000      -0.00000000      -0.00000000
O        0.86683262       4.16845167       3.93161430       16      -0.00962243      -0.00093496       0.00019821
O       -2.08125820       3.40526704       5.25618516       17      -0.00962243       0.00063914       0.00071059
O       -0.43206085       2.23910841       0.05471293       18      -0.00348638      -0.00369971       0.00822569
O       -0.86683263      -0.76474134       1.96648123       19       0.00962243      -0.00029582       0.00090880
O        3.90426929       4.96555989       1.91176829       20       0.00381006       0.00504492      -0.00731688
O        1.99191236       2.91175505       1.64552604       21      -0.00381006       0.00885907       0.00071059
O        1.99191235       6.22303487       0.26624225       22      -0.00381006      -0.00381415      -0.00802747
O       -2.25507194       5.91482644       3.66537204       23       0.00232599       0.00452022       0.00822569
O        3.38015166       1.93012162       7.16660530       24       0.00348638       0.00369971      -0.00822569
O        5.20316275      -1.74559641       3.55594618       25      -0.00232599      -0.00452022      -0.00822569
O        6.32824249       3.25155201       1.69889082       26       0.00348638       0.00527380       0.00731688
O        3.64110971       2.30150710       3.87690137       27       0.00232599       0.00486354      -0.00802747
O        0.69301889       4.29135654       6.90036304       28       0.00232599      -0.00938377      -0.00019821
O        2.25507193      -0.12212651       0.32095518       29      -0.00232599       0.00938377       0.00019821
O       -3.38015167       0.91767802       5.52242741       30      -0.00348638      -0.00527380      -0.00731688
O        5.02934902       0.76396299       1.96513307       31       0.00962243      -0.00063914      -0.00071059
O        0.95617846       1.25747498       5.57579218       32       0.00381006      -0.00885907      -0.00071059
O        3.38015166      -1.01244359       5.57714034       33       0.00348638      -0.00897351       0.00090880
O        2.08125820       0.00077836       3.28970393       34       0.00962243       0.00093496      -0.00019821
O        0.95617846      -2.05380484       6.95507597       35       0.00381006       0.00381415       0.00802747
O       -0.69301889       1.86772293       3.34441686       36      -0.00232599      -0.00486354       0.00802747
O       -0.95617847      -0.79632987       5.30954993       37      -0.00381006      -0.00504492       0.00731688
O       -0.43206085       5.18167362       1.64417788       38      -0.00348638       0.00897351      -0.00090880
O        3.81492344       4.93397137       5.25483700       39      -0.00962243       0.00029582      -0.00090880
40
Lattice="8.844272468189216 6.931868198407136e-10 4.766717443667514e-15 -2.9480908233832817 8.338460048993037 -1.200637616936264e-09 -2.9480908224029756 -4.169230023803332 7.221318231670036" Properties=species:S:1:pos:R:3:spacegroup_kinds:I:1:forces:R:3 spacegroup="P 1" unit_cell=conventional occupancy="_JSON {\"0\": {\"In\": 1}, \"1\": {\"In\": 1}, \"2\": {\"In\": 1}, \"3\": {\"In\": 1}, \"4\": {\"In\": 1}, \"5\": {\"In\": 1}, \"6\": {\"In\": 1}, \"7\": {\"In\": 1}, \"8\": {\"In\": 1}, \"9\": {\"In\": 1}, \"10\": {\"In\": 1}, \"11\": {\"In\": 1}, \"12\": {\"In\": 1}, \"13\": {\"In\": 1}, \"14\": {\"In\": 1}, \"15\": {\"In\": 1}, \"16\": {\"O\": 1}, \"17\": {\"O\": 1}, \"18\": {\"O\": 1}, \"19\": {\"O\": 1}, \"20\": {\"O\": 1}, \"21\": {\"O\": 1}, \"22\": {\"O\": 1}, \"23\": {\"O\": 1}, \"24\": {\"O\": 1}, \"25\": {\"O\": 1}, \"26\": {\"O\": 1}, \"27\": {\"O\": 1}, \"28\": {\"O\": 1}, \"29\": {\"O\": 1}, \"30\": {\"O\": 1}, \"31\": {\"O\": 1}, \"32\": {\"O\": 1}, \"33\": {\"O\": 1}, \"34\": {\"O\": 1}, \"35\": {\"O\": 1}, \"36\": {\"O\": 1}, \"37\": {\"O\": 1}, \"38\": {\"O\": 1}, \"39\": {\"O\": 1}}" n_minim_iter=4 energy=-45151.66619233074 stress="-0.014654115581220732 1.9295143427560852e-13 4.3674395739563826e-13 1.9295143427560852e-13 -0.01465411558002603 6.988575429035794e-13 4.3674395739563826e-13 6.988575429035794e-13 -0.014654115581550256" free_energy=-45151.66619233074 pbc="T T T"
In      -4.22330416       2.98632701       5.65950723        0       0.00513728      -0.00363260       0.00629185
In       7.17139498       1.18290302       1.56181099        1      -0.00513728       0.00363260      -0.00629185
In       1.27521334      -0.90171200       5.17247011        2      -0.00513728       0.00363260      -0.00629185
In      -1.47404541      -2.08461501       3.61065911        3      -0.00000000       0.00000000       0.00000000
In      -1.27521334       4.02863452       3.36714055        4       0.00513728      -0.00363260      -0.00629185
In       4.62096831      -2.84573150       5.41598867        5       0.00513728       0.00726521      -0.00000000
In      -1.27521334       1.32349852       5.41598867        6       0.00513728       0.00726521       0.00000000
In      -1.67287749       7.01496153       1.80532955        7      -0.00513728      -0.00726521       0.00000000
In       4.22330416       0.14059551       3.85417768        8      -0.00513728       0.00363260       0.00629185
In      -1.47404541       4.16923003      -0.00000000        9       0.00000000       0.00000000      -0.00000000
In       4.22330416       6.39444055       0.24351856       10      -0.00513728       0.00363260       0.00629185
In      -1.27521334      -2.22521052       6.97779967       11       0.00513728      -0.00363260      -0.00629185
In       4.22330416       2.84573151       1.80532956       12      -0.00513728      -0.00726521      -0.00000000
In       1.67287748       5.07094203       2.04884812       13       0.00513728      -0.00363260       0.00629185
In       4.42213623       0.00000000      -0.00000000       14      -0.00000000      -0.00000000      -0.00000000
In       1.47404541       2.08461501       3.61065911       15       0.00000000      -0.00000000       0.00000000
O        0.86612310       4.16791383       3.93257683       16      -0.00624470       0.00619803      -0.00483142
O       -2.08196772       3.40636955       5.25616967       17      -0.00624470      -0.00728315      -0.00295194
O       -0.43176499       2.23950000       0.05592878       18      -0.00310463      -0.00950352       0.00089385
O       -0.86612311      -0.76417668       1.96742828       19       0.00624470      -0.00108512      -0.00778336
O        3.90554524       4.96569721       1.91149950       20      -0.00478505       0.00160118      -0.00867721
O        1.99063640       2.91205649       1.64551056       21       0.00478505       0.00831528      -0.00295194
O        1.99063640       6.22287074       0.26598894       22       0.00478505      -0.00671409      -0.00572527
O       -2.25534251       5.91441697       3.66658789       23       0.00792512       0.00609491       0.00089385
O        3.37985581       1.92973003       7.16538945       24       0.00310463       0.00950352      -0.00089385
O        5.20343333      -1.74518694       3.55473033       25      -0.00792512      -0.00609491      -0.00089385
O        6.32794663       3.25280076       1.69915961       26       0.00310463      -0.00397766       0.00867721
O        3.64083913       2.30276479       3.87664805       27       0.00792512      -0.00227336      -0.00572527
O        0.69274831       4.29050832       6.89940051       28       0.00792512      -0.00382155       0.00483142
O        2.25534251      -0.12127829       0.32191772       29      -0.00792512       0.00382155      -0.00483142
O       -3.37985581       0.91642927       5.52215862       30      -0.00310463       0.00397766      -0.00867721
O        5.03005854       0.76286048       1.96514855       31       0.00624470       0.00728315       0.00295194
O        0.95745442       1.25717354       5.57580767       32      -0.00478505      -0.00831528       0.00295194
O        3.37985581      -1.01330075       5.57808740       33       0.00310463      -0.00552585      -0.00778336
O        2.08196772       0.00131620       3.28874139       34       0.00624470      -0.00619803       0.00483142
O        0.95745442      -2.05364072       6.95532929       35      -0.00478505       0.00671409       0.00572527
O       -0.69274831       1.86646524       3.34467017       36      -0.00792512       0.00227336       0.00572527
O       -0.95745442      -0.79646718       5.30981873       37       0.00478505      -0.00160118       0.00867721
O       -0.43176499       5.18253078       1.64323083       38      -0.00310463       0.00552585       0.00778336
O        3.81421393       4.93340671       5.25388995       39      -0.00624470       0.00108512       0.00778336
40
Lattice="8.84427246818922 6.931868198407139e-10 4.766717443667542e-15 -2.948090823383283 8.33846004899304 -1.2006376169362645e-09 -2.948090822402977 -4.169230023803334 7.22131823167004" Properties=species:S:1:pos:R:3:spacegroup_kinds:I:1:forces:R:3 spacegroup="P 1" unit_cell=conventional occupancy="_JSON {\"0\": {\"In\": 1}, \"1\": {\"In\": 1}, \"2\": {\"In\": 1}, \"3\": {\"In\": 1}, \"4\": {\"In\": 1}, \"5\": {\"In\": 1}, \"6\": {\"In\": 1}, \"7\": {\"In\": 1}, \"8\": {\"In\": 1}, \"9\": {\"In\": 1}, \"10\": {\"In\": 1}, \"11\": {\"In\": 1}, \"12\": {\"In\": 1}, \"13\": {\"In\": 1}, \"14\": {\"In\": 1}, \"15\": {\"In\": 1}, \"16\": {\"O\": 1}, \"17\": {\"O\": 1}, \"18\": {\"O\": 1}, \"19\": {\"O\": 1}, \"20\": {\"O\": 1}, \"21\": {\"O\": 1}, \"22\": {\"O\": 1}, \"23\": {\"O\": 1}, \"24\": {\"O\": 1}, \"25\": {\"O\": 1}, \"26\": {\"O\": 1}, \"27\": {\"O\": 1}, \"28\": {\"O\": 1}, \"29\": {\"O\": 1}, \"30\": {\"O\": 1}, \"31\": {\"O\": 1}, \"32\": {\"O\": 1}, \"33\": {\"O\": 1}, \"34\": {\"O\": 1}, \"35\": {\"O\": 1}, \"36\": {\"O\": 1}, \"37\": {\"O\": 1}, \"38\": {\"O\": 1}, \"39\": {\"O\": 1}}" n_minim_iter=5 energy=-45151.666293557886 stress="-0.014665401953107914 2.35783898782057e-13 -1.5334089004048754e-14 2.35783898782057e-13 -0.014665401951749311 -1.6801433424739362e-13 -1.5334089004048754e-14 -1.6801433424739362e-13 -0.014665401950044944" free_energy=-45151.666293557886 pbc="T T T"
In      -4.22292822       2.98606118       5.65996766        0      -0.00183013       0.00129410      -0.00224145
In       7.17101904       1.18316885       1.56135056        1       0.00183013      -0.00129410       0.00224145
In       1.27483740      -0.90144617       5.17200968        2       0.00183013      -0.00129410       0.00224145
In      -1.47404541      -2.08461501       3.61065911        3      -0.00000000       0.00000000      -0.00000000
In      -1.27483740       4.02836869       3.36668012        4      -0.00183013       0.00129410       0.00224145
In       4.62134425      -2.84519984       5.41598867        5      -0.00183013      -0.00258820       0.00000000
In      -1.27483740       1.32403018       5.41598867        6      -0.00183013      -0.00258820      -0.00000000
In      -1.67325343       7.01442987       1.80532955        7       0.00183013       0.00258820      -0.00000000
In       4.22292822       0.14086134       3.85463811        8       0.00183013      -0.00129410      -0.00224145
In      -1.47404541       4.16923003      -0.00000000        9      -0.00000000       0.00000000       0.00000000
In       4.22292822       6.39470638       0.24397899       10       0.00183013      -0.00129410      -0.00224145
In      -1.27483740      -2.22547635       6.97733924       11      -0.00183013       0.00129410       0.00224145
In       4.22292822       2.84519985       1.80532956       12       0.00183013       0.00258820       0.00000000
In       1.67325342       5.07067620       2.04930855       13      -0.00183013       0.00129410      -0.00224145
In       4.42213623       0.00000000      -0.00000000       14       0.00000000      -0.00000000      -0.00000000
In       1.47404541       2.08461501       3.61065911       15      -0.00000000       0.00000000       0.00000000
O        0.86576082       4.16817689       3.93223151       16      -0.00192464       0.00391341       0.00207628
O       -2.08233000       3.40593895       5.25611452       17      -0.00192464      -0.00015859      -0.00442726
O       -0.43204369       2.23901032       0.05597598       18       0.00289853      -0.00356909       0.00147989
O       -0.86576083      -0.76434421       1.96702780       19       0.00192464       0.00375482      -0.00235098
O        3.90526004       4.96589198       1.91105182       20       0.00049202      -0.00290040      -0.00383087
O        1.99092161       2.91254158       1.64545540       21      -0.00049202       0.00186743      -0.00442726
O        1.99092161       6.22258043       0.26559641       22      -0.00049202      -0.00476783       0.00059639
O       -2.25497373       5.91484297       3.66663509       23       0.00433115      -0.00154307       0.00147989
O        3.38013451       1.93021971       7.16534225       24      -0.00289853       0.00356909      -0.00147989
O        5.20306455      -1.74561294       3.55468314       25      -0.00433115       0.00154307      -0.00147989
O        6.32822534       3.25259679       1.69960729       26      -0.00289853      -0.00050292       0.00383087
O        3.64120791       2.30259267       3.87625553       27       0.00433115       0.00205316       0.00059639
O        0.69311709       4.29025444       6.89974583       28       0.00433115      -0.00051009      -0.00207628
O        2.25497373      -0.12102442       0.32157239       29      -0.00433115       0.00051009       0.00207628
O       -3.38013452       0.91663324       5.52171094       30       0.00289853       0.00050292      -0.00383087
O        5.03042082       0.76329107       1.96520371       31       0.00192464       0.00015859       0.00442726
O        0.95716921       1.25668845       5.57586282       32       0.00049202      -0.00186743       0.00442726
O        3.38013451      -1.01358647       5.57768691       33      -0.00289853      -0.00306617      -0.00235098
O        2.08233000       0.00105314       3.28908672       34       0.00192464      -0.00391341      -0.00207628
O        0.95716921      -2.05335040       6.95572181       35       0.00049202       0.00476783      -0.00059639
O       -0.69311709       1.86663736       3.34506270       36      -0.00433115      -0.00205316      -0.00059639
O       -0.95716922      -0.79666196       5.31026641       37      -0.00049202       0.00290040       0.00383087
O       -0.43204369       5.18281650       1.64363131       38       0.00289853       0.00306617       0.00235098
O        3.81385165       4.93357424       5.25429043       39      -0.00192464      -0.00375482       0.00235098
