40
Lattice="9.41181099421069 7.376652239825917e-10 2.7750259930694365e-14 -3.137270332099043 8.873540502757422 -1.2776892702974174e-09 -3.137270331055846 -4.436770250641041 7.68471149774984" Properties=species:S:1:pos:R:3:spacegroup_kinds:I:1:forces:R:3 spacegroup="P 1" unit_cell=conventional occupancy="_JSON {\"0\": {\"In\": 1}, \"1\": {\"In\": 1}, \"2\": {\"In\": 1}, \"3\": {\"In\": 1}, \"4\": {\"In\": 1}, \"5\": {\"In\": 1}, \"6\": {\"In\": 1}, \"7\": {\"In\": 1}, \"8\": {\"In\": 1}, \"9\": {\"In\": 1}, \"10\": {\"In\": 1}, \"11\": {\"In\": 1}, \"12\": {\"In\": 1}, \"13\": {\"In\": 1}, \"14\": {\"In\": 1}, \"15\": {\"In\": 1}, \"16\": {\"O\": 1}, \"17\": {\"O\": 1}, \"18\": {\"O\": 1}, \"19\": {\"O\": 1}, \"20\": {\"O\": 1}, \"21\": {\"O\": 1}, \"22\": {\"O\": 1}, \"23\": {\"O\": 1}, \"24\": {\"O\": 1}, \"25\": {\"O\": 1}, \"26\": {\"O\": 1}, \"27\": {\"O\": 1}, \"28\": {\"O\": 1}, \"29\": {\"O\": 1}, \"30\": {\"O\": 1}, \"31\": {\"O\": 1}, \"32\": {\"O\": 1}, \"33\": {\"O\": 1}, \"34\": {\"O\": 1}, \"35\": {\"O\": 1}, \"36\": {\"O\": 1}, \"37\": {\"O\": 1}, \"38\": {\"O\": 1}, \"39\": {\"O\": 1}}" n_minim_iter=3 energy=-45148.09163486238 stress="0.08432422255777339 2.9412051709378985e-13 4.1324919387137217e-13 2.9412051709378985e-13 0.08432422255819122 2.4391268969265174e-13 4.1324919387137217e-13 2.4391268969265174e-13 0.08432422255792071" free_energy=-45148.09163486238 pbc="T T T"
In      -4.48067190       3.16831348       6.03938732        0      -0.00029657       0.00020971      -0.00036322
In       7.61794222       1.26845677       1.64532417        1       0.00029657      -0.00020971       0.00036322
In       1.34340156      -0.94992835       5.48767992        2       0.00029657      -0.00020971       0.00036322
In      -1.56863517      -2.21838512       3.84235575        3      -0.00000000      -0.00000000       0.00000000
In      -1.34340156       4.27750605       3.56650205        4      -0.00029657       0.00020971       0.00036322
In       4.93113910      -3.00904927       5.76353362        5      -0.00029657      -0.00041941      -0.00000000
In      -1.34340156       1.42772098       5.76353362        6      -0.00029657      -0.00041941      -0.00000000
In      -1.79386877       7.44581953       1.92117787        7       0.00029657       0.00041941       0.00000000
In       4.48067189       0.15926421       4.11820945        8       0.00029657      -0.00020971      -0.00036322
In      -1.56863517       4.43677025      -0.00000000        9       0.00000000       0.00000000      -0.00000000
In       4.48067189       6.81441959       0.27585370       10       0.00029657      -0.00020971      -0.00036322
In      -1.34340156      -2.37764933       7.40885780       11      -0.00029657       0.00020971       0.00036322
In       4.48067189       3.00904927       1.92117787       12       0.00029657       0.00041941       0.00000000
In       1.79386877       5.38669861       2.19703157       13      -0.00029657       0.00020971      -0.00036322
In       4.70590550       0.00000000      -0.00000000       14      -0.00000000       0.00000000       0.00000000
In       1.56863516       2.21838513       3.84235575       15      -0.00000000       0.00000000      -0.00000000
O        0.95580359       4.44604086       4.15794155       16       0.00853764      -0.00285429       0.00165917
O       -2.18146674       3.59624771       5.59771214       17       0.00853764       0.00286403       0.00164230
O       -0.46511065       2.38260067       0.01509897       18       0.00285506       0.00688222      -0.00531740
O       -0.95580359      -0.83125194       2.07094219       19      -0.00853764       0.00000974       0.00330147
O        4.11773043       5.27673959       2.05584322       20      -0.00014565      -0.00307974       0.00861888
O        2.15681023       3.07634246       1.75535639       21       0.00014565      -0.00900404       0.00164230
O        2.15681023       6.63716738       0.30048683       22       0.00014565       0.00592430       0.00697657
O       -2.40137434       6.29946568       3.85745471       23      -0.00553693      -0.00498585      -0.00531740
O        3.60238098       2.05416958       7.66961253       24      -0.00285506      -0.00688222       0.00531740
O        5.53864467      -1.86269542       3.82725678       25       0.00553693       0.00498585       0.00531740
O        6.73965131       3.42276155       1.78651252       26      -0.00285506      -0.00116390      -0.00861888
O        3.87316632       2.40930607       4.14284258       27      -0.00553693      -0.00211208       0.00697657
O        0.73589599       4.60153901       7.36912569       28      -0.00553693       0.00709793      -0.00165917
O        2.40137434      -0.16476876       0.31558580       29       0.00553693      -0.00709793       0.00165917
O       -3.60238098       1.01400870       5.89819897       30       0.00285506       0.00116390       0.00861888
O        5.31873707       0.84052255       2.08699935       31      -0.00853764      -0.00286403      -0.00164230
O        0.98046010       1.36042779       5.92935510       32      -0.00014565       0.00900404      -0.00164230
O        3.60238098      -1.04016088       5.91329794       33      -0.00285506       0.00804612       0.00330147
O        2.18146674      -0.00927061       3.52676995       34      -0.00853764       0.00285429      -0.00165917
O        0.98046010      -2.20039712       7.38422466       35      -0.00014565      -0.00592430      -0.00697657
O       -0.73589600       2.02746419       3.54186891       36       0.00553693       0.00211208      -0.00697657
O       -0.98046010      -0.83996933       5.62886827       37       0.00014565       0.00307974      -0.00861888
O       -0.46511065       5.47693113       1.77141355       38       0.00285506      -0.00804612      -0.00330147
O        4.09307392       5.26802219       5.61376930       39       0.00853764      -0.00000974      -0.00330147
