40
Lattice="8.611419473569077 6.749320295927542e-10 1.2672827626415874e-14 -2.870473158492692 8.1189241403118 -1.1690390659444328e-09 -2.870473157538201 -4.0594620694809525 7.031194557688103" Properties=species:S:1:pos:R:3:spacegroup_kinds:I:1:forces:R:3 spacegroup="P 1" unit_cell=conventional occupancy="_JSON {\"0\": {\"In\": 1}, \"1\": {\"In\": 1}, \"2\": {\"In\": 1}, \"3\": {\"In\": 1}, \"4\": {\"In\": 1}, \"5\": {\"In\": 1}, \"6\": {\"In\": 1}, \"7\": {\"In\": 1}, \"8\": {\"In\": 1}, \"9\": {\"In\": 1}, \"10\": {\"In\": 1}, \"11\": {\"In\": 1}, \"12\": {\"In\": 1}, \"13\": {\"In\": 1}, \"14\": {\"In\": 1}, \"15\": {\"In\": 1}, \"16\": {\"O\": 1}, \"17\": {\"O\": 1}, \"18\": {\"O\": 1}, \"19\": {\"O\": 1}, \"20\": {\"O\": 1}, \"21\": {\"O\": 1}, \"22\": {\"O\": 1}, \"23\": {\"O\": 1}, \"24\": {\"O\": 1}, \"25\": {\"O\": 1}, \"26\": {\"O\": 1}, \"27\": {\"O\": 1}, \"28\": {\"O\": 1}, \"29\": {\"O\": 1}, \"30\": {\"O\": 1}, \"31\": {\"O\": 1}, \"32\": {\"O\": 1}, \"33\": {\"O\": 1}, \"34\": {\"O\": 1}, \"35\": {\"O\": 1}, \"36\": {\"O\": 1}, \"37\": {\"O\": 1}, \"38\": {\"O\": 1}, \"39\": {\"O\": 1}}" n_minim_iter=1 energy=-45149.92256398765 stress="-0.08159021989178095 5.245431089111402e-13 3.025794517674264e-13 5.245431089111402e-13 -0.08159021989212771 4.741016069758142e-13 3.025794517674264e-13 4.741016069758142e-13 -0.08159021989190034" free_energy=-45149.92256398765 pbc="T T T"
In      -4.10704521       2.90411952       5.51670927        0      -0.01475643       0.01043437      -0.01807286
In       6.97751837       1.15534255       1.51448528        1       0.01475643      -0.01043437       0.01807286
In       1.23657205      -0.87438848       5.03008256        2       0.01475643      -0.01043437       0.01807286
In      -1.43523658      -2.02973103       3.51559728        3      -0.00000000      -0.00000000       0.00000000
In      -1.23657206       3.91898504       3.27228392        4      -0.01475643       0.01043437       0.01807286
In       4.50437426      -2.76364248       5.27339592        5      -0.01475643      -0.02086875       0.00000000
In      -1.23657205       1.29581959       5.27339592        6      -0.01475643      -0.02086875      -0.00000000
In      -1.63390111       6.82310456       1.75779864        7       0.01475643       0.02086875      -0.00000000
In       4.10704521       0.14047704       3.75891064        8       0.01475643      -0.01043437      -0.01807286
In      -1.43523658       4.05946207      -0.00000000        9       0.00000000       0.00000000      -0.00000000
In       4.10704521       6.22967014       0.24331336       10       0.01475643      -0.01043437      -0.01807286
In      -1.23657205      -2.17020807       6.78788120       11      -0.01475643       0.01043437       0.01807286
In       4.10704521       2.76364249       1.75779864       12       0.01475643       0.02086875      -0.00000000
In       1.63390110       4.93385056       2.00111200       13      -0.01475643       0.01043437      -0.01807286
In       4.30570974       0.00000000      -0.00000000       14      -0.00000000       0.00000000      -0.00000000
In       1.43523658       2.02973104       3.51559728       15      -0.00000000       0.00000000      -0.00000000
O        0.83956149       4.05806164       3.83960394       16       0.00127411      -0.01001936       0.02920161
O       -2.03091167       3.32589477       5.11260539       17       0.00127411       0.03029902      -0.00592378
O       -0.41308040       2.18191530       0.06284139       18       0.01954455       0.01737987       0.01645285
O       -0.83956149      -0.73496773       1.92101477       19      -0.00127411       0.02027966       0.02327783
O        3.81265421       4.83071130       1.85817338       20       0.02814149      -0.01078060       0.00682499
O        1.92829210       2.83586133       1.59700811       21      -0.02814149      -0.01130091      -0.00592378
O        1.92829210       6.05431204       0.26116526       22      -0.02814149       0.00052031       0.01274877
O       -2.19482294       5.75134394       3.57843867       23      -0.00987105      -0.02422006       0.01645285
O        3.28355355       1.87754677       6.96835316       24      -0.01954455      -0.01737987      -0.01645285
O        5.06529609      -1.69188186       3.45275588       25       0.00987105       0.02422006      -0.01645285
O        6.15402671       3.17511093       1.65742389       26      -0.01954455       0.02293852      -0.00682499
O        3.54612338       2.25307787       3.77676254       27      -0.00987105       0.02635861       0.01274877
O        0.67565022       4.17396441       6.70718789       28      -0.00987105      -0.00213855      -0.02920161
O        2.19482294      -0.11450234       0.32400666       29       0.00987105       0.00213855       0.02920161
O       -3.28355355       0.88435114       5.37377066       30       0.01954455      -0.02293852       0.00682499
O        4.90138483       0.73356731       1.91858916       31      -0.00127411      -0.03029902       0.00592378
O        0.94218105       1.22360074       5.43418644       32       0.02814149       0.01130091       0.00592378
O        3.28355355      -0.99319563       5.43661205       33      -0.01954455      -0.00555865       0.02327783
O        2.03091167       0.00140043       3.19159062       34      -0.00127411       0.01001936      -0.02920161
O        0.94218105      -1.99484997       6.77002929       35       0.02814149      -0.00052031      -0.01274877
O       -0.67565022       1.80638421       3.25443201       36       0.00987105      -0.02635861      -0.01274877
O       -0.94218106      -0.77124923       5.17302117       37      -0.02814149       0.01078060      -0.00682499
O       -0.41308040       5.05265770       1.59458250       38       0.01954455       0.00555865      -0.02327783
O        3.71003465       4.79442981       5.11017978       39       0.00127411      -0.02027966      -0.02327783
40
Lattice="8.611419473569075 6.749320295927543e-10 1.2672827626415869e-14 -2.8704731584926924 8.118924140311798 -1.169039065944433e-09 -2.8704731575382016 -4.059462069480952 7.031194557688105" Properties=species:S:1:pos:R:3:spacegroup_kinds:I:1:forces:R:3 spacegroup="P 1" unit_cell=conventional occupancy="_JSON {\"0\": {\"In\": 1}, \"1\": {\"In\": 1}, \"2\": {\"In\": 1}, \"3\": {\"In\": 1}, \"4\": {\"In\": 1}, \"5\": {\"In\": 1}, \"6\": {\"In\": 1}, \"7\": {\"In\": 1}, \"8\": {\"In\": 1}, \"9\": {\"In\": 1}, \"10\": {\"In\": 1}, \"11\": {\"In\": 1}, \"12\": {\"In\": 1}, \"13\": {\"In\": 1}, \"14\": {\"In\": 1}, \"15\": {\"In\": 1}, \"16\": {\"O\": 1}, \"17\": {\"O\": 1}, \"18\": {\"O\": 1}, \"19\": {\"O\": 1}, \"20\": {\"O\": 1}, \"21\": {\"O\": 1}, \"22\": {\"O\": 1}, \"23\": {\"O\": 1}, \"24\": {\"O\": 1}, \"25\": {\"O\": 1}, \"26\": {\"O\": 1}, \"27\": {\"O\": 1}, \"28\": {\"O\": 1}, \"29\": {\"O\": 1}, \"30\": {\"O\": 1}, \"31\": {\"O\": 1}, \"32\": {\"O\": 1}, \"33\": {\"O\": 1}, \"34\": {\"O\": 1}, \"35\": {\"O\": 1}, \"36\": {\"O\": 1}, \"37\": {\"O\": 1}, \"38\": {\"O\": 1}, \"39\": {\"O\": 1}}" n_minim_iter=2 energy=-45149.92326577733 stress="-0.08145304536483734 -1.792812396845172e-13 1.5986749359496795e-13 -1.792812396845172e-13 -0.0814530453645233 1.0202308520561372e-12 1.5986749359496795e-13 1.0202308520561372e-12 -0.08145304536471525" free_energy=-45149.92326577733 pbc="T T T"
In      -4.10771949       2.90459630       5.51588346        0       0.00649599      -0.00459336       0.00795593
In       6.97819264       1.15486577       1.51531109        1      -0.00649599       0.00459336      -0.00795593
In       1.23724633      -0.87486527       5.03090837        2      -0.00649599       0.00459336      -0.00795593
In      -1.43523658      -2.02973103       3.51559728        3       0.00000000       0.00000000       0.00000000
In      -1.23724633       3.91946182       3.27310973        4       0.00649599      -0.00459336      -0.00795593
In       4.50369999      -2.76459605       5.27339592        5       0.00649599       0.00918672      -0.00000000
In      -1.23724633       1.29486602       5.27339592        6       0.00649599       0.00918672      -0.00000000
In      -1.63322683       6.82405812       1.75779864        7      -0.00649599      -0.00918672       0.00000000
In       4.10771948       0.14000025       3.75808482        8      -0.00649599       0.00459336       0.00795593
In      -1.43523658       4.05946207      -0.00000000        9       0.00000000       0.00000000       0.00000000
In       4.10771948       6.22919336       0.24248754       10      -0.00649599       0.00459336       0.00795593
In      -1.23724633      -2.16973128       6.78870701       11       0.00649599      -0.00459336      -0.00795593
In       4.10771948       2.76459605       1.75779864       12      -0.00649599      -0.00918672      -0.00000000
In       1.63322683       4.93432734       2.00028618       13       0.00649599      -0.00459336       0.00795593
In       4.30570974       0.00000000      -0.00000000       14       0.00000000       0.00000000       0.00000000
In       1.43523658       2.02973104       3.51559728       15       0.00000000      -0.00000000       0.00000000
O        0.83961971       4.05760382       3.84093826       16      -0.00916070      -0.01031315       0.00173515
O       -2.03085345       3.32727924       5.11233471       17      -0.00916070       0.00665926       0.00806387
O       -0.41218734       2.18270945       0.06359318       18      -0.00649849       0.00477679       0.01132440
O       -0.83961971      -0.73404108       1.92207842       19       0.00916070      -0.00365389       0.00979902
O        3.81394009       4.83021870       1.85848524       20       0.00933197       0.01019204      -0.00152538
O        1.92700622       2.83534495       1.59673743       21      -0.00933197       0.00641704       0.00806387
O        1.92700622       6.05433581       0.26174780       22      -0.00933197       0.00377500      -0.00958925
O       -2.19527398       5.75023724       3.57919046       23      -0.00666976       0.00453457       0.01132440
O        3.28266049       1.87675263       6.96760137       24       0.00649849      -0.00477679      -0.01132440
O        5.06574714      -1.69077516       3.45200409       25       0.00666976      -0.00453457      -0.01132440
O        6.15313365       3.17615907       1.65711204       26       0.00649849       0.01219562       0.00152538
O        3.54567233       2.25428228       3.77734508       27      -0.00666976       0.00753994      -0.00958925
O        0.67519918       4.17386670       6.70585357       28      -0.00666976      -0.01207451      -0.00173515
O        2.19527398      -0.11440462       0.32534098       29       0.00666976       0.01207451       0.00173515
O       -3.28266049       0.88330300       5.37408252       30      -0.00649849      -0.01219562      -0.00152538
O        4.90132661       0.73218284       1.91885984       31       0.00916070      -0.00665926      -0.00806387
O        0.94346694       1.22411712       5.43445712       32       0.00933197      -0.00641704      -0.00806387
O        3.28266049      -0.99344962       5.43767570       33       0.00649849      -0.00741883       0.00979902
O        2.03085345       0.00185825       3.19025629       34       0.00916070       0.01031315      -0.00173515
O        0.94346694      -1.99487374       6.76944675       35       0.00933197      -0.00377500       0.00958925
O       -0.67519918       1.80517979       3.25384947       36       0.00666976      -0.00753994       0.00958925
O       -0.94346694      -0.77075662       5.17270932       37      -0.00933197      -0.01019204       0.00152538
O       -0.41218734       5.05291169       1.59351885       38      -0.00649849       0.00741883      -0.00979902
O        3.71009286       4.79350316       5.10911613       39      -0.00916070       0.00365389      -0.00979902
40
Lattice="8.611419473569075 6.749320295927543e-10 1.2672827626415869e-14 -2.8704731584926924 8.118924140311798 -1.169039065944433e-09 -2.8704731575382016 -4.059462069480952 7.031194557688105" Properties=species:S:1:pos:R:3:spacegroup_kinds:I:1:forces:R:3 spacegroup="P 1" unit_cell=conventional occupancy="_JSON {\"0\": {\"In\": 1}, \"1\": {\"In\": 1}, \"2\": {\"In\": 1}, \"3\": {\"In\": 1}, \"4\": {\"In\": 1}, \"5\": {\"In\": 1}, \"6\": {\"In\": 1}, \"7\": {\"In\": 1}, \"8\": {\"In\": 1}, \"9\": {\"In\": 1}, \"10\": {\"In\": 1}, \"11\": {\"In\": 1}, \"12\": {\"In\": 1}, \"13\": {\"In\": 1}, \"14\": {\"In\": 1}, \"15\": {\"In\": 1}, \"16\": {\"O\": 1}, \"17\": {\"O\": 1}, \"18\": {\"O\": 1}, \"19\": {\"O\": 1}, \"20\": {\"O\": 1}, \"21\": {\"O\": 1}, \"22\": {\"O\": 1}, \"23\": {\"O\": 1}, \"24\": {\"O\": 1}, \"25\": {\"O\": 1}, \"26\": {\"O\": 1}, \"27\": {\"O\": 1}, \"28\": {\"O\": 1}, \"29\": {\"O\": 1}, \"30\": {\"O\": 1}, \"31\": {\"O\": 1}, \"32\": {\"O\": 1}, \"33\": {\"O\": 1}, \"34\": {\"O\": 1}, \"35\": {\"O\": 1}, \"36\": {\"O\": 1}, \"37\": {\"O\": 1}, \"38\": {\"O\": 1}, \"39\": {\"O\": 1}}" n_minim_iter=3 energy=-45149.92347736653 stress="-0.0814144736902928 4.3616551968748547e-13 9.715689980912356e-13 4.3616551968748547e-13 -0.08141447369006216 1.705146666809687e-13 9.715689980912356e-13 1.705146666809687e-13 -0.08141447369189078" free_energy=-45149.92347736653 pbc="T T T"
In      -4.10747310       2.90442208       5.51618523        0       0.00044255      -0.00031293       0.00054202
In       6.97794625       1.15503999       1.51500933        1      -0.00044255       0.00031293      -0.00054202
In       1.23699994      -0.87469104       5.03060660        2      -0.00044255       0.00031293      -0.00054202
In      -1.43523658      -2.02973103       3.51559728        3       0.00000000       0.00000000       0.00000000
In      -1.23699994       3.91928760       3.27280797        4       0.00044255      -0.00031293      -0.00054202
In       4.50394638      -2.76424760       5.27339592        5       0.00044255       0.00062587      -0.00000000
In      -1.23699994       1.29521447       5.27339592        6       0.00044255       0.00062587       0.00000000
In      -1.63347322       6.82370968       1.75779864        7      -0.00044255      -0.00062587      -0.00000000
In       4.10747309       0.14017448       3.75838659        8      -0.00044255       0.00031293       0.00054202
In      -1.43523658       4.05946207      -0.00000000        9      -0.00000000       0.00000000      -0.00000000
In       4.10747309       6.22936758       0.24278931       10      -0.00044255       0.00031293       0.00054202
In      -1.23699994      -2.16990551       6.78840524       11       0.00044255      -0.00031293      -0.00054202
In       4.10747309       2.76424761       1.75779864       12      -0.00044255      -0.00062587      -0.00000000
In       1.63347322       4.93415312       2.00058795       13       0.00044255      -0.00031293       0.00054202
In       4.30570974       0.00000000      -0.00000000       14      -0.00000000       0.00000000      -0.00000000
In       1.43523658       2.02973104       3.51559728       15      -0.00000000      -0.00000000       0.00000000
O        0.83900679       4.05675816       3.84145444       16      -0.00498658       0.00545988       0.00270606
O       -2.03146637       3.32814909       5.11280899       17      -0.00498658      -0.00038643      -0.00608142
O       -0.41236884       2.18327424       0.06459583       18       0.00312110      -0.00611942       0.00384842
O       -0.83900679      -0.73401689       1.92306887       19       0.00498658       0.00507345      -0.00337537
O        3.81496451       4.83077339       1.85847304       20       0.00129787      -0.00285157      -0.00722378
O        1.92598181       2.83563287       1.59721171       21      -0.00129787       0.00483020      -0.00608142
O        1.92598181       6.05460259       0.26126132       22      -0.00129787      -0.00768176      -0.00114236
O       -2.19586697       5.75022009       3.58019311       23       0.00680981      -0.00090280       0.00384842
O        3.28284199       1.87618783       6.96659872       24      -0.00312110       0.00611942      -0.00384842
O        5.06634013      -1.69075802       3.45100144       25      -0.00680981       0.00090280      -0.00384842
O        6.15331515       3.17730979       1.65712424       26      -0.00312110       0.00027312       0.00722378
O        3.54507934       2.25515918       3.77685860       27       0.00680981       0.00378423      -0.00114236
O        0.67460618       4.17300695       6.70533739       28       0.00680981      -0.00288143      -0.00270606
O        2.19586697      -0.11354487       0.32585716       29      -0.00680981       0.00288143       0.00270606
O       -3.28284199       0.88215228       5.37407031       30       0.00312110      -0.00027312      -0.00722378
O        4.90193952       0.73131298       1.91838556       31       0.00498658       0.00038643       0.00608142
O        0.94449135       1.22382921       5.43398284       32       0.00129787      -0.00483020       0.00608142
O        3.28284199      -0.99403555       5.43866615       33      -0.00312110      -0.00639254      -0.00337536
O        2.03146637       0.00270391       3.18974012       34       0.00498658      -0.00545988      -0.00270606
O        0.94449135      -1.99514052       6.76993323       35       0.00129787       0.00768176       0.00114236
O       -0.67460619       1.80430289       3.25433595       36      -0.00680981      -0.00378423       0.00114236
O       -0.94449135      -0.77131131       5.17272152       37      -0.00129787       0.00285157       0.00722378
O       -0.41236884       5.05349762       1.59252840       38       0.00312110       0.00639254       0.00337537
O        3.70947995       4.79347897       5.10812568       39      -0.00498658      -0.00507345       0.00337537
