40
Lattice="8.768024945873913 6.872107740207118e-10 4.725623007017829e-15 -2.9226749826058795 8.26657319555793 -1.190286777585802e-09 -2.922674981634025 -4.133286597091756 7.159062390390205" Properties=species:S:1:pos:R:3:spacegroup_kinds:I:1:forces:R:3 spacegroup="P 1" unit_cell=conventional occupancy="_JSON {\"0\": {\"In\": 1}, \"1\": {\"In\": 1}, \"2\": {\"In\": 1}, \"3\": {\"In\": 1}, \"4\": {\"In\": 1}, \"5\": {\"In\": 1}, \"6\": {\"In\": 1}, \"7\": {\"In\": 1}, \"8\": {\"In\": 1}, \"9\": {\"In\": 1}, \"10\": {\"In\": 1}, \"11\": {\"In\": 1}, \"12\": {\"In\": 1}, \"13\": {\"In\": 1}, \"14\": {\"In\": 1}, \"15\": {\"In\": 1}, \"16\": {\"O\": 1}, \"17\": {\"O\": 1}, \"18\": {\"O\": 1}, \"19\": {\"O\": 1}, \"20\": {\"O\": 1}, \"21\": {\"O\": 1}, \"22\": {\"O\": 1}, \"23\": {\"O\": 1}, \"24\": {\"O\": 1}, \"25\": {\"O\": 1}, \"26\": {\"O\": 1}, \"27\": {\"O\": 1}, \"28\": {\"O\": 1}, \"29\": {\"O\": 1}, \"30\": {\"O\": 1}, \"31\": {\"O\": 1}, \"32\": {\"O\": 1}, \"33\": {\"O\": 1}, \"34\": {\"O\": 1}, \"35\": {\"O\": 1}, \"36\": {\"O\": 1}, \"37\": {\"O\": 1}, \"38\": {\"O\": 1}, \"39\": {\"O\": 1}}" n_minim_iter=5 energy=-45151.666293557886 stress="-0.014665401953107914 2.35783898782057e-13 -1.5334089004048754e-14 2.35783898782057e-13 -0.014665401951749311 -1.6801433424739362e-13 -1.5334089004048754e-14 -1.6801433424739362e-13 -0.014665401950044944" free_energy=-45151.666293557886 pbc="T T T"
In      -4.18652186       2.96031800       5.61117241        0      -0.00183013       0.00129410      -0.00224145
In       7.10919684       1.17296861       1.54788997        1       0.00183013      -0.00129410       0.00224145
In       1.26384687      -0.89367469       5.12742117        2       0.00183013      -0.00129410       0.00224145
In      -1.46133749      -2.06664330       3.57953119        3      -0.00000000       0.00000000      -0.00000000
In      -1.26384688       3.99363965       3.33765557        4      -0.00183013       0.00129410       0.00224145
In       4.58150309      -2.82067104       5.36929679        5      -0.00183013      -0.00258820       0.00000000
In      -1.26384688       1.31261556       5.36929679        6      -0.00183013      -0.00258820      -0.00000000
In      -1.65882811       6.95395764       1.78976559        7       0.00183013       0.00258820      -0.00000000
In       4.18652185       0.13964696       3.82140681        8       0.00183013      -0.00129410      -0.00224145
In      -1.46133749       4.13328660      -0.00000000        9      -0.00000000       0.00000000       0.00000000
In       4.18652185       6.33957685       0.24187562       10       0.00183013      -0.00129410      -0.00224145
In      -1.26384688      -2.20629025       6.91718677       11      -0.00183013       0.00129410       0.00224145
In       4.18652185       2.82067104       1.78976559       12       0.00183013       0.00258820       0.00000000
In       1.65882811       5.02696129       2.03164121       13      -0.00183013       0.00129410      -0.00224145
In       4.38401247       0.00000000      -0.00000000       14       0.00000000      -0.00000000      -0.00000000
In       1.46133749       2.06664330       3.57953119       15      -0.00000000       0.00000000       0.00000000
O        0.85829700       4.13224254       3.89833127       16      -0.00192464       0.00391341       0.00207628
O       -2.06437799       3.37657595       5.21080093       17      -0.00192464      -0.00015859      -0.00442726
O       -0.42831899       2.21970754       0.05549340       18       0.00289853      -0.00356909       0.00147989
O       -0.85829700      -0.75775471       1.95006982       19       0.00192464       0.00375482      -0.00235098
O        3.87159233       4.92308044       1.89457641       20       0.00049202      -0.00290040      -0.00383087
O        1.97375763       2.88743221       1.63126974       21      -0.00049202       0.00186743      -0.00442726
O        1.97375763       6.16893483       0.26330668       22      -0.00049202      -0.00476783       0.00059639
O       -2.23553334       5.86385040       3.63502459       23       0.00433115      -0.00154307       0.00147989
O        3.35099397       1.91357906       7.10356898       24      -0.00289853       0.00356909      -0.00147989
O        5.15820832      -1.73056380       3.52403779       25      -0.00433115       0.00154307      -0.00147989
O        6.27366895       3.22455577       1.68495477       26      -0.00289853      -0.00050292       0.00383087
O        3.60981663       2.28274175       3.84283787       27       0.00433115       0.00205316       0.00059639
O        0.68714164       4.25326765       6.84026230       28       0.00433115      -0.00051009      -0.00207628
O        2.23553333      -0.11998105       0.31880008       29      -0.00433115       0.00051009       0.00207628
O       -3.35099397       0.90873083       5.47410761       30       0.00289853       0.00050292      -0.00383087
O        4.98705296       0.75671065       1.94826145       31       0.00192464       0.00015859       0.00442726
O        0.94891734       1.24585439       5.52779265       32       0.00049202      -0.00186743       0.00442726
O        3.35099397      -1.00484822       5.52960101       33      -0.00289853      -0.00306617      -0.00235098
O        2.06437798       0.00104406       3.26073111       34       0.00192464      -0.00391341      -0.00207628
O        0.94891734      -2.03564822       6.89575571       35       0.00049202       0.00476783      -0.00059639
O       -0.68714165       1.85054486       3.31622451       36      -0.00433115      -0.00205316      -0.00059639
O       -0.94891735      -0.78979384       5.26448597       37      -0.00049202       0.00290040       0.00383087
O       -0.42831899       5.13813482       1.62946137       38       0.00289853       0.00306617       0.00235098
O        3.78097198       4.89104131       5.20899257       39      -0.00192464      -0.00375482       0.00235098
