40
Lattice="9.136854935546502 7.16116179725704e-10 1.0856122035917411e-14 -3.0456183125239966 8.61430944461824 -1.2403582364821986e-09 -3.0456183115112627 -4.307154721593 7.460210815926513" Properties=species:S:1:pos:R:3:spacegroup_kinds:I:1:forces:R:3 spacegroup="P 1" unit_cell=conventional occupancy="_JSON {\"0\": {\"In\": 1}, \"1\": {\"In\": 1}, \"2\": {\"In\": 1}, \"3\": {\"In\": 1}, \"4\": {\"In\": 1}, \"5\": {\"In\": 1}, \"6\": {\"In\": 1}, \"7\": {\"In\": 1}, \"8\": {\"In\": 1}, \"9\": {\"In\": 1}, \"10\": {\"In\": 1}, \"11\": {\"In\": 1}, \"12\": {\"In\": 1}, \"13\": {\"In\": 1}, \"14\": {\"In\": 1}, \"15\": {\"In\": 1}, \"16\": {\"O\": 1}, \"17\": {\"O\": 1}, \"18\": {\"O\": 1}, \"19\": {\"O\": 1}, \"20\": {\"O\": 1}, \"21\": {\"O\": 1}, \"22\": {\"O\": 1}, \"23\": {\"O\": 1}, \"24\": {\"O\": 1}, \"25\": {\"O\": 1}, \"26\": {\"O\": 1}, \"27\": {\"O\": 1}, \"28\": {\"O\": 1}, \"29\": {\"O\": 1}, \"30\": {\"O\": 1}, \"31\": {\"O\": 1}, \"32\": {\"O\": 1}, \"33\": {\"O\": 1}, \"34\": {\"O\": 1}, \"35\": {\"O\": 1}, \"36\": {\"O\": 1}, \"37\": {\"O\": 1}, \"38\": {\"O\": 1}, \"39\": {\"O\": 1}}" n_minim_iter=1 energy=-45150.818075058945 stress="0.047039656274762066 -2.8407914870724873e-13 -6.003133492184965e-13 -2.8407914870724873e-13 0.04703965627523759 5.458343773068734e-14 -6.003133492184965e-13 5.458343773068734e-14 0.04703965627534363" free_energy=-45150.818075058945 pbc="T T T"
In      -4.36167221       3.08416800       5.84838055        0       0.00922731      -0.00652469       0.01130109
In       7.40729052       1.22298673       1.61183026        1      -0.00922731       0.00652469      -0.01130109
In       1.31605390      -0.93059064       5.34193567        2      -0.00922731       0.00652469      -0.01130109
In      -1.52280916      -2.15357736       3.73010541        3       0.00000000       0.00000000      -0.00000000
In      -1.31605390       4.16095668       3.47688297        4       0.00922731      -0.00652469      -0.01130109
In       4.77518272      -2.93796995       5.59515811        5       0.00922731       0.01304938      -0.00000000
In      -1.31605390       1.36918477       5.59515811        6       0.00922731       0.01304938       0.00000000
In      -1.72956441       7.24512468       1.86505270        7      -0.00922731      -0.01304938      -0.00000000
In       4.36167221       0.14619805       3.98332784        8      -0.00922731       0.00652469       0.01130109
In      -1.52280916       4.30715472      -0.00000000        9      -0.00000000      -0.00000000      -0.00000000
In       4.36167221       6.60693013       0.25322243       10      -0.00922731       0.00652469       0.01130109
In      -1.31605390      -2.29977540       7.20698837       11       0.00922731      -0.00652469      -0.01130109
In       4.36167221       2.93796996       1.86505270       12      -0.00922731      -0.01304938       0.00000000
In       1.72956441       5.23774536       2.11827514       13       0.00922731      -0.00652469       0.01130109
In       4.56842747       0.00000000      -0.00000000       14       0.00000000       0.00000000       0.00000000
In       1.52280915       2.15357736       3.73010540       15       0.00000000       0.00000000      -0.00000000
O        0.90166234       4.31028528       4.05187635       16       0.00955301      -0.00552569      -0.02478278
O       -2.14395597       3.50746258       5.43156150       17       0.00955301      -0.01869967       0.01717678
O       -0.45045136       2.30997399       0.04546177       18      -0.01965556       0.00195390      -0.01859626
O       -0.90166235      -0.79656159       2.02322704       19      -0.00955301      -0.02422536      -0.00760600
O        4.02151942       5.12996369       1.97776526       20      -0.02081456       0.01348881       0.01099026
O        2.06971720       3.00576424       1.70145609       21       0.02081456      -0.00277344       0.01717678
O        2.06971720       6.43135417       0.27630917       22       0.02081456       0.01626225      -0.00618652
O       -2.32801481       6.11543037       3.77556718       23      -0.00839401       0.01788013      -0.01859626
O        3.49606967       1.99718074       7.41474904       24       0.01965556      -0.00195390       0.01859626
O        5.37363312      -1.80827565       3.68464363       25       0.00839401      -0.01788014       0.01859626
O        6.54168798       3.34793540       1.75234014       26       0.01965556      -0.01512788      -0.01099026
O        3.76322181       2.36559927       4.00641457       27      -0.00839401      -0.02504490      -0.00618652
O        0.71760350       4.44043453       7.13843987       28      -0.00839401       0.00716477       0.02478278
O        2.32801481      -0.13327981       0.32177094       29       0.00839401      -0.00716477      -0.02478278
O       -3.49606967       0.95921932       5.70787067       30      -0.01965556       0.01512788       0.01099026
O        5.18957428       0.79969215       2.02864931       31      -0.00955301       0.01869967      -0.01717678
O        0.97590110       1.30139048       5.75875472       32      -0.02081456       0.00277344      -0.01717678
O        3.49606967      -1.03796142       5.75333244       33       0.01965556       0.01708178      -0.00760600
O        2.14395597      -0.00313055       3.40833446       34      -0.00955301       0.00552569       0.02478278
O        0.97590110      -2.12419944       7.18390164       35      -0.02081456      -0.01626225       0.00618652
O       -0.71760350       1.94155546       3.45379624       36       0.00839401       0.02504490       0.00618652
O       -0.97590111      -0.82280896       5.48244555       37       0.02081456      -0.01348881      -0.01099026
O       -0.45045136       5.34511614       1.70687837       38      -0.01965556      -0.01708178       0.00760600
O        3.94728065       5.10371632       5.43698377       39       0.00955301       0.02422536       0.00760600
40
Lattice="9.1368549355465 7.161161797257039e-10 1.0856122035917411e-14 -3.045618312523996 8.614309444618238 -1.2403582364821984e-09 -3.0456183115112623 -4.307154721592999 7.460210815926512" Properties=species:S:1:pos:R:3:spacegroup_kinds:I:1:forces:R:3 spacegroup="P 1" unit_cell=conventional occupancy="_JSON {\"0\": {\"In\": 1}, \"1\": {\"In\": 1}, \"2\": {\"In\": 1}, \"3\": {\"In\": 1}, \"4\": {\"In\": 1}, \"5\": {\"In\": 1}, \"6\": {\"In\": 1}, \"7\": {\"In\": 1}, \"8\": {\"In\": 1}, \"9\": {\"In\": 1}, \"10\": {\"In\": 1}, \"11\": {\"In\": 1}, \"12\": {\"In\": 1}, \"13\": {\"In\": 1}, \"14\": {\"In\": 1}, \"15\": {\"In\": 1}, \"16\": {\"O\": 1}, \"17\": {\"O\": 1}, \"18\": {\"O\": 1}, \"19\": {\"O\": 1}, \"20\": {\"O\": 1}, \"21\": {\"O\": 1}, \"22\": {\"O\": 1}, \"23\": {\"O\": 1}, \"24\": {\"O\": 1}, \"25\": {\"O\": 1}, \"26\": {\"O\": 1}, \"27\": {\"O\": 1}, \"28\": {\"O\": 1}, \"29\": {\"O\": 1}, \"30\": {\"O\": 1}, \"31\": {\"O\": 1}, \"32\": {\"O\": 1}, \"33\": {\"O\": 1}, \"34\": {\"O\": 1}, \"35\": {\"O\": 1}, \"36\": {\"O\": 1}, \"37\": {\"O\": 1}, \"38\": {\"O\": 1}, \"39\": {\"O\": 1}}" n_minim_iter=2 energy=-45150.81899614763 stress="0.04694333988411355 2.4112668001533136e-13 -6.714055061550332e-13 2.4112668001533136e-13 0.046943339882542366 4.927118538766401e-14 -6.714055061550332e-13 4.927118538766401e-14 0.046943339882851674" free_energy=-45150.81899614763 pbc="T T T"
In      -4.36101312       3.08370195       5.84918777        0       0.00072808      -0.00051483       0.00089171
In       7.40663143       1.22345278       1.61102304        1      -0.00072808       0.00051483      -0.00089171
In       1.31539481      -0.93012459       5.34112845        2      -0.00072808       0.00051483      -0.00089171
In      -1.52280916      -2.15357736       3.73010541        3       0.00000000       0.00000000      -0.00000000
In      -1.31539481       4.16049063       3.47607575        4       0.00072808      -0.00051483      -0.00089171
In       4.77584181      -2.93703785       5.59515811        5       0.00072808       0.00102965       0.00000000
In      -1.31539481       1.37011687       5.59515811        6       0.00072808       0.00102965       0.00000000
In      -1.73022351       7.24419258       1.86505270        7      -0.00072808      -0.00102965      -0.00000000
In       4.36101312       0.14666409       3.98413506        8      -0.00072808       0.00051483       0.00089171
In      -1.52280916       4.30715472      -0.00000000        9      -0.00000000      -0.00000000       0.00000000
In       4.36101312       6.60739618       0.25402966       10      -0.00072808       0.00051483       0.00089171
In      -1.31539481      -2.30024145       7.20618115       11       0.00072808      -0.00051483      -0.00089171
In       4.36101312       2.93703786       1.86505270       12      -0.00072808      -0.00102965      -0.00000000
In       1.73022350       5.23727931       2.11908236       13       0.00072808      -0.00051483       0.00089171
In       4.56842747       0.00000000      -0.00000000       14       0.00000000       0.00000000       0.00000000
In       1.52280915       2.15357736       3.73010540       15       0.00000000       0.00000000      -0.00000000
O        0.90234470       4.30989058       4.05010615       16       0.01070029       0.00513292      -0.00514512
O       -2.14327361       3.50612689       5.43278841       17       0.01070029      -0.00702226      -0.00187268
O       -0.45185533       2.31011355       0.04413346       18       0.00178547      -0.00071853      -0.01279106
O       -0.90234470      -0.79829198       2.02268375       19      -0.01070029      -0.00188934      -0.00701780
O        4.02003266       5.13092717       1.97855028       20      -0.01018742      -0.00549558       0.00577326
O        2.07120396       3.00556614       1.70268301       21       0.01018742      -0.00774758      -0.00187268
O        2.07120396       6.43251576       0.27586727       22       0.01018742       0.00225200       0.00764594
O       -2.32861439       6.11670753       3.77423887       23       0.00127260      -0.00144385      -0.01279106
O        3.49747364       1.99704118       7.41607735       24      -0.00178547       0.00071853       0.01279106
O        5.37423269      -1.80955280       3.68597194       25      -0.00127260       0.00144385       0.01279106
O        6.54309195       3.34685484       1.75155512       26      -0.00178547      -0.01143665      -0.00577326
O        3.76262224       2.36381035       4.00597268       27       0.00127260      -0.01035545       0.00764594
O        0.71700393       4.44094630       7.14021007       28       0.00127260       0.01179930       0.00514512
O        2.32861438      -0.13379157       0.32000074       29      -0.00127260      -0.01179930      -0.00514512
O       -3.49747364       0.96029989       5.70865569       30       0.00178547       0.01143665       0.00577326
O        5.18889192       0.80102784       2.02742240       31      -0.01070029       0.00702226       0.00187268
O        0.97441435       1.30158859       5.75752780       32      -0.01018742       0.00774758       0.00187268
O        3.49747364      -1.03674129       5.75278916       33      -0.00178547       0.01071811      -0.00701780
O        2.14327361      -0.00273586       3.41010466       34      -0.01070029      -0.00513292       0.00514512
O        0.97441435      -2.12536103       7.18434354       35      -0.01018742      -0.00225200      -0.00764594
O       -0.71700393       1.94334438       3.45423813       36      -0.00127260       0.01035545      -0.00764594
O       -0.97441435      -0.82377245       5.48166053       37       0.01018742       0.00549558      -0.00577326
O       -0.45185533       5.34389601       1.70742165       38       0.00178547      -0.01071811       0.00701780
O        3.94796301       5.10544670       5.43752706       39       0.01070029       0.00188934       0.00701780
40
Lattice="9.136854935546499 7.16116179725704e-10 1.0856122035917413e-14 -3.0456183125239966 8.614309444618236 -1.2403582364821982e-09 -3.0456183115112627 -4.307154721592998 7.460210815926513" Properties=species:S:1:pos:R:3:spacegroup_kinds:I:1:forces:R:3 spacegroup="P 1" unit_cell=conventional occupancy="_JSON {\"0\": {\"In\": 1}, \"1\": {\"In\": 1}, \"2\": {\"In\": 1}, \"3\": {\"In\": 1}, \"4\": {\"In\": 1}, \"5\": {\"In\": 1}, \"6\": {\"In\": 1}, \"7\": {\"In\": 1}, \"8\": {\"In\": 1}, \"9\": {\"In\": 1}, \"10\": {\"In\": 1}, \"11\": {\"In\": 1}, \"12\": {\"In\": 1}, \"13\": {\"In\": 1}, \"14\": {\"In\": 1}, \"15\": {\"In\": 1}, \"16\": {\"O\": 1}, \"17\": {\"O\": 1}, \"18\": {\"O\": 1}, \"19\": {\"O\": 1}, \"20\": {\"O\": 1}, \"21\": {\"O\": 1}, \"22\": {\"O\": 1}, \"23\": {\"O\": 1}, \"24\": {\"O\": 1}, \"25\": {\"O\": 1}, \"26\": {\"O\": 1}, \"27\": {\"O\": 1}, \"28\": {\"O\": 1}, \"29\": {\"O\": 1}, \"30\": {\"O\": 1}, \"31\": {\"O\": 1}, \"32\": {\"O\": 1}, \"33\": {\"O\": 1}, \"34\": {\"O\": 1}, \"35\": {\"O\": 1}, \"36\": {\"O\": 1}, \"37\": {\"O\": 1}, \"38\": {\"O\": 1}, \"39\": {\"O\": 1}}" n_minim_iter=3 energy=-45150.819122015135 stress="0.04690755042520197 2.286971383307375e-13 -4.087430793655971e-13 2.286971383307375e-13 0.046907550424355 1.2498924005508992e-13 -4.087430793655971e-13 1.2498924005508992e-13 0.046907550424996246" free_energy=-45150.819122015135 pbc="T T T"
In      -4.36079728       3.08354933       5.84945212        0      -0.00172181       0.00121750      -0.00210878
In       7.40641559       1.22360540       1.61075869        1       0.00172181      -0.00121750       0.00210878
In       1.31517897      -0.92997196       5.34086410        2       0.00172181      -0.00121750       0.00210878
In      -1.52280916      -2.15357736       3.73010541        3      -0.00000000      -0.00000000       0.00000000
In      -1.31517897       4.16033801       3.47581140        4      -0.00172181       0.00121750       0.00210878
In       4.77605765      -2.93673261       5.59515811        5      -0.00172181      -0.00243500       0.00000000
In      -1.31517897       1.37042211       5.59515811        6      -0.00172181      -0.00243500       0.00000000
In      -1.73043935       7.24388734       1.86505270        7       0.00172181       0.00243500       0.00000000
In       4.36079728       0.14681672       3.98439941        8       0.00172181      -0.00121750      -0.00210878
In      -1.52280916       4.30715472      -0.00000000        9       0.00000000      -0.00000000       0.00000000
In       4.36079728       6.60754880       0.25429400       10       0.00172181      -0.00121750      -0.00210878
In      -1.31517897      -2.30039407       7.20591681       11      -0.00172181       0.00121750       0.00210878
In       4.36079728       2.93673262       1.86505270       12       0.00172181       0.00243500       0.00000000
In       1.73043934       5.23712669       2.11934671       13      -0.00172181       0.00121750      -0.00210878
In       4.56842747       0.00000000      -0.00000000       14       0.00000000      -0.00000000      -0.00000000
In       1.52280915       2.15357736       3.73010540       15       0.00000000       0.00000000       0.00000000
O        0.90275631       4.30986668       4.04946611       16       0.01059901       0.00726176       0.00149050
O       -2.14286200       3.50558455       5.43312914       17       0.01059901      -0.00234007      -0.00703412
O       -0.45225199       2.31014275       0.04348426       18       0.00817322      -0.00062478      -0.01000510
O       -0.90275632      -0.79885822       2.02238443       19      -0.01059901       0.00492169      -0.00554362
O        4.01938414       5.13111860       1.97890017       20      -0.00573924      -0.01069813       0.00446147
O        2.07185248       3.00535884       1.70302373       21       0.00573924      -0.00921282      -0.00703412
O        2.07185248       6.43291448       0.27587643       22       0.00573924      -0.00148532       0.01149559
O       -2.32877413       6.11707176       3.77358967       23       0.00331345      -0.00749752      -0.01000510
O        3.49787030       1.99701198       7.41672655       24      -0.00817322       0.00062478       0.01000510
O        5.37439244      -1.80991704       3.68662114       25      -0.00331345       0.00749752       0.01000510
O        6.54348861       3.34630721       1.75120524       26      -0.00817322      -0.00897706      -0.00446147
O        3.76246249       2.36306600       4.00598184       27       0.00331345      -0.00491591       0.01149559
O        0.71684418       4.44132641       7.14085011       28       0.00331345       0.01241343      -0.00149050
O        2.32877413      -0.13417168       0.31936070       29      -0.00331345      -0.01241343       0.00149050
O       -3.49787030       0.96084751       5.70900557       30       0.00817322       0.00897706       0.00446147
O        5.18848031       0.80157018       2.02708167       31      -0.01059901       0.00234007       0.00703412
O        0.97376582       1.30179588       5.75718708       32      -0.00573924       0.00921282       0.00703412
O        3.49787030      -1.03616447       5.75248984       33      -0.00817322       0.00835228      -0.00554362
O        2.14286199      -0.00271195       3.41074470       34      -0.01059901      -0.00726176      -0.00149050
O        0.97376582      -2.12575975       7.18433438       35      -0.00573924       0.00148532      -0.01149559
O       -0.71684419       1.94408872       3.45422897       36      -0.00331345       0.00491591      -0.01149559
O       -0.97376583      -0.82396388       5.48131064       37       0.00573924       0.01069813      -0.00446147
O       -0.45225199       5.34331919       1.70772097       38       0.00817322      -0.00835228       0.00554362
O        3.94837463       5.10601295       5.43782638       39       0.01059901      -0.00492169       0.00554362
40
Lattice="9.136854935546497 7.16116179725704e-10 1.0856122035917414e-14 -3.0456183125239966 8.614309444618234 -1.2403582364821984e-09 -3.0456183115112627 -4.3071547215929975 7.460210815926513" Properties=species:S:1:pos:R:3:spacegroup_kinds:I:1:forces:R:3 spacegroup="P 1" unit_cell=conventional occupancy="_JSON {\"0\": {\"In\": 1}, \"1\": {\"In\": 1}, \"2\": {\"In\": 1}, \"3\": {\"In\": 1}, \"4\": {\"In\": 1}, \"5\": {\"In\": 1}, \"6\": {\"In\": 1}, \"7\": {\"In\": 1}, \"8\": {\"In\": 1}, \"9\": {\"In\": 1}, \"10\": {\"In\": 1}, \"11\": {\"In\": 1}, \"12\": {\"In\": 1}, \"13\": {\"In\": 1}, \"14\": {\"In\": 1}, \"15\": {\"In\": 1}, \"16\": {\"O\": 1}, \"17\": {\"O\": 1}, \"18\": {\"O\": 1}, \"19\": {\"O\": 1}, \"20\": {\"O\": 1}, \"21\": {\"O\": 1}, \"22\": {\"O\": 1}, \"23\": {\"O\": 1}, \"24\": {\"O\": 1}, \"25\": {\"O\": 1}, \"26\": {\"O\": 1}, \"27\": {\"O\": 1}, \"28\": {\"O\": 1}, \"29\": {\"O\": 1}, \"30\": {\"O\": 1}, \"31\": {\"O\": 1}, \"32\": {\"O\": 1}, \"33\": {\"O\": 1}, \"34\": {\"O\": 1}, \"35\": {\"O\": 1}, \"36\": {\"O\": 1}, \"37\": {\"O\": 1}, \"38\": {\"O\": 1}, \"39\": {\"O\": 1}}" n_minim_iter=4 energy=-45150.819285409656 stress="0.046849909247387266 -2.7868181108172994e-13 3.05448601023676e-14 -2.7868181108172994e-13 0.04684990924712775 6.063582803830125e-13 3.05448601023676e-14 6.063582803830125e-13 0.04684990924758419" free_energy=-45150.819285409656 pbc="T T T"
In      -4.36050905       3.08334552       5.84980513        0      -0.00371396       0.00262617      -0.00454866
In       7.40612736       1.22380921       1.61040568        1       0.00371396      -0.00262617       0.00454866
In       1.31489073      -0.92976815       5.34051109        2       0.00371396      -0.00262617       0.00454866
In      -1.52280916      -2.15357736       3.73010541        3      -0.00000000       0.00000000      -0.00000000
In      -1.31489074       4.16013420       3.47545838        4      -0.00371396       0.00262617       0.00454866
In       4.77634589      -2.93632499       5.59515811        5      -0.00371396      -0.00525234      -0.00000000
In      -1.31489074       1.37082973       5.59515811        6      -0.00371396      -0.00525234      -0.00000000
In      -1.73072758       7.24347971       1.86505270        7       0.00371396       0.00525234      -0.00000000
In       4.36050905       0.14702053       3.98475243        8       0.00371396      -0.00262617      -0.00454866
In      -1.52280916       4.30715472      -0.00000000        9      -0.00000000      -0.00000000      -0.00000000
In       4.36050904       6.60775261       0.25464702       10       0.00371396      -0.00262617      -0.00454866
In      -1.31489074      -2.30059788       7.20556379       11      -0.00371396       0.00262617       0.00454866
In       4.36050904       2.93632499       1.86505270       12       0.00371396       0.00525234      -0.00000000
In       1.73072758       5.23692288       2.11969972       13      -0.00371396       0.00262617      -0.00454866
In       4.56842747       0.00000000      -0.00000000       14       0.00000000       0.00000000       0.00000000
In       1.52280915       2.15357736       3.73010540       15       0.00000000       0.00000000      -0.00000000
O        0.90403115       4.31019882       4.04842886       16       0.00863371       0.00545972       0.01084561
O       -2.14158716       3.50452019       5.43336012       17       0.00863371       0.00666272      -0.01015106
O       -0.45251738       2.31016750       0.04182886       18       0.01430705       0.00265106      -0.00320267
O       -0.90403116      -0.79959044       2.02157817       19      -0.00863371       0.01212244       0.00069455
O        4.01795571       5.13089507       1.97974931       20       0.00340377      -0.01397150       0.00389722
O        2.07328091       3.00451170       1.70325471       21      -0.00340377      -0.01036084      -0.01015106
O        2.07328091       6.43353809       0.27649459       22      -0.00340377      -0.00361065       0.01404828
O       -2.32888593       6.11731373       3.77193426       23       0.00226957      -0.01437250      -0.00320267
O        3.49813569       1.99698723       7.41838195       24      -0.01430705      -0.00265106       0.00320267
O        5.37450424      -1.81015900       3.68827655       25      -0.00226957       0.01437250       0.00320267
O        6.54375400       3.34488597       1.75035609       26      -0.01430705      -0.00144806      -0.00389722
O        3.76235069       2.36151140       4.00660000       27       0.00226957       0.00441266       0.01404828
O        0.71673238       4.44263905       7.14188736       28       0.00226957       0.00995984      -0.01084561
O        2.32888593      -0.13548432       0.31832345       29      -0.00226957      -0.00995984       0.01084561
O       -3.49813569       0.96226876       5.70985472       30       0.01430705       0.00144806       0.00389722
O        5.18720547       0.80263453       2.02685069       31      -0.00863371      -0.00666272       0.01015106
O        0.97233740       1.30264303       5.75695610       32       0.00340377       0.01036084       0.01015106
O        3.49813569      -1.03471846       5.75168358       33      -0.01430705       0.00409913       0.00069455
O        2.14158715      -0.00304409       3.41178195       34      -0.00863371      -0.00545972      -0.01084561
O        0.97233740      -2.12638336       7.18371622       35       0.00340377       0.00361065      -0.01404828
O       -0.71673238       1.94564333       3.45361081       36      -0.00226957      -0.00441266      -0.01404828
O       -0.97233740      -0.82374034       5.48046150       37      -0.00340377       0.01397150      -0.00389722
O       -0.45251738       5.34187319       1.70852723       38       0.01430705      -0.00409913      -0.00069455
O        3.94964947       5.10674516       5.43863264       39       0.00863371      -0.01212244      -0.00069455
40
Lattice="9.136854935546493 7.161161797257039e-10 1.085612203591742e-14 -3.045618312523996 8.61430944461823 -1.2403582364821982e-09 -3.0456183115112623 -4.307154721592996 7.460210815926511" Properties=species:S:1:pos:R:3:spacegroup_kinds:I:1:forces:R:3 spacegroup="P 1" unit_cell=conventional occupancy="_JSON {\"0\": {\"In\": 1}, \"1\": {\"In\": 1}, \"2\": {\"In\": 1}, \"3\": {\"In\": 1}, \"4\": {\"In\": 1}, \"5\": {\"In\": 1}, \"6\": {\"In\": 1}, \"7\": {\"In\": 1}, \"8\": {\"In\": 1}, \"9\": {\"In\": 1}, \"10\": {\"In\": 1}, \"11\": {\"In\": 1}, \"12\": {\"In\": 1}, \"13\": {\"In\": 1}, \"14\": {\"In\": 1}, \"15\": {\"In\": 1}, \"16\": {\"O\": 1}, \"17\": {\"O\": 1}, \"18\": {\"O\": 1}, \"19\": {\"O\": 1}, \"20\": {\"O\": 1}, \"21\": {\"O\": 1}, \"22\": {\"O\": 1}, \"23\": {\"O\": 1}, \"24\": {\"O\": 1}, \"25\": {\"O\": 1}, \"26\": {\"O\": 1}, \"27\": {\"O\": 1}, \"28\": {\"O\": 1}, \"29\": {\"O\": 1}, \"30\": {\"O\": 1}, \"31\": {\"O\": 1}, \"32\": {\"O\": 1}, \"33\": {\"O\": 1}, \"34\": {\"O\": 1}, \"35\": {\"O\": 1}, \"36\": {\"O\": 1}, \"37\": {\"O\": 1}, \"38\": {\"O\": 1}, \"39\": {\"O\": 1}}" n_minim_iter=5 energy=-45150.819553947156 stress="0.04687484029217342 -9.030101031278556e-14 8.669528511901938e-14 -9.030101031278556e-14 0.04687484029268854 -2.9733817735697475e-13 8.669528511901938e-14 -2.9733817735697475e-13 0.046874840292527795" free_energy=-45150.819553947156 pbc="T T T"
In      -4.36074467       3.08351213       5.84951656        0       0.00256783      -0.00181573       0.00314494
In       7.40636297       1.22364260       1.61069425        1      -0.00256783       0.00181573      -0.00314494
In       1.31512635      -0.92993476       5.34079966        2      -0.00256783       0.00181573      -0.00314494
In      -1.52280916      -2.15357736       3.73010541        3      -0.00000000       0.00000000       0.00000000
In      -1.31512635       4.16030081       3.47574696        4       0.00256783      -0.00181573      -0.00314494
In       4.77611027      -2.93665820       5.59515811        5       0.00256783       0.00363146      -0.00000000
In      -1.31512635       1.37049652       5.59515811        6       0.00256783       0.00363146       0.00000000
In      -1.73049196       7.24381293       1.86505270        7      -0.00256783      -0.00363146       0.00000000
In       4.36074466       0.14685392       3.98446385        8      -0.00256783       0.00181573       0.00314494
In      -1.52280916       4.30715472      -0.00000000        9      -0.00000000       0.00000000       0.00000000
In       4.36074466       6.60758600       0.25435844       10      -0.00256783       0.00181573       0.00314494
In      -1.31512635      -2.30043128       7.20585237       11       0.00256783      -0.00181573      -0.00314494
In       4.36074466       2.93665821       1.86505270       12      -0.00256783      -0.00363146       0.00000000
In       1.73049196       5.23708949       2.11941115       13       0.00256783      -0.00181573       0.00314494
In       4.56842747       0.00000000      -0.00000000       14       0.00000000      -0.00000000      -0.00000000
In       1.52280915       2.15357736       3.73010540       15       0.00000000       0.00000000      -0.00000000
O        0.90544392       4.31103727       4.04882569       16       0.00392193      -0.00720220       0.00347845
O       -2.14017439       3.50444464       5.43243558       17       0.00392193       0.00661352       0.00449807
O       -0.45132719       2.31024933       0.04063171       18       0.00075230       0.00885479       0.00061608
O       -0.90544393      -0.79882754       2.02105046       19      -0.00392193      -0.00058868       0.00797651
O        4.01741355       5.12944100       1.98041874       20       0.00492798       0.00094437       0.00736044
O        2.07382307       3.00320491       1.70233017       21      -0.00492798      -0.00590214       0.00449807
O        2.07382307       6.43339081       0.27808857       22      -0.00492798       0.00684651       0.00286237
O       -2.32856635       6.11616433       3.77073712       23      -0.00809761      -0.00366087       0.00061608
O        3.49694550       1.99690540       7.41957910       24      -0.00075230      -0.00885479      -0.00061608
O        5.37418466      -1.80900960       3.68947369       25       0.00809761       0.00366087      -0.00061608
O        6.54256381       3.34389012       1.74968666       26      -0.00075230       0.00496094      -0.00736044
O        3.76267027       2.36104934       4.00819398       27      -0.00809761       0.00236397       0.00286237
O        0.71705196       4.44425051       7.14149052       28      -0.00809761       0.00129690      -0.00347845
O        2.32856635      -0.13709578       0.31872029       29       0.00809761      -0.00129690       0.00347845
O       -3.49694550       0.96326460       5.71052415       30       0.00075230      -0.00496094       0.00736044
O        5.18579270       0.80271009       2.02777523       31      -0.00392193      -0.00661352      -0.00449807
O        0.97179524       1.30394981       5.75788064       32       0.00492798       0.00590214      -0.00449807
O        3.49694550      -1.03364079       5.75115587       33      -0.00075230       0.00389386       0.00797651
O        2.14017439      -0.00388255       3.41138512       34      -0.00392193       0.00720220      -0.00347845
O        0.97179524      -2.12623608       7.18212224       35       0.00492798      -0.00684651      -0.00286237
O       -0.71705197       1.94610539       3.45201683       36       0.00809761      -0.00236397      -0.00286237
O       -0.97179524      -0.82228627       5.47979207       37      -0.00492798      -0.00094437      -0.00736044
O       -0.45132719       5.34079552       1.70905494       38       0.00075230      -0.00389386      -0.00797651
O        3.95106223       5.10598227       5.43916035       39       0.00392193       0.00058868      -0.00797651
