40
Lattice="8.192714280107888 6.421162299164726e-10 2.0556022541850796e-14 -2.7309047606413555 7.724165098170166 -1.1122002240684085e-09 -2.7309047597332836 -3.8620825484429533 6.689323198781942" Properties=species:S:1:pos:R:3:spacegroup_kinds:I:1:forces:R:3 spacegroup="P 1" unit_cell=conventional occupancy="_JSON {\"0\": {\"In\": 1}, \"1\": {\"In\": 1}, \"2\": {\"In\": 1}, \"3\": {\"In\": 1}, \"4\": {\"In\": 1}, \"5\": {\"In\": 1}, \"6\": {\"In\": 1}, \"7\": {\"In\": 1}, \"8\": {\"In\": 1}, \"9\": {\"In\": 1}, \"10\": {\"In\": 1}, \"11\": {\"In\": 1}, \"12\": {\"In\": 1}, \"13\": {\"In\": 1}, \"14\": {\"In\": 1}, \"15\": {\"In\": 1}, \"16\": {\"O\": 1}, \"17\": {\"O\": 1}, \"18\": {\"O\": 1}, \"19\": {\"O\": 1}, \"20\": {\"O\": 1}, \"21\": {\"O\": 1}, \"22\": {\"O\": 1}, \"23\": {\"O\": 1}, \"24\": {\"O\": 1}, \"25\": {\"O\": 1}, \"26\": {\"O\": 1}, \"27\": {\"O\": 1}, \"28\": {\"O\": 1}, \"29\": {\"O\": 1}, \"30\": {\"O\": 1}, \"31\": {\"O\": 1}, \"32\": {\"O\": 1}, \"33\": {\"O\": 1}, \"34\": {\"O\": 1}, \"35\": {\"O\": 1}, \"36\": {\"O\": 1}, \"37\": {\"O\": 1}, \"38\": {\"O\": 1}, \"39\": {\"O\": 1}}" n_minim_iter=5 energy=-45140.81682391972 stress="-0.26706980063268 5.959059197678108e-13 -5.613924294929072e-13 5.959059197678108e-13 -0.2670698006306866 -5.946965270163358e-13 -5.613924294929072e-13 -5.946965270163358e-13 -0.2670698006328672" free_energy=-45140.81682391972 pbc="T T T"
In      -3.90546445       2.76158040       5.25078724        0      -0.00009413       0.00006656      -0.00011529
In       6.63636921       1.10050215       1.43853596        1       0.00009413      -0.00006656       0.00011529
In       1.17455969      -0.83053912       4.78319756        2       0.00009413      -0.00006656       0.00011529
In      -1.36545238      -1.93104127       3.34466160        3       0.00000000      -0.00000000      -0.00000000
In      -1.17455969       3.72710104       3.11086676        4      -0.00009413       0.00006656       0.00011529
In       4.28724983      -2.62659888       5.01699240        5      -0.00009413      -0.00013312       0.00000000
In      -1.17455969       1.23548367       5.01699240        6      -0.00009413      -0.00013312       0.00000000
In      -1.55634507       6.48868143       1.67233080        7       0.00009413       0.00013312      -0.00000000
In       3.90546445       0.13498152       3.57845644        8       0.00009413      -0.00006656      -0.00011529
In      -1.36545238       3.86208255      -0.00000000        9       0.00000000       0.00000000      -0.00000000
In       3.90546445       5.92810534       0.23379484       10       0.00009413      -0.00006656      -0.00011529
In      -1.17455969      -2.06602279       6.45552836       11      -0.00009413       0.00006656       0.00011529
In       3.90546445       2.62659889       1.67233080       12       0.00009413       0.00013312       0.00000000
In       1.55634507       4.69262167       1.90612564       13      -0.00009413       0.00006656      -0.00011529
In       4.09635714       0.00000000      -0.00000000       14      -0.00000000       0.00000000       0.00000000
In       1.36545238       1.93104128       3.34466160       15       0.00000000      -0.00000000       0.00000000
O        0.77391224       3.85088137       3.67839518       16       0.00554862      -0.00214884       0.00785976
O       -1.95699252       3.19118427       4.85982611       17       0.00554862       0.00788117      -0.00206893
O       -0.38511880       2.07970170       0.09564720       18       0.00725403       0.00667526       0.00001977
O       -0.77391224      -0.68209946       1.84889810       19      -0.00554862       0.00573233       0.00579083
O        3.66100822       4.59940395       1.75325090       20       0.00558090      -0.00572092       0.00577106
O        1.80080130       2.71238343       1.51516451       21      -0.00558090      -0.00785834      -0.00206893
O        1.80080130       5.74910307       0.23808639       22      -0.00558090       0.00213742       0.00783999
O       -2.08913450       5.46298341       3.44030879       23      -0.00387548      -0.00906425       0.00001977
O        3.11602355       1.78238085       6.59367600       24      -0.00725403      -0.00667526      -0.00001977
O        4.82003926      -1.60090086       3.24901440       25       0.00387548       0.00906425      -0.00001977
O        5.84692831       3.05372503       1.59141069       26      -0.00725403       0.00335475      -0.00577106
O        3.37267502       2.17894439       3.58274799       27      -0.00387548       0.00454925       0.00783999
O        0.64177026       3.94431986       6.35558961       28      -0.00387548       0.00451501      -0.00785976
O        2.08913450      -0.08223730       0.33373359       29       0.00387548      -0.00451501       0.00785976
O       -3.11602356       0.80835752       5.09791250       30       0.00725403      -0.00335475       0.00577106
O        4.68789728       0.67089828       1.82949708       31      -0.00554862      -0.00788117       0.00206893
O        0.93010346       1.14969913       5.17415868       32       0.00558090       0.00785834       0.00206893
O        3.11602355      -0.97402333       5.19355970       33      -0.00725403       0.00332051       0.00579083
O        1.95699252       0.01120119       3.01092801       34      -0.00554862       0.00214884      -0.00785976
O        0.93010346      -1.88702052       6.45123681       35       0.00558090      -0.00213742      -0.00783999
O       -0.64177026       1.68313816       3.10657521       36       0.00387548      -0.00454925      -0.00783999
O       -0.93010346      -0.73732140       4.93607229       37      -0.00558090       0.00572092      -0.00577106
O       -0.38511880       4.83610588       1.49576349       38       0.00725403      -0.00332051      -0.00579083
O        3.50481700       4.54418202       4.84042509       39       0.00554862      -0.00573233      -0.00579083
