40
Lattice="8.4489009143567 6.621954521700063e-10 1.1915708639175952e-14 -2.8163003054098907 7.965700173265731 -1.1469771051999506e-09 -2.816300304473415 -3.9828500859706533 6.898498709742869" Properties=species:S:1:pos:R:3:spacegroup_kinds:I:1:forces:R:3 spacegroup="P 1" unit_cell=conventional occupancy="_JSON {\"0\": {\"In\": 1}, \"1\": {\"In\": 1}, \"2\": {\"In\": 1}, \"3\": {\"In\": 1}, \"4\": {\"In\": 1}, \"5\": {\"In\": 1}, \"6\": {\"In\": 1}, \"7\": {\"In\": 1}, \"8\": {\"In\": 1}, \"9\": {\"In\": 1}, \"10\": {\"In\": 1}, \"11\": {\"In\": 1}, \"12\": {\"In\": 1}, \"13\": {\"In\": 1}, \"14\": {\"In\": 1}, \"15\": {\"In\": 1}, \"16\": {\"O\": 1}, \"17\": {\"O\": 1}, \"18\": {\"O\": 1}, \"19\": {\"O\": 1}, \"20\": {\"O\": 1}, \"21\": {\"O\": 1}, \"22\": {\"O\": 1}, \"23\": {\"O\": 1}, \"24\": {\"O\": 1}, \"25\": {\"O\": 1}, \"26\": {\"O\": 1}, \"27\": {\"O\": 1}, \"28\": {\"O\": 1}, \"29\": {\"O\": 1}, \"30\": {\"O\": 1}, \"31\": {\"O\": 1}, \"32\": {\"O\": 1}, \"33\": {\"O\": 1}, \"34\": {\"O\": 1}, \"35\": {\"O\": 1}, \"36\": {\"O\": 1}, \"37\": {\"O\": 1}, \"38\": {\"O\": 1}, \"39\": {\"O\": 1}}" n_minim_iter=1 energy=-45146.60942728508 stress="-0.16516321352933833 -1.4195293751597707e-13 3.7802735911816935e-13 -1.4195293751597707e-13 -0.1651632135303244 5.421247980182957e-13 3.7802735911816935e-13 5.421247980182957e-13 -0.16516321353079644" free_energy=-45146.60942728508 pbc="T T T"
In      -4.03059661       2.85006220       5.41129553        0      -0.02181008       0.01542206      -0.02671179
In       6.84689691       1.13278789       1.48720317        1       0.02181008      -0.01542206       0.02671179
In       1.21429630      -0.85863715       4.93645253        2       0.02181008      -0.01542206       0.02671179
In      -1.40815015      -1.99142504       3.44924935        3       0.00000000       0.00000000       0.00000000
In      -1.21429631       3.84577472       3.21182785        4      -0.02181008       0.01542206       0.02671179
In       4.41830430      -2.71298682       5.17387403        5      -0.02181008      -0.03084412       0.00000000
In      -1.21429631       1.26986326       5.17387403        6      -0.02181008      -0.03084412      -0.00000000
In      -1.60200400       6.69583691       1.72462467        7       0.02181008       0.03084412       0.00000000
In       4.03059661       0.13707537       3.68667086        8       0.02181008      -0.01542206      -0.02671179
In      -1.40815015       3.98285009      -0.00000000        9       0.00000000      -0.00000000       0.00000000
In       4.03059661       6.11135050       0.23742150       10       0.02181008      -0.01542206      -0.02671179
In      -1.21429631      -2.12850041       6.66107720       11      -0.02181008       0.01542206       0.02671179
In       4.03059661       2.71298683       1.72462467       12       0.02181008       0.03084412       0.00000000
In       1.60200400       4.84148724       1.96204618       13      -0.02181008       0.01542206      -0.02671179
In       4.22445046       0.00000000      -0.00000000       14       0.00000000      -0.00000000      -0.00000000
In       1.40815015       1.99142505       3.44924935       15      -0.00000000       0.00000000       0.00000000
O        0.81951644       3.97884143       3.77239550       16      -0.05009495      -0.01035301       0.05201460
O       -1.99678386       3.26899467       5.01577255       17      -0.05009495       0.05022247      -0.01704133
O       -0.40363659       2.14246943       0.06847279       18       0.02089097       0.00002784       0.06989831
O       -0.81951645      -0.71786407       1.88966935       19       0.05009495       0.03986946       0.03497327
O        3.74763235       4.74024695       1.82119655       20       0.06404851       0.00048635      -0.03492504
O        1.88496826       2.78434603       1.56652320       21      -0.06404851       0.03048915      -0.01704133
O        1.88496826       5.93875100       0.25467336       22      -0.06404851      -0.03000280      -0.01788372
O       -2.15448508       5.64067088       3.51772214       23       0.00693740      -0.01970547       0.06989831
O        3.21993689       1.84038066       6.83002591       24      -0.02089097      -0.00002784      -0.06989831
O        4.97078538      -1.65782079       3.38077656       25      -0.00693740       0.01970547      -0.06989831
O        6.03623720       3.12195894       1.62805279       26      -0.02089097       0.06054764       0.03492504
O        3.47811553       2.21752635       3.70392271       27       0.00693740       0.07038645      -0.01788372
O        0.66181522       4.09035304       6.57535256       28       0.00693740      -0.05068098      -0.05201460
O        2.15448508      -0.10750295       0.32314615       29      -0.00693740       0.05068098       0.05201460
O       -3.21993690       0.86089115       5.27044591       30       0.02089097      -0.06054764      -0.03492504
O        4.81308416       0.71385542       1.88272615       31       0.05009495      -0.05022247       0.01704133
O        0.93133204       1.19850406       5.33197551       32       0.06404851      -0.03048915       0.01704133
O        3.21993689      -0.97948950       5.33891870       33      -0.02089097      -0.06051979       0.03497327
O        1.99678386       0.00400866       3.12610320       34       0.05009495       0.01035301      -0.05201460
O        0.93133204      -1.95590091       6.64382535       35       0.06404851       0.03000280       0.01788372
O       -0.66181523       1.76532374       3.19457599       36      -0.00693740      -0.07038645       0.01788372
O       -0.93133205      -0.75739686       5.07730215       37      -0.06404851      -0.00048635       0.03492504
O       -0.40363659       4.96233959       1.55958000       38       0.02089097       0.06051979      -0.03497327
O        3.63581675       4.70071416       5.00882936       39      -0.05009495      -0.03986946      -0.03497327
40
Lattice="8.448900914356692 6.621954521700057e-10 1.1915708639175946e-14 -2.816300305409888 7.965700173265725 -1.1469771051999497e-09 -2.8163003044734123 -3.9828500859706506 6.8984987097428645" Properties=species:S:1:pos:R:3:spacegroup_kinds:I:1:forces:R:3 spacegroup="P 1" unit_cell=conventional occupancy="_JSON {\"0\": {\"In\": 1}, \"1\": {\"In\": 1}, \"2\": {\"In\": 1}, \"3\": {\"In\": 1}, \"4\": {\"In\": 1}, \"5\": {\"In\": 1}, \"6\": {\"In\": 1}, \"7\": {\"In\": 1}, \"8\": {\"In\": 1}, \"9\": {\"In\": 1}, \"10\": {\"In\": 1}, \"11\": {\"In\": 1}, \"12\": {\"In\": 1}, \"13\": {\"In\": 1}, \"14\": {\"In\": 1}, \"15\": {\"In\": 1}, \"16\": {\"O\": 1}, \"17\": {\"O\": 1}, \"18\": {\"O\": 1}, \"19\": {\"O\": 1}, \"20\": {\"O\": 1}, \"21\": {\"O\": 1}, \"22\": {\"O\": 1}, \"23\": {\"O\": 1}, \"24\": {\"O\": 1}, \"25\": {\"O\": 1}, \"26\": {\"O\": 1}, \"27\": {\"O\": 1}, \"28\": {\"O\": 1}, \"29\": {\"O\": 1}, \"30\": {\"O\": 1}, \"31\": {\"O\": 1}, \"32\": {\"O\": 1}, \"33\": {\"O\": 1}, \"34\": {\"O\": 1}, \"35\": {\"O\": 1}, \"36\": {\"O\": 1}, \"37\": {\"O\": 1}, \"38\": {\"O\": 1}, \"39\": {\"O\": 1}}" n_minim_iter=2 energy=-45146.6146419115 stress="-0.16426433607915783 -6.013198803047749e-13 -2.917485747986624e-13 -6.013198803047749e-13 -0.16426433607865015 9.636427096037927e-14 -2.917485747986624e-13 9.636427096037927e-14 -0.16426433607878177" free_energy=-45146.6146419115 pbc="T T T"
In      -4.03215448       2.85116377       5.40938755        0       0.03095650      -0.02188955       0.03791382
In       6.84845478       1.13168632       1.48911116        1      -0.03095650       0.02188955      -0.03791382
In       1.21585417      -0.85973873       4.93836051        2      -0.03095650       0.02188955      -0.03791382
In      -1.40815015      -1.99142504       3.44924935        3      -0.00000000       0.00000000      -0.00000000
In      -1.21585417       3.84687629       3.21373583        4       0.03095650      -0.02188955      -0.03791382
In       4.41674644      -2.71518998       5.17387403        5       0.03095650       0.04377911      -0.00000000
In      -1.21585417       1.26766011       5.17387403        6       0.03095650       0.04377911      -0.00000000
In      -1.60044614       6.69804007       1.72462467        7      -0.03095650      -0.04377911       0.00000000
In       4.03215447       0.13597380       3.68476287        8      -0.03095650       0.02188955       0.03791382
In      -1.40815015       3.98285009      -0.00000000        9      -0.00000000       0.00000000       0.00000000
In       4.03215447       6.11024893       0.23551352       10      -0.03095650       0.02188955       0.03791382
In      -1.21585417      -2.12739883       6.66298519       11       0.03095650      -0.02188955      -0.03791382
In       4.03215447       2.71518998       1.72462467       12      -0.03095650      -0.04377911       0.00000000
In       1.60044613       4.84258882       1.96013819       13       0.03095650      -0.02188955       0.03791382
In       4.22445046       0.00000000      -0.00000000       14       0.00000000      -0.00000000       0.00000000
In       1.40815015       1.99142505       3.44924935       15      -0.00000000      -0.00000000      -0.00000000
O        0.81593823       3.97810193       3.77611083       16      -0.04760000      -0.02603040      -0.03026939
O       -2.00036207       3.27258199       5.01455531       17      -0.04760000      -0.01319886       0.03767768
O       -0.40214438       2.14247142       0.07346553       18      -0.05285236      -0.00948488       0.03124487
O       -0.81593823      -0.71501625       1.89216744       19       0.04760000      -0.03922925       0.00740829
O        3.75220724       4.74028169       1.81870191       20       0.00342266       0.05726849      -0.02383658
O        1.88039336       2.78652383       1.56530596       21      -0.00342266       0.04927733       0.03767768
O        1.88039336       5.93660794       0.25339595       22      -0.00342266       0.00799116      -0.06151426
O       -2.15398955       5.63926335       3.52271488       23      -0.00867503       0.05299131       0.03124487
O        3.21844468       1.84037867       6.82503318       24       0.05285236       0.00948488      -0.03124487
O        4.97028986      -1.65641326       3.37578382       25       0.00867503      -0.05299131      -0.03124487
O        6.03474499       3.12628377       1.63054744       26       0.05285236       0.02231642       0.02383658
O        3.47861106       2.22255395       3.70264530       27      -0.00867503       0.00056320      -0.06151426
O        0.66231075       4.08673297       6.57163723       28      -0.00867503      -0.05355451       0.03026939
O        2.15398955      -0.10388288       0.32686148       29       0.00867503       0.05355451      -0.03026939
O       -3.21844469       0.85656632       5.26795126       30      -0.05285236      -0.02231642      -0.02383658
O        4.81666237       0.71026810       1.88394339       31       0.04760000       0.01319886      -0.03767768
O        0.93590694       1.19632626       5.33319275       32       0.00342266      -0.04927733      -0.03767768
O        3.21844468      -0.98381235       5.34141679       33       0.05285236      -0.03180129       0.00740829
O        2.00036207       0.00474816       3.12238787       34       0.04760000       0.02603040       0.03026939
O        0.93590694      -1.95375785       6.64510276       35       0.00342266      -0.00799116       0.06151426
O       -0.66231075       1.76029614       3.19585340       36       0.00867503      -0.00056320       0.06151426
O       -0.93590694      -0.75743160       5.07979680       37      -0.00342266      -0.05726849       0.02383658
O       -0.40214438       4.96666244       1.55708191       38      -0.05285236       0.03180129      -0.00740829
O        3.63223854       4.69786634       5.00633127       39      -0.04760000       0.03922925      -0.00740829
40
Lattice="8.448900914356683 6.621954521700054e-10 1.191570863917594e-14 -2.816300305409886 7.96570017326572 -1.1469771051999487e-09 -2.81630030447341 -3.982850085970648 6.89849870974286" Properties=species:S:1:pos:R:3:spacegroup_kinds:I:1:forces:R:3 spacegroup="P 1" unit_cell=conventional occupancy="_JSON {\"0\": {\"In\": 1}, \"1\": {\"In\": 1}, \"2\": {\"In\": 1}, \"3\": {\"In\": 1}, \"4\": {\"In\": 1}, \"5\": {\"In\": 1}, \"6\": {\"In\": 1}, \"7\": {\"In\": 1}, \"8\": {\"In\": 1}, \"9\": {\"In\": 1}, \"10\": {\"In\": 1}, \"11\": {\"In\": 1}, \"12\": {\"In\": 1}, \"13\": {\"In\": 1}, \"14\": {\"In\": 1}, \"15\": {\"In\": 1}, \"16\": {\"O\": 1}, \"17\": {\"O\": 1}, \"18\": {\"O\": 1}, \"19\": {\"O\": 1}, \"20\": {\"O\": 1}, \"21\": {\"O\": 1}, \"22\": {\"O\": 1}, \"23\": {\"O\": 1}, \"24\": {\"O\": 1}, \"25\": {\"O\": 1}, \"26\": {\"O\": 1}, \"27\": {\"O\": 1}, \"28\": {\"O\": 1}, \"29\": {\"O\": 1}, \"30\": {\"O\": 1}, \"31\": {\"O\": 1}, \"32\": {\"O\": 1}, \"33\": {\"O\": 1}, \"34\": {\"O\": 1}, \"35\": {\"O\": 1}, \"36\": {\"O\": 1}, \"37\": {\"O\": 1}, \"38\": {\"O\": 1}, \"39\": {\"O\": 1}}" n_minim_iter=3 energy=-45146.61766646508 stress="-0.16364090867957745 -1.2724031301232032e-14 2.1301692733121593e-14 -1.2724031301232032e-14 -0.16364090868061368 8.448962434589749e-14 2.1301692733121593e-14 8.448962434589749e-14 -0.16364090867902675" free_energy=-45146.61766646508 pbc="T T T"
In      -4.03165262       2.85080890       5.41000220        0      -0.00512444       0.00362353      -0.00627613
In       6.84795292       1.13204119       1.48849650        1       0.00512444      -0.00362353       0.00627613
In       1.21535231      -0.85938386       4.93774586        2       0.00512444      -0.00362353       0.00627613
In      -1.40815015      -1.99142504       3.44924935        3       0.00000000       0.00000000       0.00000000
In      -1.21535231       3.84652143       3.21312118        4      -0.00512444       0.00362353       0.00627613
In       4.41724830      -2.71448024       5.17387403        5      -0.00512444      -0.00724706      -0.00000000
In      -1.21535231       1.26836985       5.17387403        6      -0.00512444      -0.00724706      -0.00000000
In      -1.60094800       6.69733033       1.72462467        7       0.00512444       0.00724706       0.00000000
In       4.03165261       0.13632866       3.68537752        8       0.00512444      -0.00362353      -0.00627613
In      -1.40815015       3.98285009      -0.00000000        9       0.00000000      -0.00000000      -0.00000000
In       4.03165261       6.11060379       0.23612817       10       0.00512444      -0.00362353      -0.00627613
In      -1.21535231      -2.12775370       6.66237054       11      -0.00512444       0.00362353       0.00627613
In       4.03165261       2.71448024       1.72462467       12       0.00512444       0.00724706      -0.00000000
In       1.60094799       4.84223395       1.96075284       13      -0.00512444       0.00362353      -0.00627613
In       4.22445046       0.00000000      -0.00000000       14       0.00000000       0.00000000       0.00000000
In       1.40815015       1.99142505       3.44924935       15       0.00000000       0.00000000       0.00000000
O        0.81149116       3.97641897       3.77696880       16      -0.00691924       0.01176751      -0.01003904
O       -2.00480915       3.27416650       5.01558382       17      -0.00691924      -0.01457782      -0.00517145
O       -0.40371956       2.14202520       0.07801136       18      -0.00495599      -0.01596604      -0.00276697
O       -0.81149116      -0.71511471       1.89405392       19       0.00691924      -0.00281030      -0.01521048
O        3.75518349       4.74300468       1.81604255       20      -0.01143768       0.00121279      -0.01244351
O        1.87741712       2.79018840       1.56633446       21       0.01143768       0.01138279      -0.00517145
O        1.87741712       5.93566637       0.24970808       22       0.01143768      -0.01017000      -0.00727206
O       -2.15409391       5.64089719       3.52726072       23       0.01340093       0.00999457      -0.00276697
O        3.22001987       1.84082489       6.82048734       24       0.00495599       0.01596604       0.00276697
O        4.97039421      -1.65804710       3.37123799       25      -0.01340093      -0.00999457       0.00276697
O        6.03632017       3.12999747       1.63320680       26       0.00495599      -0.01037929       0.01244351
O        3.47850670       2.22567384       3.69895744       27       0.01340093      -0.00739355      -0.00727206
O        0.66220639       4.08197924       6.57077926       28       0.01340093      -0.00260101       0.01003904
O        2.15409391      -0.09912915       0.32771945       29      -0.01340093       0.00260101      -0.01003904
O       -3.22001987       0.85285262       5.26529191       30      -0.00495599       0.01037929      -0.01244351
O        4.82110945       0.70868359       1.88291489       31       0.00691924       0.01457782       0.00517145
O        0.93888318       1.19266169       5.33216424       32      -0.01143768      -0.01138279       0.00517145
O        3.22001987      -0.98797227       5.34330327       33       0.00495599      -0.00558675      -0.01521048
O        2.00480914       0.00643112       3.12152990       34       0.00691924      -0.01176751       0.01003904
O        0.93888318      -1.95281628       6.64879062       35      -0.01143768       0.01017000       0.00727206
O       -0.66220640       1.75717625       3.19954127       36      -0.01340093       0.00739355       0.00727206
O       -0.93888319      -0.76015459       5.08245615       37       0.01143768      -0.00121279       0.01244351
O       -0.40371957       4.97082236       1.55519543       38      -0.00495599       0.00558675       0.01521048
O        3.62779146       4.69796480       5.00444479       39      -0.00691924       0.00281030       0.01521048
40
Lattice="8.448900914356686 6.621954521700059e-10 1.191570863917599e-14 -2.8163003054098876 7.965700173265726 -1.1469771051999497e-09 -2.816300304473412 -3.982850085970651 6.898498709742865" Properties=species:S:1:pos:R:3:spacegroup_kinds:I:1:forces:R:3 spacegroup="P 1" unit_cell=conventional occupancy="_JSON {\"0\": {\"In\": 1}, \"1\": {\"In\": 1}, \"2\": {\"In\": 1}, \"3\": {\"In\": 1}, \"4\": {\"In\": 1}, \"5\": {\"In\": 1}, \"6\": {\"In\": 1}, \"7\": {\"In\": 1}, \"8\": {\"In\": 1}, \"9\": {\"In\": 1}, \"10\": {\"In\": 1}, \"11\": {\"In\": 1}, \"12\": {\"In\": 1}, \"13\": {\"In\": 1}, \"14\": {\"In\": 1}, \"15\": {\"In\": 1}, \"16\": {\"O\": 1}, \"17\": {\"O\": 1}, \"18\": {\"O\": 1}, \"19\": {\"O\": 1}, \"20\": {\"O\": 1}, \"21\": {\"O\": 1}, \"22\": {\"O\": 1}, \"23\": {\"O\": 1}, \"24\": {\"O\": 1}, \"25\": {\"O\": 1}, \"26\": {\"O\": 1}, \"27\": {\"O\": 1}, \"28\": {\"O\": 1}, \"29\": {\"O\": 1}, \"30\": {\"O\": 1}, \"31\": {\"O\": 1}, \"32\": {\"O\": 1}, \"33\": {\"O\": 1}, \"34\": {\"O\": 1}, \"35\": {\"O\": 1}, \"36\": {\"O\": 1}, \"37\": {\"O\": 1}, \"38\": {\"O\": 1}, \"39\": {\"O\": 1}}" n_minim_iter=4 energy=-45146.61794937458 stress="-0.16377671530353285 1.1053703880052096e-12 -3.6447773642307434e-13 1.1053703880052096e-12 -0.16377671530547722 -5.211300268069785e-13 -3.6447773642307434e-13 -5.211300268069785e-13 -0.16377671530311982" free_energy=-45146.61794937458 pbc="T T T"
In      -4.03188639       2.85097421       5.40971588        0      -0.00952163       0.00673281      -0.01166157
In       6.84818669       1.13187588       1.48878282        1       0.00952163      -0.00673281       0.01166157
In       1.21558609      -0.85954916       4.93803218        2       0.00952163      -0.00673281       0.01166157
In      -1.40815015      -1.99142504       3.44924935        3       0.00000000       0.00000000       0.00000000
In      -1.21558609       3.84668673       3.21340750        4      -0.00952163       0.00673281       0.01166157
In       4.41701452      -2.71481085       5.17387403        5      -0.00952163      -0.01346562       0.00000000
In      -1.21558609       1.26803924       5.17387403        6      -0.00952163      -0.01346562       0.00000000
In      -1.60071422       6.69766094       1.72462467        7       0.00952163       0.01346562       0.00000000
In       4.03188639       0.13616336       3.68509120        8       0.00952163      -0.00673281      -0.01166157
In      -1.40815015       3.98285009      -0.00000000        9       0.00000000       0.00000000      -0.00000000
In       4.03188639       6.11043849       0.23584185       10       0.00952163      -0.00673281      -0.01166157
In      -1.21558609      -2.12758840       6.66265686       11      -0.00952163       0.00673281       0.01166157
In       4.03188639       2.71481085       1.72462467       12       0.00952163       0.01346562      -0.00000000
In       1.60071422       4.84239925       1.96046653       13      -0.00952163       0.00673281      -0.01166157
In       4.22445046       0.00000000      -0.00000000       14      -0.00000000       0.00000000       0.00000000
In       1.40815015       1.99142505       3.44924935       15       0.00000000       0.00000000      -0.00000000
O        0.81107115       3.97723823       3.77602921       16      -0.00128594      -0.00354076       0.00124268
O       -2.00522915       3.27294315       5.01534411       17      -0.00128594       0.00284658       0.00244505
O       -0.40424054       2.14087325       0.07764800       18      -0.00108313       0.00270317       0.00269344
O       -0.81107115      -0.71551879       1.89287461       19       0.00128594      -0.00069419       0.00368773
O        3.75417011       4.74319898       1.81522661       20       0.00311243       0.00224925       0.00099429
O        1.87843050       2.79099217       1.56609476       21      -0.00311243       0.00026354       0.00244505
O        1.87843050       5.93505690       0.24913185       22      -0.00311243       0.00198571      -0.00145076
O       -2.15318150       5.64177235       3.52689735       23      -0.00290962       0.00012013       0.00269344
O        3.22054084       1.84197684       6.82085071       24       0.00108313      -0.00270317      -0.00269344
O        4.96948180      -1.65892226       3.37160135       25       0.00290962      -0.00012013      -0.00269344
O        6.03684115       3.12910681       1.63402274       26       0.00108313       0.00368417      -0.00099429
O        3.47941911       2.22492158       3.69838121       27      -0.00290962       0.00227252      -0.00145076
O        0.66311880       4.08185634       6.57171885       28      -0.00290962      -0.00239265      -0.00124268
O        2.15318150      -0.09900625       0.32677985       29       0.00290962       0.00239265       0.00124268
O       -3.22054084       0.85374328       5.26447597       30      -0.00108313      -0.00368417       0.00099429
O        4.82152946       0.70990694       1.88315459       31       0.00128594      -0.00284658      -0.00244505
O        0.93786981       1.19185792       5.33240395       32       0.00311243      -0.00026354      -0.00244505
O        3.22054084      -0.98823356       5.34212397       33       0.00108313      -0.00098100       0.00368773
O        2.00522915       0.00561186       3.12246950       34       0.00128594       0.00354076      -0.00124268
O        0.93786981      -1.95220680       6.64936685       35       0.00311243      -0.00198571       0.00145076
O       -0.66311881       1.75792851       3.20011750       36       0.00290962      -0.00227252       0.00145076
O       -0.93786981      -0.76034889       5.08327209       37      -0.00311243      -0.00224925      -0.00099429
O       -0.40424054       4.97108365       1.55637473       38      -0.00108313       0.00098100      -0.00368773
O        3.62737146       4.69836888       5.00562409       39      -0.00128594       0.00069419      -0.00368773
40
Lattice="8.44890091435669 6.621954521700062e-10 1.1915708639176036e-14 -2.816300305409889 7.96570017326573 -1.1469771051999502e-09 -2.816300304473413 -3.982850085970653 6.898498709742869" Properties=species:S:1:pos:R:3:spacegroup_kinds:I:1:forces:R:3 spacegroup="P 1" unit_cell=conventional occupancy="_JSON {\"0\": {\"In\": 1}, \"1\": {\"In\": 1}, \"2\": {\"In\": 1}, \"3\": {\"In\": 1}, \"4\": {\"In\": 1}, \"5\": {\"In\": 1}, \"6\": {\"In\": 1}, \"7\": {\"In\": 1}, \"8\": {\"In\": 1}, \"9\": {\"In\": 1}, \"10\": {\"In\": 1}, \"11\": {\"In\": 1}, \"12\": {\"In\": 1}, \"13\": {\"In\": 1}, \"14\": {\"In\": 1}, \"15\": {\"In\": 1}, \"16\": {\"O\": 1}, \"17\": {\"O\": 1}, \"18\": {\"O\": 1}, \"19\": {\"O\": 1}, \"20\": {\"O\": 1}, \"21\": {\"O\": 1}, \"22\": {\"O\": 1}, \"23\": {\"O\": 1}, \"24\": {\"O\": 1}, \"25\": {\"O\": 1}, \"26\": {\"O\": 1}, \"27\": {\"O\": 1}, \"28\": {\"O\": 1}, \"29\": {\"O\": 1}, \"30\": {\"O\": 1}, \"31\": {\"O\": 1}, \"32\": {\"O\": 1}, \"33\": {\"O\": 1}, \"34\": {\"O\": 1}, \"35\": {\"O\": 1}, \"36\": {\"O\": 1}, \"37\": {\"O\": 1}, \"38\": {\"O\": 1}, \"39\": {\"O\": 1}}" n_minim_iter=5 energy=-45146.61804484747 stress="-0.16368331494206748 1.2264430968957204e-12 -4.639551026943923e-13 1.2264430968957204e-12 -0.16368331494325425 -2.2610276016146006e-13 -4.639551026943923e-13 -2.2610276016146006e-13 -0.163683314942534" free_energy=-45146.61804484747 pbc="T T T"
In      -4.03234448       2.85129812       5.40915485        0      -0.00346250       0.00244836      -0.00424068
In       6.84864478       1.13155197       1.48934386        1       0.00346250      -0.00244836       0.00424068
In       1.21604417      -0.85987308       4.93859321        2       0.00346250      -0.00244836       0.00424068
In      -1.40815015      -1.99142504       3.44924935        3      -0.00000000       0.00000000      -0.00000000
In      -1.21604417       3.84701065       3.21396854        4      -0.00346250       0.00244836       0.00424068
In       4.41655644      -2.71545868       5.17387403        5      -0.00346250      -0.00489672      -0.00000000
In      -1.21604417       1.26739141       5.17387403        6      -0.00346250      -0.00489672      -0.00000000
In      -1.60025614       6.69830877       1.72462467        7       0.00346250       0.00489672       0.00000000
In       4.03234447       0.13583945       3.68453017        8       0.00346250      -0.00244836      -0.00424068
In      -1.40815015       3.98285009      -0.00000000        9      -0.00000000       0.00000000       0.00000000
In       4.03234447       6.11011457       0.23528081       10       0.00346250      -0.00244836      -0.00424068
In      -1.21604417      -2.12726448       6.66321789       11      -0.00346250       0.00244836       0.00424068
In       4.03234447       2.71545868       1.72462467       12       0.00346250       0.00489672      -0.00000000
In       1.60025613       4.84272317       1.95990549       13      -0.00346250       0.00244836      -0.00424068
In       4.22445046       0.00000000      -0.00000000       14      -0.00000000       0.00000000      -0.00000000
In       1.40815015       1.99142505       3.44924935       15      -0.00000000       0.00000000      -0.00000000
O        0.81020259       3.97721077       3.77619043       16       0.00181022      -0.00753105      -0.00627233
O       -2.00609771       3.27309650       5.01528729       17       0.00181022      -0.00166647       0.00965825
O       -0.40441137       2.14053323       0.07844571       18      -0.00806811       0.00531855      -0.00244018
O       -0.81020260      -0.71539290       1.89297901       19      -0.00181022      -0.00919753       0.00338592
O        3.75460421       4.74353365       1.81453329       20      -0.00217457       0.00778869       0.00582609
O        1.87799639       2.79175994       1.56603793       21       0.00217457      -0.00115120       0.00965825
O        1.87799639       5.93462380       0.24849536       22       0.00217457       0.00893989      -0.00383216
O       -2.15291787       5.64204675       3.52769507       23      -0.00770375       0.00583383      -0.00244018
O        3.22071167       1.84231686       6.82005299       24       0.00806811      -0.00531855       0.00244018
O        4.96921817      -1.65919666       3.37080364       25       0.00770375      -0.00583383       0.00244018
O        6.03701197       3.12962764       1.63471606       26       0.00806811       0.00054602      -0.00582609
O        3.47968274       2.22547522       3.69774471       27      -0.00770375      -0.00503017      -0.00383216
O        0.66338243       4.08102830       6.57155763       28      -0.00770375      -0.00080366       0.00627233
O        2.15291787      -0.09817821       0.32694107       29       0.00770375       0.00080366      -0.00627233
O       -3.22071167       0.85322245       5.26378265       30      -0.00806811      -0.00054602       0.00582609
O        4.82239801       0.70975359       1.88321142       31      -0.00181022       0.00166647      -0.00965825
O        0.93830391       1.19109015       5.33246077       32      -0.00217457       0.00115120      -0.00965825
O        3.22071167      -0.98909441       5.34222836       33       0.00806811       0.00477253       0.00338592
O        2.00609771       0.00563932       3.12230828       34      -0.00181022       0.00753105       0.00627233
O        0.93830391      -1.95177371       6.65000334       35      -0.00217457      -0.00893989       0.00383216
O       -0.66338244       1.75737487       3.20075399       36       0.00770375       0.00503017       0.00383216
O       -0.93830391      -0.76068356       5.08396541       37       0.00217457      -0.00778869      -0.00582609
O       -0.40441137       4.97194450       1.55627034       38      -0.00806811      -0.00477253      -0.00338592
O        3.62650290       4.69824299       5.00551970       39       0.00181022       0.00919753      -0.00338592
