40
Lattice="8.19271428010788 6.421151249928922e-10 2.602866369660288e-14 -2.730904760641355 7.724165098170164 -1.1122039339906128e-09 -2.7309047597332827 -3.862082548442952 6.689323198781935" Properties=species:S:1:pos:R:3:spacegroup_kinds:I:1:forces:R:3 spacegroup="P 1" unit_cell=conventional occupancy="_JSON {\"0\": {\"In\": 1}, \"1\": {\"In\": 1}, \"2\": {\"In\": 1}, \"3\": {\"In\": 1}, \"4\": {\"In\": 1}, \"5\": {\"In\": 1}, \"6\": {\"In\": 1}, \"7\": {\"In\": 1}, \"8\": {\"In\": 1}, \"9\": {\"In\": 1}, \"10\": {\"In\": 1}, \"11\": {\"In\": 1}, \"12\": {\"In\": 1}, \"13\": {\"In\": 1}, \"14\": {\"In\": 1}, \"15\": {\"In\": 1}, \"16\": {\"O\": 1}, \"17\": {\"O\": 1}, \"18\": {\"O\": 1}, \"19\": {\"O\": 1}, \"20\": {\"O\": 1}, \"21\": {\"O\": 1}, \"22\": {\"O\": 1}, \"23\": {\"O\": 1}, \"24\": {\"O\": 1}, \"25\": {\"O\": 1}, \"26\": {\"O\": 1}, \"27\": {\"O\": 1}, \"28\": {\"O\": 1}, \"29\": {\"O\": 1}, \"30\": {\"O\": 1}, \"31\": {\"O\": 1}, \"32\": {\"O\": 1}, \"33\": {\"O\": 1}, \"34\": {\"O\": 1}, \"35\": {\"O\": 1}, \"36\": {\"O\": 1}, \"37\": {\"O\": 1}, \"38\": {\"O\": 1}, \"39\": {\"O\": 1}}" n_minim_iter=7 energy=-45136.72546445299 stress="-0.33403928096650354 -6.930433522184808e-14 -2.744353113701746e-13 -6.930433522184808e-14 -0.3340392809687443 -1.4565219480988985e-13 -2.744353113701746e-13 -1.4565219480988985e-13 -0.3340392809682689" free_energy=-45136.72546445299 pbc="T T T"
In      -3.89711615       2.75567725       5.26101178        0      -0.00166221       0.00117536      -0.00203578
In       6.62802090       1.10640530       1.42831141        1       0.00166221      -0.00117536       0.00203578
In       1.16621138      -0.82463598       4.77297301        2       0.00166221      -0.00117536       0.00203578
In      -1.36545238      -1.93104127       3.34466160        3      -0.00000000       0.00000000       0.00000000
In      -1.16621139       3.72119789       3.10064221        4      -0.00166221       0.00117536       0.00203578
In       4.29559813      -2.61479259       5.01699240        5      -0.00166221      -0.00235072       0.00000000
In      -1.16621139       1.24728996       5.01699240        6      -0.00166221      -0.00235072      -0.00000000
In      -1.56469338       6.47687515       1.67233080        7       0.00166221       0.00235072       0.00000000
In       3.89711614       0.14088466       3.58868098        8       0.00166221      -0.00117536      -0.00203578
In      -1.36545238       3.86208255      -0.00000000        9       0.00000000       0.00000000      -0.00000000
In       3.89711614       5.93400848       0.24401938       10       0.00166221      -0.00117536      -0.00203578
In      -1.16621139      -2.07192593       6.44530381       11      -0.00166221       0.00117536       0.00203578
In       3.89711614       2.61479260       1.67233080       12       0.00166221       0.00235072       0.00000000
In       1.56469337       4.68671853       1.91635018       13      -0.00166221       0.00117536      -0.00203578
In       4.09635714       0.00000000      -0.00000000       14       0.00000000      -0.00000000      -0.00000000
In       1.36545238       1.93104128       3.34466160       15       0.00000000      -0.00000000      -0.00000000
O        0.77264775       3.85049783       3.69258618       16       0.00158150      -0.00441500       0.00057983
O       -1.95825701       3.20366580       4.85306276       17       0.00158150       0.00270965       0.00353359
O       -0.37413419       2.08352181       0.10388586       18      -0.00108066       0.00459208       0.00027313
O       -0.77264775      -0.67000147       1.85632575       19      -0.00158150      -0.00170535       0.00411342
O        3.67319741       4.59206255       1.75243988       20       0.00202752       0.00186305       0.00384029
O        1.78861210       2.70941509       1.50840117       21      -0.00202752      -0.00239426       0.00353359
O        1.78861210       5.74473001       0.24403872       22      -0.00202752       0.00425731       0.00030670
O       -2.08907460       5.45135365       3.44854746       23      -0.00468967      -0.00051184       0.00027313
O        3.10503895       1.77856074       6.58543733       24       0.00108066      -0.00459208      -0.00027313
O        4.81997936      -1.58927110       3.24077573       25       0.00468967       0.00051184      -0.00027313
O        5.83594371       3.06276998       1.59222171       26       0.00108066       0.00253258      -0.00384029
O        3.37273492       2.19189416       3.58870032       27      -0.00468967       0.00049246       0.00030670
O        0.64183016       3.94299984       6.34139861       28      -0.00468967       0.00001938      -0.00057983
O        2.08907460      -0.08091729       0.34792458       29       0.00468967      -0.00001938       0.00057983
O       -3.10503895       0.79931257       5.09710148       30      -0.00108066      -0.00253258       0.00384029
O        4.68916177       0.65841675       1.83626043       31      -0.00158150      -0.00270965      -0.00353359
O        0.94229265       1.15266746       5.18092203       32       0.00202752       0.00239426      -0.00353359
O        3.10503895      -0.97924816       5.20098735       33       0.00108066       0.00205950       0.00411342
O        1.95825701       0.01158472       2.99673702       34      -0.00158150       0.00441500      -0.00057983
O        0.94229265      -1.88264746       6.44528448       35       0.00202752      -0.00425731      -0.00030670
O       -0.64183016       1.67018839       3.10062288       36       0.00468967      -0.00049246      -0.00030670
O       -0.94229266      -0.72998000       4.93688331       37      -0.00202752      -0.00186305      -0.00384029
O       -0.37413419       4.84133072       1.48833585       38      -0.00108066      -0.00205950      -0.00411342
O        3.50355251       4.53208402       4.83299745       39       0.00158150       0.00170535      -0.00411342
