40
Lattice="9.478093537146524 7.428623145330524e-10 2.3636434206220776e-14 -3.159364513082549 8.936032283534642 -1.2866879289726647e-09 -3.159364512032006 -4.468016141024454 7.7388309674366464" Properties=species:S:1:pos:R:3:spacegroup_kinds:I:1:forces:R:3 spacegroup="P 1" unit_cell=conventional occupancy="_JSON {\"0\": {\"In\": 1}, \"1\": {\"In\": 1}, \"2\": {\"In\": 1}, \"3\": {\"In\": 1}, \"4\": {\"In\": 1}, \"5\": {\"In\": 1}, \"6\": {\"In\": 1}, \"7\": {\"In\": 1}, \"8\": {\"In\": 1}, \"9\": {\"In\": 1}, \"10\": {\"In\": 1}, \"11\": {\"In\": 1}, \"12\": {\"In\": 1}, \"13\": {\"In\": 1}, \"14\": {\"In\": 1}, \"15\": {\"In\": 1}, \"16\": {\"O\": 1}, \"17\": {\"O\": 1}, \"18\": {\"O\": 1}, \"19\": {\"O\": 1}, \"20\": {\"O\": 1}, \"21\": {\"O\": 1}, \"22\": {\"O\": 1}, \"23\": {\"O\": 1}, \"24\": {\"O\": 1}, \"25\": {\"O\": 1}, \"26\": {\"O\": 1}, \"27\": {\"O\": 1}, \"28\": {\"O\": 1}, \"29\": {\"O\": 1}, \"30\": {\"O\": 1}, \"31\": {\"O\": 1}, \"32\": {\"O\": 1}, \"33\": {\"O\": 1}, \"34\": {\"O\": 1}, \"35\": {\"O\": 1}, \"36\": {\"O\": 1}, \"37\": {\"O\": 1}, \"38\": {\"O\": 1}, \"39\": {\"O\": 1}}" n_minim_iter=1 energy=-45145.57603362861 stress="0.09980027890185114 3.959253754709489e-13 9.498105291010567e-14 3.959253754709489e-13 0.09980027890173822 2.756324225071317e-13 9.498105291010567e-14 2.756324225071317e-13 0.09980027890102218" free_energy=-45145.57603362861 pbc="T T T"
In      -4.50405292       3.18484637       6.09193073        0       0.03357731      -0.02374274       0.04112364
In       7.66341743       1.28316978       1.64690023        1      -0.03357731       0.02374274      -0.04112364
In       1.34468841      -0.95083829       5.51631572        2      -0.03357731       0.02374274      -0.04112364
In      -1.57968226      -2.23400807       3.86941548        3       0.00000000       0.00000000       0.00000000
In      -1.34468841       4.30185040       3.58160797        4       0.03357731      -0.02374274      -0.04112364
In       4.97404061      -3.01868062       5.80412322        5       0.03357731       0.04748549      -0.00000000
In      -1.34468841       1.44933552       5.80412322        6       0.03357731       0.04748549      -0.00000000
In      -1.81467610       7.48669677       1.93470774        7      -0.03357731      -0.04748549       0.00000000
In       4.50405292       0.16616574       4.15722299        8      -0.03357731       0.02374274       0.04112364
In      -1.57968226       4.46801614      -0.00000000        9       0.00000000      -0.00000000      -0.00000000
In       4.50405292       6.86818996       0.28780750       10      -0.03357731       0.02374274       0.04112364
In      -1.34468841      -2.40017381       7.45102346       11       0.03357731      -0.02374274      -0.04112364
In       4.50405292       3.01868062       1.93470774       12      -0.03357731      -0.04748549       0.00000000
In       1.81467610       5.41885444       2.22251525       13       0.03357731      -0.02374274       0.04112364
In       4.73904677       0.00000000      -0.00000000       14       0.00000000      -0.00000000       0.00000000
In       1.57968225       2.23400807       3.86941548       15       0.00000000      -0.00000000      -0.00000000
O        0.98179597       4.48031723       4.18130622       16       0.01483668       0.01912071      -0.03549622
O       -2.17756855       3.61496687       5.63752480       17       0.01483668      -0.04030098       0.00118909
O       -0.46539968       2.40428065      -0.00433612       18      -0.01502339      -0.01918672      -0.03538188
O       -0.98179597      -0.84074819       2.08000006       19      -0.01483668      -0.02118027      -0.03430713
O        4.13407963       5.30626088       2.08433618       20      -0.04294169       0.00075253       0.00107475
O        2.18464939       3.08205043       1.76810932       21       0.04294169      -0.00055450       0.00118909
O        2.18464939       6.69222659       0.31622685       22       0.04294169       0.00130703      -0.00011434
O       -2.42191076       6.33938035       3.86507936       23       0.01308162       0.02055977      -0.03538188
O        3.62476419       2.06373550       7.74316708       24       0.01502339       0.01918672       0.03538188
O        5.58127527      -1.87136421       3.87375160       25      -0.01308162      -0.02055977       0.03538188
O        6.78412870       3.43239321       1.78507930       26       0.01502339      -0.04023497      -0.00107475
O        3.89681826       2.41157482       4.18564234       27       0.01308162      -0.04092149      -0.00011434
O        0.73745375       4.65309326       7.42694023       28       0.01308162       0.02036173       0.03549622
O        2.42191076      -0.18507712       0.31189073       29      -0.01308162      -0.02036173      -0.03549622
O       -3.62476419       1.03562294       5.95375166       30      -0.01502339       0.04023497       0.00107475
O        5.33693306       0.85304928       2.10130616       31      -0.01483668       0.04030098      -0.00118909
O        0.97471511       1.38596572       5.97072164       32      -0.04294169       0.00055450      -0.00118909
O        3.62476419      -1.02811256       5.94941554       33       0.01502339       0.02104825      -0.03430713
O        2.17756854      -0.01230108       3.55752474       34      -0.01483668      -0.01912071       0.03549622
O        0.97471512      -2.22421044       7.42260411       35      -0.04294169      -0.00130703       0.00011434
O       -0.73745376       2.05644133       3.55318863       36      -0.01308162       0.04092149       0.00011434
O       -0.97471512      -0.83824473       5.65449479       37       0.04294169      -0.00075253      -0.00107475
O       -0.46539968       5.49612870       1.78941542       38      -0.01502339      -0.02104825       0.03430713
O        4.14116048       5.30876434       5.65883090       39       0.01483668       0.02118027       0.03430713
40
Lattice="9.478093537146531 7.42862314533053e-10 2.363643420622083e-14 -3.159364513082552 8.936032283534647 -1.2866879289726662e-09 -3.1593645120320093 -4.4680161410244565 7.738830967436655" Properties=species:S:1:pos:R:3:spacegroup_kinds:I:1:forces:R:3 spacegroup="P 1" unit_cell=conventional occupancy="_JSON {\"0\": {\"In\": 1}, \"1\": {\"In\": 1}, \"2\": {\"In\": 1}, \"3\": {\"In\": 1}, \"4\": {\"In\": 1}, \"5\": {\"In\": 1}, \"6\": {\"In\": 1}, \"7\": {\"In\": 1}, \"8\": {\"In\": 1}, \"9\": {\"In\": 1}, \"10\": {\"In\": 1}, \"11\": {\"In\": 1}, \"12\": {\"In\": 1}, \"13\": {\"In\": 1}, \"14\": {\"In\": 1}, \"15\": {\"In\": 1}, \"16\": {\"O\": 1}, \"17\": {\"O\": 1}, \"18\": {\"O\": 1}, \"19\": {\"O\": 1}, \"20\": {\"O\": 1}, \"21\": {\"O\": 1}, \"22\": {\"O\": 1}, \"23\": {\"O\": 1}, \"24\": {\"O\": 1}, \"25\": {\"O\": 1}, \"26\": {\"O\": 1}, \"27\": {\"O\": 1}, \"28\": {\"O\": 1}, \"29\": {\"O\": 1}, \"30\": {\"O\": 1}, \"31\": {\"O\": 1}, \"32\": {\"O\": 1}, \"33\": {\"O\": 1}, \"34\": {\"O\": 1}, \"35\": {\"O\": 1}, \"36\": {\"O\": 1}, \"37\": {\"O\": 1}, \"38\": {\"O\": 1}, \"39\": {\"O\": 1}}" n_minim_iter=2 energy=-45145.583413869936 stress="0.09861546094062043 1.806546513875801e-13 -1.8381446519775806e-13 1.806546513875801e-13 0.09861546094029866 -5.741177099918345e-14 -1.8381446519775806e-13 -5.741177099918345e-14 0.09861546094011289" free_energy=-45145.583413869936 pbc="T T T"
In      -4.49817137       3.18068748       6.09913413        0       0.00531658      -0.00375939       0.00651146
In       7.65753588       1.28732867       1.63969683        1      -0.00531658       0.00375939      -0.00651146
In       1.33880686      -0.94667940       5.50911231        2      -0.00531658       0.00375939      -0.00651146
In      -1.57968226      -2.23400807       3.86941548        3      -0.00000000       0.00000000       0.00000000
In      -1.33880686       4.29769152       3.57440457        4       0.00531658      -0.00375939      -0.00651146
In       4.97992217      -3.01036285       5.80412322        5       0.00531658       0.00751879      -0.00000000
In      -1.33880686       1.45765329       5.80412322        6       0.00531658       0.00751879       0.00000000
In      -1.82055766       7.47837899       1.93470774        7      -0.00531658      -0.00751879      -0.00000000
In       4.49817137       0.17032463       4.16442639        8      -0.00531658       0.00375939       0.00651146
In      -1.57968226       4.46801614      -0.00000000        9       0.00000000       0.00000000       0.00000000
In       4.49817137       6.87234884       0.29501091       10      -0.00531658       0.00375939       0.00651146
In      -1.33880686      -2.40433270       7.44382006       11       0.00531658      -0.00375939      -0.00651146
In       4.49817137       3.01036285       1.93470774       12      -0.00531658      -0.00751879       0.00000000
In       1.82055765       5.41469555       2.22971865       13       0.00531658      -0.00375939       0.00651146
In       4.73904677       0.00000000      -0.00000000       14       0.00000000       0.00000000      -0.00000000
In       1.57968225       2.23400807       3.86941548       15       0.00000000      -0.00000000      -0.00000000
O        0.98439483       4.48366650       4.17508854       16       0.02117057      -0.01900907       0.00802890
O       -2.17496969       3.60790757       5.63773309       17       0.02117057       0.01645777       0.01244788
O       -0.46803124       2.40091982      -0.01053377       18       0.00465147       0.02813854      -0.00778380
O       -0.98439483      -0.84445822       2.07399067       19      -0.02117057      -0.00255130       0.02047679
O        4.12655777       5.30639270       2.08452443       20       0.00845968      -0.00194268       0.02826059
O        2.19217125       3.08195330       1.76831761       21      -0.00845968      -0.02544573       0.01244788
O        2.19217125       6.69245554       0.31620682       22      -0.00845968       0.02350305       0.01581270
O       -2.41961933       6.34298169       3.85888171       23      -0.02497878      -0.01376496      -0.00778380
O        3.62739575       2.06709633       7.74936473       24      -0.00465147      -0.02813854       0.00778380
O        5.57898383      -1.87496555       3.87994925       25       0.02497878       0.01376496       0.00778380
O        6.78676026       3.42534547       1.78489104       26      -0.00465147       0.00732830      -0.02826059
O        3.89910970       2.40440682       4.18562231       27      -0.02497878       0.00014151       0.01581270
O        0.73974519       4.65665992       7.43315790       28      -0.02497878       0.01362345      -0.00802890
O        2.41961932      -0.18864377       0.30567306       29       0.02497878      -0.01362345       0.00802890
O       -3.62739575       1.04267068       5.95393992       30       0.00465147      -0.00732830       0.02826059
O        5.33433420       0.86010858       2.10109787       31      -0.02117057      -0.01645777      -0.01244788
O        0.96719325       1.38606284       5.97051335       32       0.00845968       0.02544573      -0.01244788
O        3.62739575      -1.02442565       5.94340615       33      -0.00465147       0.02081024       0.02047679
O        2.17496968      -0.01565035       3.56374242       34      -0.02117057       0.01900907      -0.00802890
O        0.96719325      -2.22443939       7.42262414       35       0.00845968      -0.02350305      -0.01581270
O       -0.73974519       2.06360932       3.55320865       36       0.02497878      -0.00014151      -0.01581270
O       -0.96719326      -0.83837655       5.65430653       37      -0.00845968       0.00194268      -0.02826059
O       -0.46803124       5.49244180       1.79542481       38       0.00465147      -0.02081024      -0.02047679
O        4.14375934       5.31247437       5.66484029       39       0.02117057       0.00255130      -0.02047679
40
Lattice="9.478093537146538 7.428623145330537e-10 2.3636434206220918e-14 -3.159364513082555 8.936032283534656 -1.2866879289726672e-09 -3.1593645120320124 -4.468016141024461 7.7388309674366615" Properties=species:S:1:pos:R:3:spacegroup_kinds:I:1:forces:R:3 spacegroup="P 1" unit_cell=conventional occupancy="_JSON {\"0\": {\"In\": 1}, \"1\": {\"In\": 1}, \"2\": {\"In\": 1}, \"3\": {\"In\": 1}, \"4\": {\"In\": 1}, \"5\": {\"In\": 1}, \"6\": {\"In\": 1}, \"7\": {\"In\": 1}, \"8\": {\"In\": 1}, \"9\": {\"In\": 1}, \"10\": {\"In\": 1}, \"11\": {\"In\": 1}, \"12\": {\"In\": 1}, \"13\": {\"In\": 1}, \"14\": {\"In\": 1}, \"15\": {\"In\": 1}, \"16\": {\"O\": 1}, \"17\": {\"O\": 1}, \"18\": {\"O\": 1}, \"19\": {\"O\": 1}, \"20\": {\"O\": 1}, \"21\": {\"O\": 1}, \"22\": {\"O\": 1}, \"23\": {\"O\": 1}, \"24\": {\"O\": 1}, \"25\": {\"O\": 1}, \"26\": {\"O\": 1}, \"27\": {\"O\": 1}, \"28\": {\"O\": 1}, \"29\": {\"O\": 1}, \"30\": {\"O\": 1}, \"31\": {\"O\": 1}, \"32\": {\"O\": 1}, \"33\": {\"O\": 1}, \"34\": {\"O\": 1}, \"35\": {\"O\": 1}, \"36\": {\"O\": 1}, \"37\": {\"O\": 1}, \"38\": {\"O\": 1}, \"39\": {\"O\": 1}}" n_minim_iter=3 energy=-45145.5852404616 stress="0.09858797802006053 -7.903601828448376e-14 6.605321038752704e-13 -7.903601828448376e-14 0.09858797801971232 -7.332845518898143e-14 6.605321038752704e-13 -7.332845518898143e-14 0.09858797802053669" free_energy=-45145.5852404616 pbc="T T T"
In      -4.49705055       3.17989494       6.10050686        0       0.00319836      -0.00226158       0.00391717
In       7.65641505       1.28812121       1.63832410        1      -0.00319836       0.00226158      -0.00391717
In       1.33768603      -0.94588686       5.50773959        2      -0.00319836       0.00226158      -0.00391717
In      -1.57968226      -2.23400807       3.86941548        3      -0.00000000       0.00000000       0.00000000
In      -1.33768603       4.29689897       3.57303184        4       0.00319835      -0.00226158      -0.00391717
In       4.98104299      -3.00877776       5.80412322        5       0.00319836       0.00452316      -0.00000000
In      -1.33768603       1.45923838       5.80412322        6       0.00319836       0.00452316      -0.00000000
In      -1.82167848       7.47679391       1.93470774        7      -0.00319836      -0.00452316       0.00000000
In       4.49705054       0.17111717       4.16579912        8      -0.00319836       0.00226158       0.00391717
In      -1.57968226       4.46801614      -0.00000000        9      -0.00000000       0.00000000       0.00000000
In       4.49705054       6.87314139       0.29638363       10      -0.00319836       0.00226158       0.00391717
In      -1.33768603      -2.40512524       7.44244733       11       0.00319835      -0.00226158      -0.00391717
In       4.49705054       3.00877777       1.93470774       12      -0.00319835      -0.00452316      -0.00000000
In       1.82167848       5.41390301       2.23109137       13       0.00319835      -0.00226158       0.00391717
In       4.73904677       0.00000000      -0.00000000       14       0.00000000       0.00000000      -0.00000000
In       1.57968225       2.23400807       3.86941548       15      -0.00000000       0.00000000       0.00000000
O        0.98802690       4.48063207       4.17617849       16       0.01272914       0.01636439      -0.00179638
O       -2.17133762       3.61036870       5.63981600       17       0.01272914      -0.00973790      -0.01327379
O       -0.46736105       2.40547532      -0.01207841       18       0.01049056      -0.00815499      -0.01601548
O       -0.98802690      -0.84503151       2.07716353       19      -0.01272914       0.00662649      -0.01507017
O        4.12766746       5.30607418       2.08924193       20      -0.01342403      -0.01587303       0.00094532
O        2.19106156       3.07770857       1.77040052       21       0.01342403      -0.00875518      -0.01327379
O        2.19106156       6.69638175       0.31884141       22       0.01342403      -0.00711785       0.01421911
O       -2.42369090       6.34083133       3.85733708       23       0.01118545      -0.00717227      -0.01601548
O        3.62672556       2.06254083       7.75090937       24      -0.01049056       0.00815499       0.01601548
O        5.58305541      -1.87281518       3.88149388       25      -0.01118545       0.00717227       0.01601548
O        6.78609007       3.42628553       1.78017355       26      -0.01049056      -0.01794731      -0.00094532
O        3.89503813       2.40414431       4.18825689       27       0.01118545      -0.01028368       0.01421911
O        0.73567362       4.65907279       7.43206795       28       0.01118545       0.01745595       0.00179638
O        2.42369089      -0.19105664       0.30676301       29      -0.01118545      -0.01745595      -0.00179638
O       -3.62672556       1.04173062       5.95865741       30       0.01049056       0.01794731       0.00094532
O        5.33070213       0.85764744       2.09901496       31      -0.01272914       0.00973790       0.01327379
O        0.96830295       1.39030757       5.96843044       32      -0.01342403       0.00875518       0.01327379
O        3.62672556      -1.02081021       5.94657901       33      -0.01049056       0.00979232      -0.01507017
O        2.17133761      -0.01261593       3.56265247       34      -0.01272914      -0.01636439       0.00179638
O        0.96830295      -2.22836561       7.41998955       35      -0.01342403       0.00711785      -0.01421911
O       -0.73567362       2.06387184       3.55057407       36      -0.01118545       0.01028368      -0.01421911
O       -0.96830295      -0.83805804       5.64958903       37       0.01342403       0.01587303      -0.00094532
O       -0.46736105       5.48882635       1.79225195       38       0.01049056      -0.00979232       0.01507017
O        4.14739141       5.31304765       5.66166743       39       0.01272914      -0.00662649       0.01507017
40
Lattice="9.478093537146544 7.42862314533054e-10 2.363643420622092e-14 -3.1593645130825565 8.93603228353466 -1.2866879289726676e-09 -3.1593645120320137 -4.468016141024463 7.738830967436664" Properties=species:S:1:pos:R:3:spacegroup_kinds:I:1:forces:R:3 spacegroup="P 1" unit_cell=conventional occupancy="_JSON {\"0\": {\"In\": 1}, \"1\": {\"In\": 1}, \"2\": {\"In\": 1}, \"3\": {\"In\": 1}, \"4\": {\"In\": 1}, \"5\": {\"In\": 1}, \"6\": {\"In\": 1}, \"7\": {\"In\": 1}, \"8\": {\"In\": 1}, \"9\": {\"In\": 1}, \"10\": {\"In\": 1}, \"11\": {\"In\": 1}, \"12\": {\"In\": 1}, \"13\": {\"In\": 1}, \"14\": {\"In\": 1}, \"15\": {\"In\": 1}, \"16\": {\"O\": 1}, \"17\": {\"O\": 1}, \"18\": {\"O\": 1}, \"19\": {\"O\": 1}, \"20\": {\"O\": 1}, \"21\": {\"O\": 1}, \"22\": {\"O\": 1}, \"23\": {\"O\": 1}, \"24\": {\"O\": 1}, \"25\": {\"O\": 1}, \"26\": {\"O\": 1}, \"27\": {\"O\": 1}, \"28\": {\"O\": 1}, \"29\": {\"O\": 1}, \"30\": {\"O\": 1}, \"31\": {\"O\": 1}, \"32\": {\"O\": 1}, \"33\": {\"O\": 1}, \"34\": {\"O\": 1}, \"35\": {\"O\": 1}, \"36\": {\"O\": 1}, \"37\": {\"O\": 1}, \"38\": {\"O\": 1}, \"39\": {\"O\": 1}}" n_minim_iter=4 energy=-45145.58571702383 stress="0.09831267999203669 1.6499538661431569e-13 2.2722395806111438e-13 1.6499538661431569e-13 0.09831267999180668 -2.1324918344741964e-13 2.2722395806111438e-13 -2.1324918344741964e-13 0.09831267999101466" free_energy=-45145.58571702383 pbc="T T T"
In      -4.49565447       3.17890776       6.10221670        0      -0.00294959       0.00208567      -0.00361249
In       7.65501897       1.28910839       1.63661426        1       0.00294959      -0.00208567       0.00361249
In       1.33628995      -0.94489968       5.50602975        2       0.00294959      -0.00208567       0.00361249
In      -1.57968226      -2.23400807       3.86941548        3       0.00000000       0.00000000       0.00000000
In      -1.33628995       4.29591179       3.57132200        4      -0.00294959       0.00208567       0.00361249
In       4.98243907      -3.00680340       5.80412322        5      -0.00294959      -0.00417135       0.00000000
In      -1.33628995       1.46121274       5.80412322        6      -0.00294959      -0.00417135       0.00000000
In      -1.82307456       7.47481955       1.93470774        7       0.00294959       0.00417135      -0.00000000
In       4.49565446       0.17210435       4.16750896        8       0.00294959      -0.00208567      -0.00361249
In      -1.57968226       4.46801614      -0.00000000        9      -0.00000000      -0.00000000       0.00000000
In       4.49565446       6.87412856       0.29809347       10       0.00294959      -0.00208567      -0.00361249
In      -1.33628995      -2.40611242       7.44073749       11      -0.00294959       0.00208567       0.00361249
In       4.49565446       3.00680341       1.93470774       12       0.00294959       0.00417135       0.00000000
In       1.82307456       5.41291583       2.23280122       13      -0.00294959       0.00208567      -0.00361249
In       4.73904677       0.00000000      -0.00000000       14      -0.00000000      -0.00000000       0.00000000
In       1.57968225       2.23400807       3.86941548       15       0.00000000       0.00000000       0.00000000
O        0.98948523       4.48083889       4.17521826       16       0.01177459       0.01418754       0.00485525
O       -2.16987928       3.60943371       5.64011700       17       0.01177459      -0.00288900      -0.01471439
O       -0.46756147       2.40571324      -0.01380895       18       0.01457723      -0.00487076      -0.01128188
O       -0.98948524      -0.84575968       2.07650431       19      -0.01177459       0.01129854      -0.00985914
O        4.12629983       5.30580323       2.09031325       20      -0.00664864      -0.01781213       0.00142274
O        2.19242919       3.07664530       1.77070152       21       0.00664864      -0.01013819      -0.01471439
O        2.19242919       6.69717407       0.31961173       22       0.00664864      -0.00767394       0.01613713
O       -2.42398202       6.34094098       3.85560653       23       0.00945127      -0.01211995      -0.01128188
O        3.62692597       2.06230290       7.75263991       24      -0.01457723       0.00487076       0.01128188
O        5.58334653      -1.87292483       3.88322443       25      -0.00945127       0.01211995       0.01128188
O        6.78629049       3.42490579       1.77910222       26      -0.01457723      -0.01220578      -0.00142274
O        3.89474701       2.40259079       4.18902721       27       0.00945127      -0.00371042       0.01613713
O        0.73538249       4.66051666       7.43302818       28       0.00945127       0.01583037      -0.00485525
O        2.42398202      -0.19250052       0.30580278       29      -0.00945127      -0.01583037       0.00485525
O       -3.62692598       1.04311035       5.95972874       30       0.01457723       0.01220578       0.00142274
O        5.32924379       0.85858243       2.09871396       31      -0.01177459       0.00288900       0.01471439
O        0.96693532       1.39137084       5.96812944       32      -0.00664864       0.01013819       0.01471439
O        3.62692597      -1.01919255       5.94591979       33      -0.01457723       0.00733501      -0.00985914
O        2.16987928      -0.01282275       3.56361270       34      -0.01177459      -0.01418754      -0.00485525
O        0.96693532      -2.22915792       7.41921923       35      -0.00664864       0.00767394      -0.01613713
O       -0.73538250       2.06542535       3.54980375       36      -0.00945127       0.00371042      -0.01613713
O       -0.96693532      -0.83778708       5.64851771       37       0.00664864       0.01781213      -0.00142274
O       -0.46756147       5.48720869       1.79291117       38       0.01457723      -0.00733501       0.00985914
O        4.14884975       5.31377583       5.66232666       39       0.01177459      -0.01129854       0.00985914
40
Lattice="9.478093537146544 7.42862314533054e-10 2.3636434206220884e-14 -3.1593645130825565 8.93603228353466 -1.2866879289726676e-09 -3.1593645120320137 -4.468016141024463 7.738830967436664" Properties=species:S:1:pos:R:3:spacegroup_kinds:I:1:forces:R:3 spacegroup="P 1" unit_cell=conventional occupancy="_JSON {\"0\": {\"In\": 1}, \"1\": {\"In\": 1}, \"2\": {\"In\": 1}, \"3\": {\"In\": 1}, \"4\": {\"In\": 1}, \"5\": {\"In\": 1}, \"6\": {\"In\": 1}, \"7\": {\"In\": 1}, \"8\": {\"In\": 1}, \"9\": {\"In\": 1}, \"10\": {\"In\": 1}, \"11\": {\"In\": 1}, \"12\": {\"In\": 1}, \"13\": {\"In\": 1}, \"14\": {\"In\": 1}, \"15\": {\"In\": 1}, \"16\": {\"O\": 1}, \"17\": {\"O\": 1}, \"18\": {\"O\": 1}, \"19\": {\"O\": 1}, \"20\": {\"O\": 1}, \"21\": {\"O\": 1}, \"22\": {\"O\": 1}, \"23\": {\"O\": 1}, \"24\": {\"O\": 1}, \"25\": {\"O\": 1}, \"26\": {\"O\": 1}, \"27\": {\"O\": 1}, \"28\": {\"O\": 1}, \"29\": {\"O\": 1}, \"30\": {\"O\": 1}, \"31\": {\"O\": 1}, \"32\": {\"O\": 1}, \"33\": {\"O\": 1}, \"34\": {\"O\": 1}, \"35\": {\"O\": 1}, \"36\": {\"O\": 1}, \"37\": {\"O\": 1}, \"38\": {\"O\": 1}, \"39\": {\"O\": 1}}" n_minim_iter=5 energy=-45145.5860261438 stress="0.09798539168789717 -3.0992450837023095e-13 2.936424867867581e-13 -3.0992450837023095e-13 0.09798539168867462 -7.044748771173282e-13 2.936424867867581e-13 -7.044748771173282e-13 0.09798539168780838" free_energy=-45145.5860261438 pbc="T T T"
In      -4.49415378       3.17784661       6.10405466        0      -0.00935906       0.00661785      -0.01146245
In       7.65351829       1.29016953       1.63477631        1       0.00935906      -0.00661785       0.01146245
In       1.33478926      -0.94383854       5.50419179        2       0.00935906      -0.00661785       0.01146245
In      -1.57968226      -2.23400807       3.86941548        3      -0.00000000       0.00000000       0.00000000
In      -1.33478927       4.29485065       3.56948405        4      -0.00935906       0.00661785       0.01146245
In       4.98393976      -3.00468112       5.80412322        5      -0.00935906      -0.01323570       0.00000000
In      -1.33478927       1.46333503       5.80412322        6      -0.00935906      -0.01323570      -0.00000000
In      -1.82457525       7.47269726       1.93470774        7       0.00935906       0.01323570      -0.00000000
In       4.49415378       0.17316550       4.16934691        8       0.00935906      -0.00661785      -0.01146245
In      -1.57968226       4.46801614      -0.00000000        9       0.00000000       0.00000000       0.00000000
In       4.49415378       6.87518971       0.29993143       10       0.00935906      -0.00661785      -0.01146245
In      -1.33478927      -2.40717356       7.43889953       11      -0.00935906       0.00661785       0.01146245
In       4.49415378       3.00468112       1.93470774       12       0.00935906       0.01323570      -0.00000000
In       1.82457524       5.41185469       2.23463917       13      -0.00935906       0.00661785      -0.01146245
In       4.73904677       0.00000000      -0.00000000       14      -0.00000000      -0.00000000      -0.00000000
In       1.57968225       2.23400807       3.86941548       15       0.00000000      -0.00000000       0.00000000
O        0.99192848       4.48135047       4.17449230       16       0.00949240       0.00981999       0.01017680
O       -2.16743604       3.60854922       5.64003695       17       0.00949240       0.00390337      -0.01359277
O       -0.46709864       2.40622911      -0.01631452       18       0.01610265      -0.00077078      -0.00549690
O       -0.99192848      -0.84613260       2.07569828       19      -0.00949240       0.01372337      -0.00341596
O        4.12465150       5.30472955       2.09201279       20       0.00051600      -0.01689700       0.00208093
O        2.19407752       3.07463663       1.77062146       21      -0.00051600      -0.01025064      -0.01359277
O        2.19407752       6.69810907       0.32139132       22      -0.00051600      -0.00664636       0.01567370
O       -2.42431411       6.34033266       3.85310097       23       0.00609425      -0.01492480      -0.00549690
O        3.62646315       2.06178704       7.75514548       24      -0.01610265       0.00077078       0.00549690
O        5.58367862      -1.87231652       3.88572999       25      -0.00609425       0.01492480       0.00549690
O        6.78582766       3.42299385       1.77740269       26      -0.01610265      -0.00514584      -0.00208093
O        3.89441492       2.40072507       4.19080681       27       0.00609425       0.00270195       0.01567370
O        0.73505040       4.66299070       7.43375415       28       0.00609425       0.01222285      -0.01017680
O        2.42431411      -0.19497456       0.30507681       29      -0.00609425      -0.01222285       0.01017680
O       -3.62646315       1.04502230       5.96142827       30       0.01610265       0.00514584       0.00208093
O        5.32680054       0.85946693       2.09879402       31      -0.00949240      -0.00390337       0.01359277
O        0.96528699       1.39337952       5.96820950       32       0.00051600       0.01025064       0.01359277
O        3.62646315      -1.01676473       5.94511376       33      -0.01610265       0.00437506      -0.00341596
O        2.16743603      -0.01333433       3.56433867       34      -0.00949240      -0.00981999      -0.01017680
O        0.96528699      -2.23009293       7.41743964       35       0.00051600       0.00664636      -0.01567370
O       -0.73505041       2.06729108       3.54802415       36      -0.00609425      -0.00270195      -0.01567370
O       -0.96528699      -0.83671341       5.64681817       37      -0.00051600       0.01689700      -0.00208093
O       -0.46709864       5.48478088       1.79371720       38       0.01610265      -0.00437506       0.00341596
O        4.15129299       5.31414874       5.66313268       39       0.00949240      -0.01372337       0.00341596
40