40
Lattice="9.06547034022051 7.105230264903077e-10 9.368631962510391e-15 -3.021823447410056 8.547007402717082 -1.230669386968456e-09 -3.021823446405234 -4.273503700648014 7.401925537907085" Properties=species:S:1:pos:R:3:spacegroup_kinds:I:1:forces:R:3 spacegroup="P 1" unit_cell=conventional occupancy="_JSON {\"0\": {\"In\": 1}, \"1\": {\"In\": 1}, \"2\": {\"In\": 1}, \"3\": {\"In\": 1}, \"4\": {\"In\": 1}, \"5\": {\"In\": 1}, \"6\": {\"In\": 1}, \"7\": {\"In\": 1}, \"8\": {\"In\": 1}, \"9\": {\"In\": 1}, \"10\": {\"In\": 1}, \"11\": {\"In\": 1}, \"12\": {\"In\": 1}, \"13\": {\"In\": 1}, \"14\": {\"In\": 1}, \"15\": {\"In\": 1}, \"16\": {\"O\": 1}, \"17\": {\"O\": 1}, \"18\": {\"O\": 1}, \"19\": {\"O\": 1}, \"20\": {\"O\": 1}, \"21\": {\"O\": 1}, \"22\": {\"O\": 1}, \"23\": {\"O\": 1}, \"24\": {\"O\": 1}, \"25\": {\"O\": 1}, \"26\": {\"O\": 1}, \"27\": {\"O\": 1}, \"28\": {\"O\": 1}, \"29\": {\"O\": 1}, \"30\": {\"O\": 1}, \"31\": {\"O\": 1}, \"32\": {\"O\": 1}, \"33\": {\"O\": 1}, \"34\": {\"O\": 1}, \"35\": {\"O\": 1}, \"36\": {\"O\": 1}, \"37\": {\"O\": 1}, \"38\": {\"O\": 1}, \"39\": {\"O\": 1}}" n_minim_iter=1 energy=-45151.351359742584 stress="0.03119086487099847 -5.94357253391521e-14 -1.4937970159986459e-13 -5.94357253391521e-14 0.031190864872087814 9.88236969334466e-14 -1.4937970159986459e-13 9.88236969334466e-14 0.031190864871990596" free_energy=-45151.351359742584 pbc="T T T"
In      -4.32865852       3.06082380       5.80138598        0       0.01382158      -0.00977333       0.01692791
In       7.35048197       1.21267991       1.60053955        1      -0.01382158       0.00977333      -0.01692791
In       1.30683507      -0.92407194       5.30150232        2      -0.01382158       0.00977333      -0.01692791
In      -1.51091172      -2.13675185       3.70096277        3      -0.00000000       0.00000000       0.00000000
In      -1.30683508       4.12919972       3.45102094        4       0.01382158      -0.00977333      -0.01692791
In       4.73681182      -2.91651981       5.55144415        5       0.01382158       0.01954666      -0.00000000
In      -1.30683508       1.35698389       5.55144415        6       0.01382158       0.01954666      -0.00000000
In      -1.71498837       7.19002352       1.85048138        7      -0.01382158      -0.01954666       0.00000000
In       4.32865852       0.14430398       3.95090459        8      -0.01382158       0.00977333       0.01692791
In      -1.51091173       4.27350370      -0.00000000        9       0.00000000       0.00000000       0.00000000
In       4.32865852       6.55455954       0.24994182       10      -0.01382158       0.00977333       0.01692791
In      -1.30683508      -2.28105583       7.15198371       11       0.01382158      -0.00977333      -0.01692791
In       4.32865852       2.91651982       1.85048138       12      -0.01382158      -0.01954666      -0.00000000
In       1.71498837       5.19757565       2.10042321       13       0.01382158      -0.00977333       0.01692791
In       4.53273517       0.00000000      -0.00000000       14       0.00000000      -0.00000000      -0.00000000
In       1.51091172       2.13675185       3.70096277       15      -0.00000000      -0.00000000      -0.00000000
O        0.89165482       4.27556035       4.02370181       16       0.00909111      -0.00024329      -0.03147885
O       -2.13016863       3.48359967       5.38829352       17       0.00909111      -0.02713984       0.01595012
O       -0.44557137       2.29240953       0.04956983       18      -0.02278669      -0.00459882      -0.02309206
O       -0.89165482      -0.78784739       2.01006980       19      -0.00909111      -0.02738313      -0.01552873
O        3.99442547       5.08997025       1.96049996       20      -0.02861805       0.01405092       0.00756333
O        2.04922142       2.98389420       1.68733076       21       0.02861805       0.00047543       0.01595012
O        2.04922142       6.37957975       0.27316921       22       0.02861805       0.01357550      -0.00838679
O       -2.30982822       6.06620776       3.75053260       23      -0.00325975       0.02301644      -0.02309206
O        3.46739482       1.98109418       7.35235570       24       0.02278669       0.00459882       0.02309206
O        5.33165166      -1.79270406       3.65139293       25       0.00325975      -0.02301644       0.02309206
O        6.48921826       3.32588535       1.74046280       26       0.02278669      -0.02229772      -0.00756333
O        3.73381867       2.35170449       3.97413197       27      -0.00325975      -0.03150653      -0.00838679
O        0.71199523       4.40259886       7.07918649       28      -0.00325975       0.00849009       0.03147885
O        2.30982822      -0.12909516       0.32273904       29       0.00325975      -0.00849009      -0.03147885
O       -3.46739482       0.94761835       5.66146273       30      -0.02278669       0.02229772       0.00756333
O        5.15199207       0.78990404       2.01363201       31      -0.00909111       0.02713984      -0.01595012
O        0.97260202       1.28960950       5.71459478       32      -0.02861805      -0.00047543      -0.01595012
O        3.46739482      -1.03347582       5.71103257       33       0.02278669       0.01769889      -0.01552873
O        2.13016862      -0.00205664       3.37822372       34      -0.00909111       0.00024329       0.03147885
O        0.97260202      -2.10607605       7.12875633       35      -0.02861805      -0.01357550       0.00838679
O       -0.71199523       1.92179922       3.42779356       36       0.00325975       0.03150653       0.00838679
O       -0.97260203      -0.81646655       5.44142557       37       0.02861805      -0.01405092      -0.00756333
O       -0.44557137       5.30697953       1.69089296       38      -0.02278669      -0.01769889       0.01552873
O        3.91347827       5.06135110       5.39185573       39       0.00909111       0.02738313       0.01552873
40
Lattice="9.065470340220514 7.105230264903081e-10 9.368631962510388e-15 -3.021823447410058 8.547007402717085 -1.2306693869684565e-09 -3.021823446405236 -4.273503700648016 7.401925537907089" Properties=species:S:1:pos:R:3:spacegroup_kinds:I:1:forces:R:3 spacegroup="P 1" unit_cell=conventional occupancy="_JSON {\"0\": {\"In\": 1}, \"1\": {\"In\": 1}, \"2\": {\"In\": 1}, \"3\": {\"In\": 1}, \"4\": {\"In\": 1}, \"5\": {\"In\": 1}, \"6\": {\"In\": 1}, \"7\": {\"In\": 1}, \"8\": {\"In\": 1}, \"9\": {\"In\": 1}, \"10\": {\"In\": 1}, \"11\": {\"In\": 1}, \"12\": {\"In\": 1}, \"13\": {\"In\": 1}, \"14\": {\"In\": 1}, \"15\": {\"In\": 1}, \"16\": {\"O\": 1}, \"17\": {\"O\": 1}, \"18\": {\"O\": 1}, \"19\": {\"O\": 1}, \"20\": {\"O\": 1}, \"21\": {\"O\": 1}, \"22\": {\"O\": 1}, \"23\": {\"O\": 1}, \"24\": {\"O\": 1}, \"25\": {\"O\": 1}, \"26\": {\"O\": 1}, \"27\": {\"O\": 1}, \"28\": {\"O\": 1}, \"29\": {\"O\": 1}, \"30\": {\"O\": 1}, \"31\": {\"O\": 1}, \"32\": {\"O\": 1}, \"33\": {\"O\": 1}, \"34\": {\"O\": 1}, \"35\": {\"O\": 1}, \"36\": {\"O\": 1}, \"37\": {\"O\": 1}, \"38\": {\"O\": 1}, \"39\": {\"O\": 1}}" n_minim_iter=2 energy=-45151.35272894278 stress="0.031020110090972334 2.2422209365440446e-14 2.28049369218936e-13 2.2422209365440446e-14 0.031020110090868105 -3.62468316260759e-13 2.28049369218936e-13 -3.62468316260759e-13 0.03102011009141363" free_energy=-45151.35272894278 pbc="T T T"
In      -4.32767127       3.06012570       5.80259511        0      -0.00097881       0.00069213      -0.00119880
In       7.34949471       1.21337800       1.59933042        1       0.00097881      -0.00069213       0.00119880
In       1.30584782      -0.92337385       5.30029319        2       0.00097881      -0.00069213       0.00119880
In      -1.51091172      -2.13675185       3.70096277        3       0.00000000       0.00000000       0.00000000
In      -1.30584782       4.12850163       3.44981180        4      -0.00097881       0.00069213       0.00119880
In       4.73779907      -2.91512362       5.55144415        5      -0.00097881      -0.00138425      -0.00000000
In      -1.30584782       1.35838008       5.55144415        6      -0.00097881      -0.00138425       0.00000000
In      -1.71597563       7.18862733       1.85048138        7       0.00097881       0.00138425      -0.00000000
In       4.32767127       0.14500208       3.95211373        8       0.00097881      -0.00069213      -0.00119880
In      -1.51091173       4.27350370      -0.00000000        9      -0.00000000       0.00000000      -0.00000000
In       4.32767127       6.55525763       0.25115096       10       0.00097881      -0.00069213      -0.00119880
In      -1.30584782      -2.28175392       7.15077457       11      -0.00097881       0.00069213       0.00119880
In       4.32767127       2.91512363       1.85048138       12       0.00097881       0.00138425       0.00000000
In       1.71597562       5.19687755       2.10163234       13      -0.00097881       0.00069213      -0.00119880
In       4.53273517       0.00000000      -0.00000000       14       0.00000000       0.00000000       0.00000000
In       1.51091172       2.13675185       3.70096277       15      -0.00000000      -0.00000000      -0.00000000
O        0.89230419       4.27554297       4.02145332       16       0.01246652       0.00702130      -0.00466033
O       -2.12951926       3.48166111       5.38943282       17       0.01246652      -0.00754661      -0.00375046
O       -0.44719899       2.29208104       0.04792040       18       0.00366024      -0.00131963      -0.01453591
O       -0.89230419      -0.78980333       2.00896061       19      -0.01246652      -0.00052531      -0.00841078
O        3.99238132       5.09097389       1.96104020       20      -0.01127052      -0.00786700       0.00612512
O        2.05126557       2.98392816       1.68847005       21       0.01127052      -0.00923801      -0.00375046
O        2.05126557       6.38054943       0.27257015       22       0.01127052       0.00137102       0.00987558
O       -2.31006106       6.06785179       3.74888317       23       0.00246423      -0.00301103      -0.01453591
O        3.46902244       1.98142267       7.35400513       24      -0.00366024       0.00131963       0.01453591
O        5.33188450      -1.79434809       3.65304236       25      -0.00246423       0.00301103       0.01453591
O        6.49084588       3.32429266       1.73992256       26      -0.00366024      -0.01324828      -0.00612512
O        3.73358583       2.34945402       3.97353292       27       0.00246423      -0.01108295       0.00987558
O        0.71176239       4.40320530       7.08143498       28       0.00246423       0.01409398       0.00466033
O        2.31006106      -0.12970159       0.32049055       29      -0.00246423      -0.01409398      -0.00466033
O       -3.46902244       0.94921105       5.66200297       30       0.00366024       0.01324828       0.00612512
O        5.15134270       0.79184260       2.01249271       31      -0.01246652       0.00754661       0.00375046
O        0.97055788       1.28957554       5.71345548       32      -0.01127052       0.00923801       0.00375046
O        3.46902244      -1.03221162       5.70992337       33      -0.00366024       0.01192865      -0.00841078
O        2.12951926      -0.00203926       3.38047221       34      -0.01246652      -0.00702130       0.00466033
O        0.97055788      -2.10704573       7.12935538       35      -0.01127052      -0.00137102      -0.00987558
O       -0.71176239       1.92404969       3.42839261       36      -0.00246423       0.01108295      -0.00987558
O       -0.97055788      -0.81747019       5.44088533       37       0.01127052       0.00786700      -0.00612512
O       -0.44719899       5.30571532       1.69200216       38       0.00366024      -0.01192865       0.00841078
O        3.91412763       5.06330703       5.39296493       39       0.01246652       0.00052531       0.00841078
40
Lattice="9.065470340220516 7.105230264903083e-10 9.368631962510369e-15 -3.0218234474100587 8.547007402717087 -1.2306693869684567e-09 -3.0218234464052367 -4.273503700648017 7.401925537907091" Properties=species:S:1:pos:R:3:spacegroup_kinds:I:1:forces:R:3 spacegroup="P 1" unit_cell=conventional occupancy="_JSON {\"0\": {\"In\": 1}, \"1\": {\"In\": 1}, \"2\": {\"In\": 1}, \"3\": {\"In\": 1}, \"4\": {\"In\": 1}, \"5\": {\"In\": 1}, \"6\": {\"In\": 1}, \"7\": {\"In\": 1}, \"8\": {\"In\": 1}, \"9\": {\"In\": 1}, \"10\": {\"In\": 1}, \"11\": {\"In\": 1}, \"12\": {\"In\": 1}, \"13\": {\"In\": 1}, \"14\": {\"In\": 1}, \"15\": {\"In\": 1}, \"16\": {\"O\": 1}, \"17\": {\"O\": 1}, \"18\": {\"O\": 1}, \"19\": {\"O\": 1}, \"20\": {\"O\": 1}, \"21\": {\"O\": 1}, \"22\": {\"O\": 1}, \"23\": {\"O\": 1}, \"24\": {\"O\": 1}, \"25\": {\"O\": 1}, \"26\": {\"O\": 1}, \"27\": {\"O\": 1}, \"28\": {\"O\": 1}, \"29\": {\"O\": 1}, \"30\": {\"O\": 1}, \"31\": {\"O\": 1}, \"32\": {\"O\": 1}, \"33\": {\"O\": 1}, \"34\": {\"O\": 1}, \"35\": {\"O\": 1}, \"36\": {\"O\": 1}, \"37\": {\"O\": 1}, \"38\": {\"O\": 1}, \"39\": {\"O\": 1}}" n_minim_iter=3 energy=-45151.35289945468 stress="0.0309378120993996 1.052222992555355e-13 -5.920879118588198e-13 1.052222992555355e-13 0.030937812100075138 3.5041000751612056e-13 -5.920879118588198e-13 3.5041000751612056e-13 0.030937812099254763" free_energy=-45151.35289945468 pbc="T T T"
In      -4.32731135       3.05987120       5.80303592        0      -0.00584062       0.00412994      -0.00715327
In       7.34913479       1.21363251       1.59888961        1       0.00584062      -0.00412994       0.00715327
In       1.30548790      -0.92311934       5.29985238        2       0.00584062      -0.00412994       0.00715327
In      -1.51091172      -2.13675185       3.70096277        3      -0.00000000       0.00000000       0.00000000
In      -1.30548790       4.12824712       3.44937099        4      -0.00584062       0.00412994       0.00715327
In       4.73815899      -2.91461462       5.55144415        5      -0.00584062      -0.00825988       0.00000000
In      -1.30548790       1.35888908       5.55144415        6      -0.00584062      -0.00825988      -0.00000000
In      -1.71633555       7.18811832       1.85048138        7       0.00584062       0.00825988       0.00000000
In       4.32731135       0.14525658       3.95255454        8       0.00584062      -0.00412994      -0.00715327
In      -1.51091173       4.27350370      -0.00000000        9      -0.00000000      -0.00000000       0.00000000
In       4.32731134       6.55551213       0.25159177       10       0.00584062      -0.00412994      -0.00715327
In      -1.30548790      -2.28200843       7.15033376       11      -0.00584062       0.00412994       0.00715327
In       4.32731134       2.91461462       1.85048138       12       0.00584062       0.00825988       0.00000000
In       1.71633554       5.19662305       2.10207316       13      -0.00584062       0.00412994      -0.00715327
In       4.53273517       0.00000000      -0.00000000       14       0.00000000      -0.00000000      -0.00000000
In       1.51091172       2.13675185       3.70096277       15      -0.00000000      -0.00000000       0.00000000
O        0.89297028       4.27576601       4.02040796       16       0.01257961       0.00689793       0.00648173
O       -2.12885316       3.48064428       5.38976233       17       0.01257961       0.00216438      -0.00921465
O       -0.44772535       2.29190740       0.04678947       18       0.01273723       0.00205292      -0.00902160
O       -0.89297029      -0.79059711       2.00824476       19      -0.01257961       0.00906231      -0.00273292
O        3.99120061       5.09111473       1.96145529       20      -0.00215261      -0.01427093       0.00628869
O        2.05244628       2.98363910       1.68879956       21       0.00215261      -0.01258163      -0.00921465
O        2.05244627       6.38097933       0.27265572       22       0.00215261      -0.00168930       0.01550333
O       -2.31007280       6.06840592       3.74775224       23       0.00231023      -0.01269308      -0.00902160
O        3.46954879       1.98159631       7.35513606       24      -0.01273723      -0.00205292       0.00902160
O        5.33189625      -1.79490222       3.65417330       25      -0.00231023       0.01269308       0.00902160
O        6.49137224       3.32322642       1.73950747       26      -0.01273723      -0.00678648      -0.00628869
O        3.73357409       2.34819754       3.97361849       27       0.00231023      -0.00146640       0.01550333
O        0.71175065       4.40390765       7.08248034       28       0.00231023       0.01415948      -0.00648173
O        2.31007280      -0.13040394       0.31944520       29      -0.00231023      -0.01415948       0.00648173
O       -3.46954879       0.95027728       5.66241806       30       0.01273723       0.00678648       0.00628869
O        5.15067661       0.79285943       2.01216320       31      -0.01257961      -0.00216438       0.00921465
O        0.96937717       1.28986460       5.71312597       32      -0.00215261       0.01258163       0.00921465
O        3.46954879      -1.03131902       5.70920753       33      -0.01273723       0.00883940      -0.00273292
O        2.12885316      -0.00226231       3.38151757       34      -0.01257961      -0.00689793      -0.00648173
O        0.96937717      -2.10747562       7.12926981       35      -0.00215261       0.00168930      -0.01550333
O       -0.71175065       1.92530617       3.42830704       36      -0.00231023       0.00146640      -0.01550333
O       -0.96937717      -0.81761102       5.44047024       37       0.00215261       0.01427093      -0.00628869
O       -0.44772535       5.30482272       1.69271800       38       0.01273723      -0.00883940       0.00273292
O        3.91479373       5.06410082       5.39368077       39       0.01257961      -0.00906231       0.00273292
40
Lattice="9.065470340220514 7.105230264903081e-10 9.368631962510342e-15 -3.021823447410058 8.547007402717085 -1.2306693869684565e-09 -3.021823446405236 -4.273503700648016 7.401925537907089" Properties=species:S:1:pos:R:3:spacegroup_kinds:I:1:forces:R:3 spacegroup="P 1" unit_cell=conventional occupancy="_JSON {\"0\": {\"In\": 1}, \"1\": {\"In\": 1}, \"2\": {\"In\": 1}, \"3\": {\"In\": 1}, \"4\": {\"In\": 1}, \"5\": {\"In\": 1}, \"6\": {\"In\": 1}, \"7\": {\"In\": 1}, \"8\": {\"In\": 1}, \"9\": {\"In\": 1}, \"10\": {\"In\": 1}, \"11\": {\"In\": 1}, \"12\": {\"In\": 1}, \"13\": {\"In\": 1}, \"14\": {\"In\": 1}, \"15\": {\"In\": 1}, \"16\": {\"O\": 1}, \"17\": {\"O\": 1}, \"18\": {\"O\": 1}, \"19\": {\"O\": 1}, \"20\": {\"O\": 1}, \"21\": {\"O\": 1}, \"22\": {\"O\": 1}, \"23\": {\"O\": 1}, \"24\": {\"O\": 1}, \"25\": {\"O\": 1}, \"26\": {\"O\": 1}, \"27\": {\"O\": 1}, \"28\": {\"O\": 1}, \"29\": {\"O\": 1}, \"30\": {\"O\": 1}, \"31\": {\"O\": 1}, \"32\": {\"O\": 1}, \"33\": {\"O\": 1}, \"34\": {\"O\": 1}, \"35\": {\"O\": 1}, \"36\": {\"O\": 1}, \"37\": {\"O\": 1}, \"38\": {\"O\": 1}, \"39\": {\"O\": 1}}" n_minim_iter=4 energy=-45151.353307918675 stress="0.030920705336716373 -2.167415711901795e-13 1.5311909172075136e-13 -2.167415711901795e-13 0.030920705336346103 -2.533385024178048e-13 1.5311909172075136e-13 -2.533385024178048e-13 0.03092070533741048" free_energy=-45151.353307918675 pbc="T T T"
In      -4.32759526       3.06007195       5.80268821        0       0.00084819      -0.00059976       0.00103881
In       7.34941870       1.21343175       1.59923732        1      -0.00084819       0.00059976      -0.00103881
In       1.30577181      -0.92332010       5.30020009        2      -0.00084819       0.00059976      -0.00103881
In      -1.51091172      -2.13675185       3.70096277        3      -0.00000000      -0.00000000      -0.00000000
In      -1.30577181       4.12844788       3.44971871        4       0.00084819      -0.00059976      -0.00103881
In       4.73787508      -2.91501613       5.55144415        5       0.00084819       0.00119952      -0.00000000
In      -1.30577181       1.35848758       5.55144415        6       0.00084819       0.00119952       0.00000000
In      -1.71605164       7.18851983       1.85048138        7      -0.00084819      -0.00119952       0.00000000
In       4.32759525       0.14505583       3.95220682        8      -0.00084819       0.00059976       0.00103881
In      -1.51091173       4.27350370      -0.00000000        9       0.00000000      -0.00000000      -0.00000000
In       4.32759525       6.55531138       0.25124405       10      -0.00084819       0.00059976       0.00103881
In      -1.30577181      -2.28180767       7.15068148       11       0.00084819      -0.00059976      -0.00103881
In       4.32759525       2.91501613       1.85048138       12      -0.00084819      -0.00119952       0.00000000
In       1.71605164       5.19682380       2.10172544       13       0.00084819      -0.00059976       0.00103881
In       4.53273517       0.00000000      -0.00000000       14       0.00000000      -0.00000000      -0.00000000
In       1.51091172       2.13675185       3.70096277       15      -0.00000000      -0.00000000      -0.00000000
O        0.89461782       4.27660980       4.02021977       16       0.00692172      -0.00486232       0.00380039
O       -2.12720563       3.48005941       5.38912569       17       0.00692172       0.00572240       0.00231070
O       -0.44693207       2.29192658       0.04510658       18       0.00311812       0.00841195      -0.00234773
O       -0.89461782      -0.79033820       2.00741993       19      -0.00692172       0.00086007       0.00611109
O        3.99010001       5.08988421       1.96231334       20       0.00308789      -0.00221554       0.00845882
O        2.05354688       2.98228075       1.68816293       21      -0.00308789      -0.00843333       0.00231070
O        2.05354688       6.38110716       0.27415041       22      -0.00308789       0.00621779       0.00614812
O       -2.30982645       6.06765162       3.74606935       23      -0.00689148      -0.00574378      -0.00234773
O        3.46875551       1.98157713       7.35681895       24      -0.00311812      -0.00841195       0.00234773
O        5.33164990      -1.79414792       3.65585618       25       0.00689148       0.00574378       0.00234773
O        6.49057896       3.32177859       1.73864942       26      -0.00311812       0.00217278      -0.00845882
O        3.73382044       2.34711727       3.97511318       27      -0.00689148       0.00083869       0.00614812
O        0.71199699       4.40574222       7.08266853       28      -0.00689148       0.00490508      -0.00380039
O        2.30982645      -0.13223851       0.31925700       29       0.00689148      -0.00490508       0.00380039
O       -3.46875551       0.95172512       5.66327611       30       0.00311812      -0.00217278       0.00845882
O        5.14902907       0.79344430       2.01279984       31      -0.00692172      -0.00572240      -0.00231070
O        0.96827657       1.29122296       5.71376261       32       0.00308789       0.00843333      -0.00231070
O        3.46875551      -1.02985201       5.70838270       33      -0.00311812       0.00623917       0.00611109
O        2.12720563      -0.00310609       3.38170576       34      -0.00692172       0.00486232      -0.00380039
O        0.96827657      -2.10760346       7.12777512       35       0.00308789      -0.00621779      -0.00614812
O       -0.71199700       1.92638644       3.42681235       36       0.00689148      -0.00083869      -0.00614812
O       -0.96827657      -0.81638050       5.43961219       37      -0.00308789       0.00221554      -0.00845882
O       -0.44693207       5.30335572       1.69354283       38       0.00311812      -0.00623917      -0.00611109
O        3.91644126       5.06384191       5.39450560       39       0.00692172      -0.00086007      -0.00611109
