40
Lattice="8.690427735233277 6.811263696353097e-10 8.371150795655783e-15 -2.8968092457199304 8.193413843766423 -1.1797561861038985e-09 -2.896809244756681 -4.0967069212020775 7.095704533207325" Properties=species:S:1:pos:R:3:spacegroup_kinds:I:1:forces:R:3 spacegroup="P 1" unit_cell=conventional occupancy="_JSON {\"0\": {\"In\": 1}, \"1\": {\"In\": 1}, \"2\": {\"In\": 1}, \"3\": {\"In\": 1}, \"4\": {\"In\": 1}, \"5\": {\"In\": 1}, \"6\": {\"In\": 1}, \"7\": {\"In\": 1}, \"8\": {\"In\": 1}, \"9\": {\"In\": 1}, \"10\": {\"In\": 1}, \"11\": {\"In\": 1}, \"12\": {\"In\": 1}, \"13\": {\"In\": 1}, \"14\": {\"In\": 1}, \"15\": {\"In\": 1}, \"16\": {\"O\": 1}, \"17\": {\"O\": 1}, \"18\": {\"O\": 1}, \"19\": {\"O\": 1}, \"20\": {\"O\": 1}, \"21\": {\"O\": 1}, \"22\": {\"O\": 1}, \"23\": {\"O\": 1}, \"24\": {\"O\": 1}, \"25\": {\"O\": 1}, \"26\": {\"O\": 1}, \"27\": {\"O\": 1}, \"28\": {\"O\": 1}, \"29\": {\"O\": 1}, \"30\": {\"O\": 1}, \"31\": {\"O\": 1}, \"32\": {\"O\": 1}, \"33\": {\"O\": 1}, \"34\": {\"O\": 1}, \"35\": {\"O\": 1}, \"36\": {\"O\": 1}, \"37\": {\"O\": 1}, \"38\": {\"O\": 1}, \"39\": {\"O\": 1}}" n_minim_iter=5 energy=-45151.36068439406 stress="-0.030414899353706608 1.631970946561716e-13 3.471882561377028e-13 1.631970946561716e-13 -0.030414899355279145 -9.954741206426124e-14 3.471882561377028e-13 -9.954741206426124e-14 -0.03041489935484981" free_energy=-45151.36068439406 pbc="T T T"
In      -4.14699480       2.93236815       5.56454619        0       0.00448127      -0.00316874       0.00548842
In       7.04380404       1.16433878       1.53115834        1      -0.00448127       0.00316874      -0.00548842
In       1.25018555      -0.88401468       5.07901061        2      -0.00448127       0.00316874      -0.00548842
In      -1.44840462      -2.04835346       3.54785226        3      -0.00000000       0.00000000      -0.00000000
In      -1.25018556       3.95654488       3.30508448        4       0.00448127      -0.00316874      -0.00548842
In       4.54343294      -2.79220609       5.32177840        5       0.00448127       0.00633748       0.00000000
In      -1.25018555       1.30450083       5.32177840        6       0.00448127       0.00633748      -0.00000000
In      -1.64662369       6.88891302       1.77392613        7      -0.00448127      -0.00633748      -0.00000000
In       4.14699480       0.14016205       3.79062005        8      -0.00448127       0.00316874       0.00548842
In      -1.44840462       4.09670692      -0.00000000        9      -0.00000000      -0.00000000       0.00000000
In       4.14699480       6.28522243       0.24276779       10      -0.00448127       0.00316874       0.00548842
In      -1.25018555      -2.18851551       6.85293674       11       0.00448127      -0.00316874      -0.00548842
In       4.14699480       2.79220610       1.77392613       12      -0.00448127      -0.00633748       0.00000000
In       1.64662369       4.98072161       2.01669392       13       0.00448127      -0.00316874       0.00548842
In       4.34521387       0.00000000      -0.00000000       14       0.00000000       0.00000000       0.00000000
In       1.44840462       2.04835346       3.54785226       15       0.00000000      -0.00000000       0.00000000
O        0.84834680       4.09499457       3.87058765       16      -0.00097747       0.00062226      -0.00523704
O       -2.04846245       3.35288342       5.16189365       17      -0.00097747      -0.00484654       0.00207963
O       -0.42011569       2.20146838       0.06049846       18      -0.00430852      -0.00249114      -0.00200005
O       -0.84834680      -0.74553586       1.93677677       19       0.00097747      -0.00422428      -0.00315741
O        3.84394961       4.87717159       1.87627831       20      -0.00424354       0.00306955      -0.00115736
O        1.94966887       2.86203457       1.61404138       21       0.00424354       0.00253708       0.00207963
O        1.94966887       6.11184394       0.26223693       22       0.00424354       0.00053247      -0.00323699
O       -2.21560286       5.80732646       3.60835072       23       0.00091249       0.00489249      -0.00200005
O        3.31692493       1.89523854       7.03520607       24       0.00430852       0.00249114       0.00200005
O        5.11241210      -1.71061953       3.48735381       25      -0.00091249      -0.00489249       0.00200005
O        6.21373417       3.20148086       1.67157395       26       0.00430852      -0.00297766       0.00115736
O        3.57801563       2.26961363       3.81008920       27       0.00091249      -0.00417834      -0.00323699
O        0.68120639       4.21318069       6.77296914       28       0.00091249      -0.00071415       0.00523704
O        2.21560286      -0.11647376       0.32273539       29      -0.00091249       0.00071415      -0.00523704
O       -3.31692493       0.89522607       5.42413058       30      -0.00430852       0.00297766      -0.00115736
O        4.94527169       0.74382351       1.93381088       31       0.00097747       0.00484654      -0.00207963
O        0.94714037       1.23467236       5.48166315       32      -0.00424354      -0.00253708      -0.00207963
O        3.31692493      -1.00001247       5.48462904       33       0.00430852       0.00048652      -0.00315741
O        2.04846244       0.00171236       3.22511687       34       0.00097747      -0.00062226       0.00523704
O        0.94714037      -2.01513702       6.83346760       35      -0.00424354      -0.00053247       0.00323699
O       -0.68120639       1.82709330       3.28561533       36      -0.00091249       0.00417834       0.00323699
O       -0.94714037      -0.78046466       5.21942622       37       0.00424354      -0.00306955       0.00115736
O       -0.42011569       5.09671940       1.61107549       38      -0.00430852      -0.00048652       0.00315741
O        3.74515604       4.84224279       5.15892776       39      -0.00097747       0.00422428       0.00315741
