40
Lattice="9.065470340220514 7.105215596898462e-10 8.063453671946592e-15 -3.0218234474100583 8.547007402717085 -1.230668513341048e-09 -3.0218234464052345 -4.273503700648015 7.401925537907088" Properties=species:S:1:pos:R:3:spacegroup_kinds:I:1:forces:R:3 spacegroup="P 1" unit_cell=conventional occupancy="_JSON {\"0\": {\"In\": 1}, \"1\": {\"In\": 1}, \"2\": {\"In\": 1}, \"3\": {\"In\": 1}, \"4\": {\"In\": 1}, \"5\": {\"In\": 1}, \"6\": {\"In\": 1}, \"7\": {\"In\": 1}, \"8\": {\"In\": 1}, \"9\": {\"In\": 1}, \"10\": {\"In\": 1}, \"11\": {\"In\": 1}, \"12\": {\"In\": 1}, \"13\": {\"In\": 1}, \"14\": {\"In\": 1}, \"15\": {\"In\": 1}, \"16\": {\"O\": 1}, \"17\": {\"O\": 1}, \"18\": {\"O\": 1}, \"19\": {\"O\": 1}, \"20\": {\"O\": 1}, \"21\": {\"O\": 1}, \"22\": {\"O\": 1}, \"23\": {\"O\": 1}, \"24\": {\"O\": 1}, \"25\": {\"O\": 1}, \"26\": {\"O\": 1}, \"27\": {\"O\": 1}, \"28\": {\"O\": 1}, \"29\": {\"O\": 1}, \"30\": {\"O\": 1}, \"31\": {\"O\": 1}, \"32\": {\"O\": 1}, \"33\": {\"O\": 1}, \"34\": {\"O\": 1}, \"35\": {\"O\": 1}, \"36\": {\"O\": 1}, \"37\": {\"O\": 1}, \"38\": {\"O\": 1}, \"39\": {\"O\": 1}}" n_minim_iter=4 energy=-45151.66425818406 stress="0.01480218079234809 -4.994524851993559e-13 5.531510106279106e-13 -4.994524851993559e-13 0.014802180793293963 2.7308271757415563e-13 5.531510106279106e-13 2.7308271757415563e-13 0.014802180793039623" free_energy=-45151.66425818406 pbc="T T T"
In      -4.32865852       3.06082380       5.80138598        0       0.00246748      -0.00174477       0.00302203
In       7.35048197       1.21267991       1.60053955        1      -0.00246748       0.00174477      -0.00302203
In       1.30683507      -0.92407194       5.30150232        2      -0.00246748       0.00174477      -0.00302203
In      -1.51091172      -2.13675185       3.70096277        3      -0.00000000       0.00000000      -0.00000000
In      -1.30683508       4.12919972       3.45102094        4       0.00246748      -0.00174477      -0.00302203
In       4.73681182      -2.91651981       5.55144415        5       0.00246748       0.00348955      -0.00000000
In      -1.30683508       1.35698389       5.55144415        6       0.00246748       0.00348955       0.00000000
In      -1.71498837       7.19002352       1.85048138        7      -0.00246748      -0.00348955      -0.00000000
In       4.32865852       0.14430398       3.95090459        8      -0.00246748       0.00174477       0.00302203
In      -1.51091173       4.27350370      -0.00000000        9      -0.00000000      -0.00000000      -0.00000000
In       4.32865852       6.55455954       0.24994182       10      -0.00246748       0.00174477       0.00302203
In      -1.30683508      -2.28105583       7.15198371       11       0.00246748      -0.00174477      -0.00302203
In       4.32865852       2.91651982       1.85048138       12      -0.00246748      -0.00348955      -0.00000000
In       1.71498837       5.19757565       2.10042321       13       0.00246748      -0.00174477       0.00302203
In       4.53273517       0.00000000      -0.00000000       14       0.00000000       0.00000000       0.00000000
In       1.51091172       2.13675185       3.70096277       15      -0.00000000       0.00000000      -0.00000000
O        0.89165482       4.27556035       4.02370181       16       0.00455594      -0.00606154       0.00159151
O       -2.13016863       3.48359967       5.38829352       17       0.00455594       0.00440906       0.00445370
O       -0.44557137       2.29240953       0.04956983       18      -0.00003933       0.00765841      -0.00117434
O       -0.89165482      -0.78784739       2.01006980       19      -0.00455594      -0.00165249       0.00604520
O        3.99442547       5.08997025       1.96049996       20       0.00263825       0.00097448       0.00721954
O        2.04922142       2.98389420       1.68733076       21      -0.00263825      -0.00576507       0.00445370
O        2.04922142       6.37957975       0.27316921       22      -0.00263825       0.00673955       0.00276585
O       -2.30982822       6.06620776       3.75053260       23      -0.00723353      -0.00251572      -0.00117434
O        3.46739482       1.98109418       7.35235570       24       0.00003933      -0.00765841       0.00117434
O        5.33165166      -1.79270406       3.65139293       25       0.00723353       0.00251572       0.00117434
O        6.48921826       3.32588535       1.74046280       26       0.00003933       0.00281220      -0.00721954
O        3.73381867       2.35170449       3.97413197       27      -0.00723353       0.00024085       0.00276585
O        0.71199523       4.40259886       7.07918649       28      -0.00723353       0.00227487      -0.00159151
O        2.30982822      -0.12909516       0.32273904       29       0.00723353      -0.00227487       0.00159151
O       -3.46739482       0.94761835       5.66146273       30      -0.00003933      -0.00281220       0.00721954
O        5.15199207       0.78990404       2.01363201       31      -0.00455594      -0.00440906      -0.00445370
O        0.97260202       1.28960950       5.71459478       32       0.00263825       0.00576507      -0.00445370
O        3.46739482      -1.03347582       5.71103257       33       0.00003933       0.00484621       0.00604520
O        2.13016862      -0.00205664       3.37822372       34      -0.00455594       0.00606154      -0.00159151
O        0.97260202      -2.10607605       7.12875633       35       0.00263825      -0.00673955      -0.00276585
O       -0.71199523       1.92179922       3.42779356       36       0.00723353      -0.00024085      -0.00276585
O       -0.97260203      -0.81646655       5.44142557       37      -0.00263825      -0.00097448      -0.00721954
O       -0.44557137       5.30697953       1.69089296       38      -0.00003933      -0.00484621      -0.00604520
O        3.91347827       5.06135110       5.39185573       39       0.00455594       0.00165249      -0.00604520
