40
Lattice="8.448900914356702 6.621966128114444e-10 1.3896114201936884e-14 -2.816300305409892 7.965700173265725 -1.1469772870569487e-09 -2.8163003044734163 -3.9828500859706533 6.898498709742867" Properties=species:S:1:pos:R:3:spacegroup_kinds:I:1:forces:R:3 spacegroup="P 1" unit_cell=conventional occupancy="_JSON {\"0\": {\"In\": 1}, \"1\": {\"In\": 1}, \"2\": {\"In\": 1}, \"3\": {\"In\": 1}, \"4\": {\"In\": 1}, \"5\": {\"In\": 1}, \"6\": {\"In\": 1}, \"7\": {\"In\": 1}, \"8\": {\"In\": 1}, \"9\": {\"In\": 1}, \"10\": {\"In\": 1}, \"11\": {\"In\": 1}, \"12\": {\"In\": 1}, \"13\": {\"In\": 1}, \"14\": {\"In\": 1}, \"15\": {\"In\": 1}, \"16\": {\"O\": 1}, \"17\": {\"O\": 1}, \"18\": {\"O\": 1}, \"19\": {\"O\": 1}, \"20\": {\"O\": 1}, \"21\": {\"O\": 1}, \"22\": {\"O\": 1}, \"23\": {\"O\": 1}, \"24\": {\"O\": 1}, \"25\": {\"O\": 1}, \"26\": {\"O\": 1}, \"27\": {\"O\": 1}, \"28\": {\"O\": 1}, \"29\": {\"O\": 1}, \"30\": {\"O\": 1}, \"31\": {\"O\": 1}, \"32\": {\"O\": 1}, \"33\": {\"O\": 1}, \"34\": {\"O\": 1}, \"35\": {\"O\": 1}, \"36\": {\"O\": 1}, \"37\": {\"O\": 1}, \"38\": {\"O\": 1}, \"39\": {\"O\": 1}}" n_minim_iter=4 energy=-45148.55720411597 stress="-0.12021219086080456 3.296103686354482e-13 1.0710823570082874e-13 3.296103686354482e-13 -0.12021219086080256 -8.661168545256671e-14 1.0710823570082874e-13 -8.661168545256671e-14 -0.1202121908601653" free_energy=-45148.55720411597 pbc="T T T"
In      -4.03059661       2.85006220       5.41129553        0      -0.00042107       0.00029774      -0.00051570
In       6.84689691       1.13278789       1.48720317        1       0.00042107      -0.00029774       0.00051570
In       1.21429630      -0.85863715       4.93645253        2       0.00042107      -0.00029774       0.00051570
In      -1.40815015      -1.99142504       3.44924935        3      -0.00000000       0.00000000       0.00000000
In      -1.21429631       3.84577472       3.21182785        4      -0.00042107       0.00029774       0.00051570
In       4.41830430      -2.71298682       5.17387403        5      -0.00042107      -0.00059548       0.00000000
In      -1.21429631       1.26986326       5.17387403        6      -0.00042107      -0.00059548       0.00000000
In      -1.60200400       6.69583691       1.72462467        7       0.00042107       0.00059548      -0.00000000
In       4.03059661       0.13707537       3.68667086        8       0.00042107      -0.00029774      -0.00051570
In      -1.40815015       3.98285009      -0.00000000        9      -0.00000000       0.00000000      -0.00000000
In       4.03059661       6.11135050       0.23742150       10       0.00042107      -0.00029774      -0.00051570
In      -1.21429631      -2.12850041       6.66107720       11      -0.00042107       0.00029774       0.00051570
In       4.03059661       2.71298683       1.72462467       12       0.00042107       0.00059548      -0.00000000
In       1.60200400       4.84148724       1.96204618       13      -0.00042107       0.00029774      -0.00051570
In       4.22445046       0.00000000      -0.00000000       14      -0.00000000       0.00000000       0.00000000
In       1.40815015       1.99142505       3.44924935       15      -0.00000000       0.00000000      -0.00000000
O        0.81951644       3.97884143       3.77239550       16      -0.00485606       0.00786761      -0.00171593
O       -1.99678386       3.26899467       5.01577255       17      -0.00485606      -0.00541984      -0.00595559
O       -0.40363659       2.14246943       0.06847279       18       0.00068909      -0.00934086       0.00083581
O       -0.81951645      -0.71786407       1.88966935       19       0.00485606       0.00244777      -0.00767151
O        3.74763235       4.74024695       1.82119655       20      -0.00349119      -0.00196521      -0.00850732
O        1.88496826       2.78434603       1.56652320       21       0.00349119       0.00638495      -0.00595559
O        1.88496826       5.93875100       0.25467336       22       0.00349119      -0.00835017      -0.00255174
O       -2.15448508       5.64067088       3.51772214       23       0.00903634       0.00246394       0.00083581
O        3.21993689       1.84038066       6.83002591       24      -0.00068909       0.00934086      -0.00083581
O        4.97078538      -1.65782079       3.38077656       25      -0.00903634      -0.00246394      -0.00083581
O        6.03623720       3.12195894       1.62805279       26      -0.00068909      -0.00394659       0.00850732
O        3.47811553       2.21752635       3.70392271       27       0.00903634      -0.00050814      -0.00255174
O        0.66181522       4.09035304       6.57535256       28       0.00903634      -0.00195580       0.00171593
O        2.15448508      -0.10750295       0.32314615       29      -0.00903634       0.00195580      -0.00171593
O       -3.21993690       0.86089115       5.27044591       30       0.00068909       0.00394659      -0.00850732
O        4.81308416       0.71385542       1.88272615       31       0.00485606       0.00541984       0.00595559
O        0.93133204       1.19850406       5.33197551       32      -0.00349119      -0.00638495       0.00595559
O        3.21993689      -0.97948950       5.33891870       33      -0.00068909      -0.00539426      -0.00767151
O        1.99678386       0.00400866       3.12610320       34       0.00485606      -0.00786761       0.00171593
O        0.93133204      -1.95590091       6.64382535       35      -0.00349119       0.00835017       0.00255174
O       -0.66181523       1.76532374       3.19457599       36      -0.00903634       0.00050814       0.00255174
O       -0.93133205      -0.75739686       5.07730215       37       0.00349119       0.00196521       0.00850732
O       -0.40363659       4.96233959       1.55958000       38       0.00068909       0.00539426       0.00767151
O        3.63581675       4.70071416       5.00882936       39      -0.00485606      -0.00244777       0.00767151
