40
Lattice="8.611419473569075 6.749320295927543e-10 1.2672827626415869e-14 -2.8704731584926924 8.118924140311798 -1.169039065944433e-09 -2.8704731575382016 -4.059462069480952 7.031194557688105" Properties=species:S:1:pos:R:3:spacegroup_kinds:I:1:forces:R:3 spacegroup="P 1" unit_cell=conventional occupancy="_JSON {\"0\": {\"In\": 1}, \"1\": {\"In\": 1}, \"2\": {\"In\": 1}, \"3\": {\"In\": 1}, \"4\": {\"In\": 1}, \"5\": {\"In\": 1}, \"6\": {\"In\": 1}, \"7\": {\"In\": 1}, \"8\": {\"In\": 1}, \"9\": {\"In\": 1}, \"10\": {\"In\": 1}, \"11\": {\"In\": 1}, \"12\": {\"In\": 1}, \"13\": {\"In\": 1}, \"14\": {\"In\": 1}, \"15\": {\"In\": 1}, \"16\": {\"O\": 1}, \"17\": {\"O\": 1}, \"18\": {\"O\": 1}, \"19\": {\"O\": 1}, \"20\": {\"O\": 1}, \"21\": {\"O\": 1}, \"22\": {\"O\": 1}, \"23\": {\"O\": 1}, \"24\": {\"O\": 1}, \"25\": {\"O\": 1}, \"26\": {\"O\": 1}, \"27\": {\"O\": 1}, \"28\": {\"O\": 1}, \"29\": {\"O\": 1}, \"30\": {\"O\": 1}, \"31\": {\"O\": 1}, \"32\": {\"O\": 1}, \"33\": {\"O\": 1}, \"34\": {\"O\": 1}, \"35\": {\"O\": 1}, \"36\": {\"O\": 1}, \"37\": {\"O\": 1}, \"38\": {\"O\": 1}, \"39\": {\"O\": 1}}" n_minim_iter=3 energy=-45149.92347736653 stress="-0.0814144736902928 4.3616551968748547e-13 9.715689980912356e-13 4.3616551968748547e-13 -0.08141447369006216 1.705146666809687e-13 9.715689980912356e-13 1.705146666809687e-13 -0.08141447369189078" free_energy=-45149.92347736653 pbc="T T T"
In      -4.10747310       2.90442208       5.51618523        0       0.00044255      -0.00031293       0.00054202
In       6.97794625       1.15503999       1.51500933        1      -0.00044255       0.00031293      -0.00054202
In       1.23699994      -0.87469104       5.03060660        2      -0.00044255       0.00031293      -0.00054202
In      -1.43523658      -2.02973103       3.51559728        3       0.00000000       0.00000000       0.00000000
In      -1.23699994       3.91928760       3.27280797        4       0.00044255      -0.00031293      -0.00054202
In       4.50394638      -2.76424760       5.27339592        5       0.00044255       0.00062587      -0.00000000
In      -1.23699994       1.29521447       5.27339592        6       0.00044255       0.00062587       0.00000000
In      -1.63347322       6.82370968       1.75779864        7      -0.00044255      -0.00062587      -0.00000000
In       4.10747309       0.14017448       3.75838659        8      -0.00044255       0.00031293       0.00054202
In      -1.43523658       4.05946207      -0.00000000        9      -0.00000000       0.00000000      -0.00000000
In       4.10747309       6.22936758       0.24278931       10      -0.00044255       0.00031293       0.00054202
In      -1.23699994      -2.16990551       6.78840524       11       0.00044255      -0.00031293      -0.00054202
In       4.10747309       2.76424761       1.75779864       12      -0.00044255      -0.00062587      -0.00000000
In       1.63347322       4.93415312       2.00058795       13       0.00044255      -0.00031293       0.00054202
In       4.30570974       0.00000000      -0.00000000       14      -0.00000000       0.00000000      -0.00000000
In       1.43523658       2.02973104       3.51559728       15      -0.00000000      -0.00000000       0.00000000
O        0.83900679       4.05675816       3.84145444       16      -0.00498658       0.00545988       0.00270606
O       -2.03146637       3.32814909       5.11280899       17      -0.00498658      -0.00038643      -0.00608142
O       -0.41236884       2.18327424       0.06459583       18       0.00312110      -0.00611942       0.00384842
O       -0.83900679      -0.73401689       1.92306887       19       0.00498658       0.00507345      -0.00337537
O        3.81496451       4.83077339       1.85847304       20       0.00129787      -0.00285157      -0.00722378
O        1.92598181       2.83563287       1.59721171       21      -0.00129787       0.00483020      -0.00608142
O        1.92598181       6.05460259       0.26126132       22      -0.00129787      -0.00768176      -0.00114236
O       -2.19586697       5.75022009       3.58019311       23       0.00680981      -0.00090280       0.00384842
O        3.28284199       1.87618783       6.96659872       24      -0.00312110       0.00611942      -0.00384842
O        5.06634013      -1.69075802       3.45100144       25      -0.00680981       0.00090280      -0.00384842
O        6.15331515       3.17730979       1.65712424       26      -0.00312110       0.00027312       0.00722378
O        3.54507934       2.25515918       3.77685860       27       0.00680981       0.00378423      -0.00114236
O        0.67460618       4.17300695       6.70533739       28       0.00680981      -0.00288143      -0.00270606
O        2.19586697      -0.11354487       0.32585716       29      -0.00680981       0.00288143       0.00270606
O       -3.28284199       0.88215228       5.37407031       30       0.00312110      -0.00027312      -0.00722378
O        4.90193952       0.73131298       1.91838556       31       0.00498658       0.00038643       0.00608142
O        0.94449135       1.22382921       5.43398284       32       0.00129787      -0.00483020       0.00608142
O        3.28284199      -0.99403555       5.43866615       33      -0.00312110      -0.00639254      -0.00337536
O        2.03146637       0.00270391       3.18974012       34       0.00498658      -0.00545988      -0.00270606
O        0.94449135      -1.99514052       6.76993323       35       0.00129787       0.00768176       0.00114236
O       -0.67460619       1.80430289       3.25433595       36      -0.00680981      -0.00378423       0.00114236
O       -0.94449135      -0.77131131       5.17272152       37      -0.00129787       0.00285157       0.00722378
O       -0.41236884       5.05349762       1.59252840       38       0.00312110       0.00639254       0.00337537
O        3.70947995       4.79347897       5.10812568       39      -0.00498658      -0.00507345       0.00337537
