40
Lattice="9.065470340220514 7.105230264903081e-10 9.368631962510342e-15 -3.021823447410058 8.547007402717085 -1.2306693869684565e-09 -3.021823446405236 -4.273503700648016 7.401925537907089" Properties=species:S:1:pos:R:3:spacegroup_kinds:I:1:forces:R:3 spacegroup="P 1" unit_cell=conventional occupancy="_JSON {\"0\": {\"In\": 1}, \"1\": {\"In\": 1}, \"2\": {\"In\": 1}, \"3\": {\"In\": 1}, \"4\": {\"In\": 1}, \"5\": {\"In\": 1}, \"6\": {\"In\": 1}, \"7\": {\"In\": 1}, \"8\": {\"In\": 1}, \"9\": {\"In\": 1}, \"10\": {\"In\": 1}, \"11\": {\"In\": 1}, \"12\": {\"In\": 1}, \"13\": {\"In\": 1}, \"14\": {\"In\": 1}, \"15\": {\"In\": 1}, \"16\": {\"O\": 1}, \"17\": {\"O\": 1}, \"18\": {\"O\": 1}, \"19\": {\"O\": 1}, \"20\": {\"O\": 1}, \"21\": {\"O\": 1}, \"22\": {\"O\": 1}, \"23\": {\"O\": 1}, \"24\": {\"O\": 1}, \"25\": {\"O\": 1}, \"26\": {\"O\": 1}, \"27\": {\"O\": 1}, \"28\": {\"O\": 1}, \"29\": {\"O\": 1}, \"30\": {\"O\": 1}, \"31\": {\"O\": 1}, \"32\": {\"O\": 1}, \"33\": {\"O\": 1}, \"34\": {\"O\": 1}, \"35\": {\"O\": 1}, \"36\": {\"O\": 1}, \"37\": {\"O\": 1}, \"38\": {\"O\": 1}, \"39\": {\"O\": 1}}" n_minim_iter=4 energy=-45151.353307918675 stress="0.030920705336716373 -2.167415711901795e-13 1.5311909172075136e-13 -2.167415711901795e-13 0.030920705336346103 -2.533385024178048e-13 1.5311909172075136e-13 -2.533385024178048e-13 0.03092070533741048" free_energy=-45151.353307918675 pbc="T T T"
In      -4.32759526       3.06007195       5.80268821        0       0.00084819      -0.00059976       0.00103881
In       7.34941870       1.21343175       1.59923732        1      -0.00084819       0.00059976      -0.00103881
In       1.30577181      -0.92332010       5.30020009        2      -0.00084819       0.00059976      -0.00103881
In      -1.51091172      -2.13675185       3.70096277        3      -0.00000000      -0.00000000      -0.00000000
In      -1.30577181       4.12844788       3.44971871        4       0.00084819      -0.00059976      -0.00103881
In       4.73787508      -2.91501613       5.55144415        5       0.00084819       0.00119952      -0.00000000
In      -1.30577181       1.35848758       5.55144415        6       0.00084819       0.00119952       0.00000000
In      -1.71605164       7.18851983       1.85048138        7      -0.00084819      -0.00119952       0.00000000
In       4.32759525       0.14505583       3.95220682        8      -0.00084819       0.00059976       0.00103881
In      -1.51091173       4.27350370      -0.00000000        9       0.00000000      -0.00000000      -0.00000000
In       4.32759525       6.55531138       0.25124405       10      -0.00084819       0.00059976       0.00103881
In      -1.30577181      -2.28180767       7.15068148       11       0.00084819      -0.00059976      -0.00103881
In       4.32759525       2.91501613       1.85048138       12      -0.00084819      -0.00119952       0.00000000
In       1.71605164       5.19682380       2.10172544       13       0.00084819      -0.00059976       0.00103881
In       4.53273517       0.00000000      -0.00000000       14       0.00000000      -0.00000000      -0.00000000
In       1.51091172       2.13675185       3.70096277       15      -0.00000000      -0.00000000      -0.00000000
O        0.89461782       4.27660980       4.02021977       16       0.00692172      -0.00486232       0.00380039
O       -2.12720563       3.48005941       5.38912569       17       0.00692172       0.00572240       0.00231070
O       -0.44693207       2.29192658       0.04510658       18       0.00311812       0.00841195      -0.00234773
O       -0.89461782      -0.79033820       2.00741993       19      -0.00692172       0.00086007       0.00611109
O        3.99010001       5.08988421       1.96231334       20       0.00308789      -0.00221554       0.00845882
O        2.05354688       2.98228075       1.68816293       21      -0.00308789      -0.00843333       0.00231070
O        2.05354688       6.38110716       0.27415041       22      -0.00308789       0.00621779       0.00614812
O       -2.30982645       6.06765162       3.74606935       23      -0.00689148      -0.00574378      -0.00234773
O        3.46875551       1.98157713       7.35681895       24      -0.00311812      -0.00841195       0.00234773
O        5.33164990      -1.79414792       3.65585618       25       0.00689148       0.00574378       0.00234773
O        6.49057896       3.32177859       1.73864942       26      -0.00311812       0.00217278      -0.00845882
O        3.73382044       2.34711727       3.97511318       27      -0.00689148       0.00083869       0.00614812
O        0.71199699       4.40574222       7.08266853       28      -0.00689148       0.00490508      -0.00380039
O        2.30982645      -0.13223851       0.31925700       29       0.00689148      -0.00490508       0.00380039
O       -3.46875551       0.95172512       5.66327611       30       0.00311812      -0.00217278       0.00845882
O        5.14902907       0.79344430       2.01279984       31      -0.00692172      -0.00572240      -0.00231070
O        0.96827657       1.29122296       5.71376261       32       0.00308789       0.00843333      -0.00231070
O        3.46875551      -1.02985201       5.70838270       33      -0.00311812       0.00623917       0.00611109
O        2.12720563      -0.00310609       3.38170576       34      -0.00692172       0.00486232      -0.00380039
O        0.96827657      -2.10760346       7.12777512       35       0.00308789      -0.00621779      -0.00614812
O       -0.71199700       1.92638644       3.42681235       36       0.00689148      -0.00083869      -0.00614812
O       -0.96827657      -0.81638050       5.43961219       37      -0.00308789       0.00221554      -0.00845882
O       -0.44693207       5.30335572       1.69354283       38       0.00311812      -0.00623917      -0.00611109
O        3.91644126       5.06384191       5.39450560       39       0.00692172      -0.00086007      -0.00611109
