40
Lattice="8.103655984436195 6.351350599373188e-10 2.5745721029719055e-14 -2.7012186620775456 7.6402001317853365 -1.1001138032459039e-09 -2.7012186611793445 -3.820100065257519 6.616607404856708" Properties=species:S:1:pos:R:3:spacegroup_kinds:I:1:forces:R:3 spacegroup="P 1" unit_cell=conventional occupancy="_JSON {\"0\": {\"In\": 1}, \"1\": {\"In\": 1}, \"2\": {\"In\": 1}, \"3\": {\"In\": 1}, \"4\": {\"In\": 1}, \"5\": {\"In\": 1}, \"6\": {\"In\": 1}, \"7\": {\"In\": 1}, \"8\": {\"In\": 1}, \"9\": {\"In\": 1}, \"10\": {\"In\": 1}, \"11\": {\"In\": 1}, \"12\": {\"In\": 1}, \"13\": {\"In\": 1}, \"14\": {\"In\": 1}, \"15\": {\"In\": 1}, \"16\": {\"O\": 1}, \"17\": {\"O\": 1}, \"18\": {\"O\": 1}, \"19\": {\"O\": 1}, \"20\": {\"O\": 1}, \"21\": {\"O\": 1}, \"22\": {\"O\": 1}, \"23\": {\"O\": 1}, \"24\": {\"O\": 1}, \"25\": {\"O\": 1}, \"26\": {\"O\": 1}, \"27\": {\"O\": 1}, \"28\": {\"O\": 1}, \"29\": {\"O\": 1}, \"30\": {\"O\": 1}, \"31\": {\"O\": 1}, \"32\": {\"O\": 1}, \"33\": {\"O\": 1}, \"34\": {\"O\": 1}, \"35\": {\"O\": 1}, \"36\": {\"O\": 1}, \"37\": {\"O\": 1}, \"38\": {\"O\": 1}, \"39\": {\"O\": 1}}" n_minim_iter=7 energy=-45136.72546445299 stress="-0.33403928096650354 -6.930433522184808e-14 -2.744353113701746e-13 -6.930433522184808e-14 -0.3340392809687443 -1.4565219480988985e-13 -2.744353113701746e-13 -1.4565219480988985e-13 -0.3340392809682689" free_energy=-45136.72546445299 pbc="T T T"
In      -3.85475283       2.72572187       5.20382234        0      -0.00166221       0.00117536      -0.00203578
In       6.55597149       1.09437820       1.41278506        1       0.00166221      -0.00117536       0.00203578
In       1.15353417      -0.81567183       4.72108876        2       0.00166221      -0.00117536       0.00203578
In      -1.35060933      -1.91005003       3.30830370        3      -0.00000000       0.00000000       0.00000000
In      -1.15353417       3.68074689       3.06693691        4      -0.00166221       0.00117536       0.00203578
In       4.24890315      -2.58636868       4.96245555        5      -0.00166221      -0.00235072       0.00000000
In      -1.15353417       1.23373138       4.96245555        6      -0.00166221      -0.00235072      -0.00000000
In      -1.54768449       6.40646875       1.65415185        7       0.00166221       0.00235072       0.00000000
In       3.85475283       0.13935318       3.54967049        8       0.00166221      -0.00117536      -0.00203578
In      -1.35060933       3.82010007      -0.00000000        9       0.00000000       0.00000000      -0.00000000
In       3.85475283       5.86950328       0.24136679       10       0.00166221      -0.00117536      -0.00203578
In      -1.15353417      -2.04940321       6.37524061       11      -0.00166221       0.00117536       0.00203578
In       3.85475283       2.58636869       1.65415185       12       0.00166221       0.00235072       0.00000000
In       1.54768449       4.63577190       1.89551864       13      -0.00166221       0.00117536      -0.00203578
In       4.05182799       0.00000000      -0.00000000       14       0.00000000      -0.00000000      -0.00000000
In       1.35060933       1.91005003       3.30830370       15       0.00000000      -0.00000000      -0.00000000
O        0.76424874       3.80864128       3.65244619       16       0.00158150      -0.00441500       0.00057983
O       -1.93696992       3.16884059       4.80030790       17       0.00158150       0.00270965       0.00353359
O       -0.37006720       2.06087304       0.10275658       18      -0.00108066       0.00459208       0.00027313
O       -0.76424874      -0.66271827       1.83614670       19      -0.00158150      -0.00170535       0.00411342
O        3.63326819       4.54214487       1.73339012       20       0.00202752       0.00186305       0.00384029
O        1.76916913       2.67996259       1.49200420       21      -0.00202752      -0.00239426       0.00353359
O        1.76916913       5.68228235       0.24138591       22      -0.00202752       0.00425731       0.00030670
O       -2.06636547       5.39209512       3.41106028       23      -0.00468967      -0.00051184       0.00027313
O        3.07128585       1.75922703       6.51385082       24       0.00108066      -0.00459208      -0.00027313
O        4.76758413      -1.57199505       3.20554712       25       0.00468967       0.00051184      -0.00027313
O        5.77250452       3.02947636       1.57491358       26       0.00108066       0.00253258      -0.00384029
O        3.33607185       2.16806733       3.54968961       27      -0.00468967       0.00049246       0.00030670
O        0.63485319       3.90013775       6.27246491       28      -0.00468967       0.00001938      -0.00057983
O        2.06636547      -0.08003768       0.34414249       29       0.00468967      -0.00001938       0.00057983
O       -3.07128586       0.79062371       5.04169382       30      -0.00108066      -0.00253258       0.00384029
O        4.63818858       0.65125948       1.81629950       31      -0.00158150      -0.00270965      -0.00353359
O        0.93204953       1.14013748       5.12460320       32       0.00202752       0.00239426      -0.00353359
O        3.07128585      -0.96860332       5.14445040       33       0.00108066       0.00205950       0.00411342
O        1.93696992       0.01145879       2.96416121       34      -0.00158150       0.00441500      -0.00057983
O        0.93204953      -1.86218228       6.37522149       35       0.00202752      -0.00425731      -0.00030670
O       -0.63485319       1.65203273       3.06691779       36       0.00468967      -0.00049246      -0.00030670
O       -0.93204953      -0.72204480       4.88321728       37      -0.00202752      -0.00186305      -0.00384029
O       -0.37006720       4.78870339       1.47215700       38      -0.00108066      -0.00205950      -0.00411342
O        3.46546740       4.48281834       4.78046070       39       0.00158150       0.00170535      -0.00411342
