40
Lattice="8.530934208899861 6.686261082375226e-10 1.4031036370025737e-14 -2.84364473693034 8.04304190506964 -1.1581136853384784e-09 -2.843644735984772 -4.02152095186618 6.9654786142651615" Properties=species:S:1:pos:R:3:spacegroup_kinds:I:1:forces:R:3 spacegroup="P 1" unit_cell=conventional occupancy="_JSON {\"0\": {\"In\": 1}, \"1\": {\"In\": 1}, \"2\": {\"In\": 1}, \"3\": {\"In\": 1}, \"4\": {\"In\": 1}, \"5\": {\"In\": 1}, \"6\": {\"In\": 1}, \"7\": {\"In\": 1}, \"8\": {\"In\": 1}, \"9\": {\"In\": 1}, \"10\": {\"In\": 1}, \"11\": {\"In\": 1}, \"12\": {\"In\": 1}, \"13\": {\"In\": 1}, \"14\": {\"In\": 1}, \"15\": {\"In\": 1}, \"16\": {\"O\": 1}, \"17\": {\"O\": 1}, \"18\": {\"O\": 1}, \"19\": {\"O\": 1}, \"20\": {\"O\": 1}, \"21\": {\"O\": 1}, \"22\": {\"O\": 1}, \"23\": {\"O\": 1}, \"24\": {\"O\": 1}, \"25\": {\"O\": 1}, \"26\": {\"O\": 1}, \"27\": {\"O\": 1}, \"28\": {\"O\": 1}, \"29\": {\"O\": 1}, \"30\": {\"O\": 1}, \"31\": {\"O\": 1}, \"32\": {\"O\": 1}, \"33\": {\"O\": 1}, \"34\": {\"O\": 1}, \"35\": {\"O\": 1}, \"36\": {\"O\": 1}, \"37\": {\"O\": 1}, \"38\": {\"O\": 1}, \"39\": {\"O\": 1}}" n_minim_iter=1 energy=-45148.55422294672 stress="-0.12071533897354234 1.566978102155918e-13 4.5469299721615694e-13 1.566978102155918e-13 -0.12071533897360441 9.578467249469247e-13 4.5469299721615694e-13 9.578467249469247e-13 -0.12071533897188061" free_energy=-45148.55422294672 pbc="T T T"
In      -4.06908325       2.87727636       5.46462908        0      -0.02219014       0.01569080      -0.02717726
In       6.91272798       1.14424460       1.50084953        1       0.02219014      -0.01569080       0.02717726
In       1.22543851      -0.86651588       4.98358884        2       0.02219014      -0.01569080       0.02717726
In      -1.42182237      -2.01076047       3.48273930        3       0.00000000      -0.00000000      -0.00000000
In      -1.22543852       3.88265660       3.24221919        4      -0.02219014       0.01569080       0.02717726
In       4.46185096      -2.73841200       5.22410896        5      -0.02219014      -0.03138160       0.00000000
In      -1.22543851       1.28310895       5.22410896        6      -0.02219014      -0.03138160      -0.00000000
In      -1.61820622       6.75993296       1.74136965        7       0.02219014       0.03138160      -0.00000000
In       4.06908325       0.13886436       3.72325942        8       0.02219014      -0.01569080      -0.02717726
In      -1.42182237       4.02152095      -0.00000000        9       0.00000000       0.00000000       0.00000000
In       4.06908325       6.17114579       0.24052012       10       0.02219014      -0.01569080      -0.02717726
In      -1.22543851      -2.14962483       6.72495849       11      -0.02219014       0.01569080       0.02717726
In       4.06908325       2.73841201       1.74136965       12       0.02219014       0.03138160       0.00000000
In       1.61820622       4.88803684       1.98188977       13      -0.02219014       0.01569080      -0.02717726
In       4.26546710       0.00000000      -0.00000000       14      -0.00000000      -0.00000000       0.00000000
In       1.42182237       2.01076048       3.48273930       15      -0.00000000       0.00000000      -0.00000000
O        0.83116514       4.01884232       3.80555089       16      -0.01708887      -0.00212705       0.04613367
O       -2.01247959       3.29704307       5.06502293       17      -0.01708887       0.04101646      -0.02122475
O       -0.40851470       2.16286862       0.06399210       18       0.03096899       0.00703442       0.03763387
O       -0.83116515      -0.72715652       1.90509521       19       0.01708887       0.03888941       0.02490892
O        3.77930855       4.78562333       1.84110311       20       0.04436698      -0.01716148      -0.01272495
O        1.90798092       2.80913007       1.58228363       21      -0.04436698       0.00243939      -0.02122475
O        1.90798092       5.99801421       0.25881948       22      -0.04436698      -0.01960087       0.00849981
O       -2.17534365       5.69647657       3.54673141       23       0.00369088      -0.03154265       0.03763387
O        3.25215943       1.85865234       6.90148651       24      -0.03096899      -0.00703442      -0.03763387
O        5.01898839      -1.67495562       3.41874720       25      -0.00369088       0.03154265      -0.03763387
O        6.09580416       3.14761357       1.64163619       26      -0.03096899       0.03610909       0.01272495
O        3.51194582       2.23408169       3.74155879       27       0.00369088       0.04836321       0.00849981
O        0.66830108       4.13400460       6.64266702       28       0.00369088      -0.01682056      -0.04613367
O        2.17534365      -0.11248364       0.32281159       29      -0.00369088       0.01682056       0.04613367
O       -3.25215943       0.87390738       5.32384242       30       0.03096899      -0.03610909      -0.01272495
O        4.85612432       0.72447788       1.90045568       31       0.01708887      -0.04101646       0.02122475
O        0.93566381       1.21239088       5.38319498       32       0.04436698      -0.00243939       0.02122475
O        3.25215943      -0.98474495       5.38783452       33      -0.03096899      -0.02907468       0.02490892
O        2.01247959       0.00267864       3.15992772       34       0.01708887       0.00212705      -0.04613367
O        0.93566381      -1.97649326       6.70665912       35       0.04436698       0.01960087      -0.00849981
O       -0.66830109       1.78743926       3.22391982       36      -0.00369088      -0.04836321      -0.00849981
O       -0.93566381      -0.76410238       5.12437550       37      -0.04436698       0.01716148       0.01272495
O       -0.40851470       5.00626591       1.57764409       38       0.03096899       0.02907468      -0.02490892
O        3.67480988       4.74867748       5.06038339       39      -0.01708887      -0.03888941      -0.02490892
40
Lattice="8.530934208899861 6.686261082375225e-10 1.4031036370025729e-14 -2.84364473693034 8.043041905069638 -1.1581136853384784e-09 -2.843644735984772 -4.021520951866179 6.965478614265162" Properties=species:S:1:pos:R:3:spacegroup_kinds:I:1:forces:R:3 spacegroup="P 1" unit_cell=conventional occupancy="_JSON {\"0\": {\"In\": 1}, \"1\": {\"In\": 1}, \"2\": {\"In\": 1}, \"3\": {\"In\": 1}, \"4\": {\"In\": 1}, \"5\": {\"In\": 1}, \"6\": {\"In\": 1}, \"7\": {\"In\": 1}, \"8\": {\"In\": 1}, \"9\": {\"In\": 1}, \"10\": {\"In\": 1}, \"11\": {\"In\": 1}, \"12\": {\"In\": 1}, \"13\": {\"In\": 1}, \"14\": {\"In\": 1}, \"15\": {\"In\": 1}, \"16\": {\"O\": 1}, \"17\": {\"O\": 1}, \"18\": {\"O\": 1}, \"19\": {\"O\": 1}, \"20\": {\"O\": 1}, \"21\": {\"O\": 1}, \"22\": {\"O\": 1}, \"23\": {\"O\": 1}, \"24\": {\"O\": 1}, \"25\": {\"O\": 1}, \"26\": {\"O\": 1}, \"27\": {\"O\": 1}, \"28\": {\"O\": 1}, \"29\": {\"O\": 1}, \"30\": {\"O\": 1}, \"31\": {\"O\": 1}, \"32\": {\"O\": 1}, \"33\": {\"O\": 1}, \"34\": {\"O\": 1}, \"35\": {\"O\": 1}, \"36\": {\"O\": 1}, \"37\": {\"O\": 1}, \"38\": {\"O\": 1}, \"39\": {\"O\": 1}}" n_minim_iter=2 energy=-45148.55591841653 stress="-0.12044928180997637 -6.76552830807136e-13 -4.21222697115338e-13 -6.76552830807136e-13 -0.12044928180853151 -5.427331889304658e-13 -4.21222697115338e-13 -5.427331889304658e-13 -0.12044928180954118" free_energy=-45148.55591841653 pbc="T T T"
In      -4.07007456       2.87797732       5.46341498        0       0.01316892      -0.00931184       0.01612857
In       6.91371929       1.14354363       1.50206363        1      -0.01316892       0.00931184      -0.01612857
In       1.22642982      -0.86721684       4.98480294        2      -0.01316892       0.00931184      -0.01612857
In      -1.42182237      -2.01076047       3.48273930        3      -0.00000000       0.00000000      -0.00000000
In      -1.22642982       3.88335756       3.24343328        4       0.01316892      -0.00931184      -0.01612857
In       4.46085965      -2.73981392       5.22410896        5       0.01316892       0.01862367       0.00000000
In      -1.22642982       1.28170703       5.22410896        6       0.01316892       0.01862367      -0.00000000
In      -1.61721492       6.76133488       1.74136965        7      -0.01316892      -0.01862367       0.00000000
In       4.07007456       0.13816340       3.72204532        8      -0.01316892       0.00931184       0.01612857
In      -1.42182237       4.02152095      -0.00000000        9      -0.00000000       0.00000000       0.00000000
In       4.07007456       6.17044483       0.23930602       10      -0.01316892       0.00931184       0.01612857
In      -1.22642982      -2.14892387       6.72617259       11       0.01316892      -0.00931184      -0.01612857
In       4.07007456       2.73981393       1.74136965       12      -0.01316892      -0.01862367       0.00000000
In       1.61721491       4.88873780       1.98067567       13       0.01316892      -0.00931184       0.01612857
In       4.26546710       0.00000000      -0.00000000       14       0.00000000      -0.00000000      -0.00000000
In       1.42182237       2.01076048       3.48273930       15       0.00000000      -0.00000000      -0.00000000
O        0.83040173       4.01874729       3.80761184       16      -0.02729063      -0.01625870      -0.00139018
O       -2.01324301       3.29887542       5.06407475       17      -0.02729063       0.00692541       0.01477553
O       -0.40713121       2.16318287       0.06567333       18      -0.01789638       0.00028268       0.02628109
O       -0.83040173      -0.72541920       1.90620798       19       0.02729063      -0.00933328       0.01338535
O        3.78129057       4.78485667       1.84053465       20       0.01562622       0.02450668      -0.01289574
O        1.90599890       2.80923905       1.58133544       21      -0.01562622       0.02342138       0.01477553
O        1.90599890       5.99713858       0.25919920       22      -0.01562622       0.00108530      -0.02767128
O       -2.17517877       5.69506746       3.54841264       23      -0.00623197       0.01677864       0.02628109
O        3.25077594       1.85833809       6.89980528       24       0.01789638      -0.00028268      -0.02628109
O        5.01882350      -1.67354650       3.41706597       25       0.00623197      -0.01677864      -0.02628109
O        6.09442068       3.14922669       1.64220466       26       0.01789638       0.02290143       0.01289574
O        3.51211070       2.23624224       3.74193851       27      -0.00623197       0.01437077      -0.02767128
O        0.66846597       4.13325317       6.64060608       28      -0.00623197      -0.03114941       0.00139018
O        2.17517877      -0.11173221       0.32487253       29       0.00623197       0.03114941      -0.00139018
O       -3.25077594       0.87229427       5.32327395       30      -0.01789638      -0.02290143      -0.01289574
O        4.85688774       0.72264554       1.90140386       31       0.02729063      -0.00692541      -0.01477553
O        0.93764583       1.21228191       5.38414316       32       0.01562622      -0.02342138      -0.01477553
O        3.25077594      -0.98604382       5.38894729       33       0.01789638      -0.02261876       0.01338535
O        2.01324301       0.00277366       3.15786677       34       0.02729063       0.01625870       0.00139018
O        0.93764583      -1.97561762       6.70627941       35       0.01562622      -0.00108530       0.02767128
O       -0.66846597       1.78527872       3.22354010       36       0.00623197      -0.01437077       0.02767128
O       -0.93764583      -0.76333571       5.12494396       37      -0.01562622      -0.02450668       0.01289574
O       -0.40713121       5.00756477       1.57653132       38      -0.01789638       0.02261876      -0.01338535
O        3.67404646       4.74694016       5.05927063       39      -0.02729063       0.00933328      -0.01338535
40
Lattice="8.530934208899865 6.686261082375228e-10 1.403103637002574e-14 -2.8436447369303415 8.043041905069641 -1.1581136853384788e-09 -2.8436447359847734 -4.021520951866181 6.965478614265165" Properties=species:S:1:pos:R:3:spacegroup_kinds:I:1:forces:R:3 spacegroup="P 1" unit_cell=conventional occupancy="_JSON {\"0\": {\"In\": 1}, \"1\": {\"In\": 1}, \"2\": {\"In\": 1}, \"3\": {\"In\": 1}, \"4\": {\"In\": 1}, \"5\": {\"In\": 1}, \"6\": {\"In\": 1}, \"7\": {\"In\": 1}, \"8\": {\"In\": 1}, \"9\": {\"In\": 1}, \"10\": {\"In\": 1}, \"11\": {\"In\": 1}, \"12\": {\"In\": 1}, \"13\": {\"In\": 1}, \"14\": {\"In\": 1}, \"15\": {\"In\": 1}, \"16\": {\"O\": 1}, \"17\": {\"O\": 1}, \"18\": {\"O\": 1}, \"19\": {\"O\": 1}, \"20\": {\"O\": 1}, \"21\": {\"O\": 1}, \"22\": {\"O\": 1}, \"23\": {\"O\": 1}, \"24\": {\"O\": 1}, \"25\": {\"O\": 1}, \"26\": {\"O\": 1}, \"27\": {\"O\": 1}, \"28\": {\"O\": 1}, \"29\": {\"O\": 1}, \"30\": {\"O\": 1}, \"31\": {\"O\": 1}, \"32\": {\"O\": 1}, \"33\": {\"O\": 1}, \"34\": {\"O\": 1}, \"35\": {\"O\": 1}, \"36\": {\"O\": 1}, \"37\": {\"O\": 1}, \"38\": {\"O\": 1}, \"39\": {\"O\": 1}}" n_minim_iter=3 energy=-45148.557140708646 stress="-0.12024522778730706 -3.132817952310448e-13 1.2031916010306268e-13 -3.132817952310448e-13 -0.1202452277873311 -3.396883124779429e-13 1.2031916010306268e-13 -3.396883124779429e-13 -0.12024522778824487" free_energy=-45148.557140708646 pbc="T T T"
In      -4.06976906       2.87776130       5.46378914        0       0.00118055      -0.00083478       0.00144587
In       6.91341379       1.14375966       1.50168947        1      -0.00118055       0.00083478      -0.00144587
In       1.22612432      -0.86700082       4.98442878        2      -0.00118055       0.00083478      -0.00144587
In      -1.42182237      -2.01076047       3.48273930        3      -0.00000000      -0.00000000       0.00000000
In      -1.22612432       3.88314154       3.24305912        4       0.00118055      -0.00083478      -0.00144587
In       4.46116515      -2.73938188       5.22410896        5       0.00118055       0.00166955      -0.00000000
In      -1.22612432       1.28213908       5.22410896        6       0.00118055       0.00166955       0.00000000
In      -1.61752042       6.76090283       1.74136965        7      -0.00118055      -0.00166955      -0.00000000
In       4.06976905       0.13837942       3.72241949        8      -0.00118055       0.00083478       0.00144587
In      -1.42182237       4.02152095      -0.00000000        9       0.00000000      -0.00000000       0.00000000
In       4.06976905       6.17066085       0.23968018       10      -0.00118055       0.00083478       0.00144587
In      -1.22612432      -2.14913989       6.72579843       11       0.00118055      -0.00083478      -0.00144587
In       4.06976905       2.73938188       1.74136965       12      -0.00118055      -0.00166955       0.00000000
In       1.61752042       4.88852177       1.98104983       13       0.00118055      -0.00083478       0.00144587
In       4.26546710       0.00000000      -0.00000000       14      -0.00000000      -0.00000000      -0.00000000
In       1.42182237       2.01076048       3.48273930       15       0.00000000       0.00000000       0.00000000
O        0.82796455       4.01752568       3.80883211       16      -0.00864146       0.00717390      -0.00144228
O       -2.01568018       3.30054301       5.06452257       17      -0.00864146      -0.00483600      -0.00549164
O       -0.40752313       2.16340425       0.06862606       18      -0.00067630      -0.01046822       0.00426365
O       -0.82796456      -0.72497322       1.90787607       19       0.00864146       0.00233789      -0.00693392
O        3.78367518       4.78611546       1.83925000       20      -0.00167894       0.00012373      -0.01119757
O        1.90361429       2.81098098       1.58178326       21       0.00167894       0.00975924      -0.00549164
O        1.90361429       5.99665543       0.25746674       22       0.00167894      -0.00963552      -0.00570594
O       -2.17551813       5.69536317       3.55136537       23       0.00964410       0.00412703       0.00426365
O        3.25116786       1.85811671       6.89685255       24       0.00067630       0.01046822      -0.00426365
O        5.01916286      -1.67384221       3.41411324       25      -0.00964410      -0.00412703      -0.00426365
O        6.09481260       3.15189451       1.64348930       26       0.00067630      -0.00154168       0.01119757
O        3.51177134       2.23865152       3.74020605       27       0.00964410       0.00162892      -0.00570594
O        0.66812661       4.13054817       6.63938581       28       0.00964410      -0.00575594       0.00144228
O        2.17551813      -0.10902722       0.32609280       29      -0.00964410       0.00575594      -0.00144228
O       -3.25116787       0.86962644       5.32198931       30      -0.00067630       0.00154168      -0.01119757
O        4.85932492       0.72097795       1.90095604       31       0.00864146       0.00483600       0.00549164
O        0.94003044       1.21053998       5.38369535       32      -0.00167894      -0.00975924       0.00549164
O        3.25116786      -0.98849026       5.39061537       33       0.00067630      -0.00892654      -0.00693392
O        2.01568018       0.00399528       3.15664650       34       0.00864146      -0.00717390       0.00144228
O        0.94003044      -1.97513448       6.70801187       35      -0.00167894       0.00963552       0.00570594
O       -0.66812661       1.78286944       3.22527256       36      -0.00964410      -0.00162892       0.00570594
O       -0.94003045      -0.76459450       5.12622861       37       0.00167894      -0.00012373       0.01119757
O       -0.40752313       5.01001122       1.57486324       38      -0.00067630       0.00892654       0.00693392
O        3.67160929       4.74649418       5.05760254       39      -0.00864146      -0.00233789       0.00693392
40
Lattice="8.530934208899865 6.686261082375228e-10 1.403103637002574e-14 -2.8436447369303415 8.043041905069641 -1.1581136853384788e-09 -2.8436447359847734 -4.021520951866181 6.965478614265165" Properties=species:S:1:pos:R:3:spacegroup_kinds:I:1:forces:R:3 spacegroup="P 1" unit_cell=conventional occupancy="_JSON {\"0\": {\"In\": 1}, \"1\": {\"In\": 1}, \"2\": {\"In\": 1}, \"3\": {\"In\": 1}, \"4\": {\"In\": 1}, \"5\": {\"In\": 1}, \"6\": {\"In\": 1}, \"7\": {\"In\": 1}, \"8\": {\"In\": 1}, \"9\": {\"In\": 1}, \"10\": {\"In\": 1}, \"11\": {\"In\": 1}, \"12\": {\"In\": 1}, \"13\": {\"In\": 1}, \"14\": {\"In\": 1}, \"15\": {\"In\": 1}, \"16\": {\"O\": 1}, \"17\": {\"O\": 1}, \"18\": {\"O\": 1}, \"19\": {\"O\": 1}, \"20\": {\"O\": 1}, \"21\": {\"O\": 1}, \"22\": {\"O\": 1}, \"23\": {\"O\": 1}, \"24\": {\"O\": 1}, \"25\": {\"O\": 1}, \"26\": {\"O\": 1}, \"27\": {\"O\": 1}, \"28\": {\"O\": 1}, \"29\": {\"O\": 1}, \"30\": {\"O\": 1}, \"31\": {\"O\": 1}, \"32\": {\"O\": 1}, \"33\": {\"O\": 1}, \"34\": {\"O\": 1}, \"35\": {\"O\": 1}, \"36\": {\"O\": 1}, \"37\": {\"O\": 1}, \"38\": {\"O\": 1}, \"39\": {\"O\": 1}}" n_minim_iter=4 energy=-45148.55720411597 stress="-0.12021219086080456 3.296103686354482e-13 1.0710823570082874e-13 3.296103686354482e-13 -0.12021219086080256 -8.661168545256671e-14 1.0710823570082874e-13 -8.661168545256671e-14 -0.1202121908601653" free_energy=-45148.55720411597 pbc="T T T"
In      -4.06973107       2.87773444       5.46383567        0      -0.00042107       0.00029774      -0.00051570
In       6.91337580       1.14378652       1.50164294        1       0.00042107      -0.00029774       0.00051570
In       1.22608633      -0.86697395       4.98438225        2       0.00042107      -0.00029774       0.00051570
In      -1.42182237      -2.01076047       3.48273930        3      -0.00000000       0.00000000       0.00000000
In      -1.22608633       3.88311467       3.24301259        4      -0.00042107       0.00029774       0.00051570
In       4.46120314      -2.73932815       5.22410896        5      -0.00042107      -0.00059548       0.00000000
In      -1.22608633       1.28219280       5.22410896        6      -0.00042107      -0.00059548       0.00000000
In      -1.61755841       6.76084911       1.74136965        7       0.00042107       0.00059548      -0.00000000
In       4.06973106       0.13840628       3.72246602        8       0.00042107      -0.00029774      -0.00051570
In      -1.42182237       4.02152095      -0.00000000        9      -0.00000000       0.00000000      -0.00000000
In       4.06973106       6.17068771       0.23972671       10       0.00042107      -0.00029774      -0.00051570
In      -1.22608633      -2.14916676       6.72575190       11      -0.00042107       0.00029774       0.00051570
In       4.06973106       2.73932815       1.74136965       12       0.00042107       0.00059548      -0.00000000
In       1.61755841       4.88849491       1.98109636       13      -0.00042107       0.00029774      -0.00051570
In       4.26546710       0.00000000      -0.00000000       14      -0.00000000       0.00000000       0.00000000
In       1.42182237       2.01076048       3.48273930       15      -0.00000000       0.00000000      -0.00000000
O        0.82747341       4.01747338       3.80902299       16      -0.00485606       0.00786761      -0.00171593
O       -2.01617133       3.30073447       5.06447242       17      -0.00485606      -0.00541984      -0.00595559
O       -0.40755564       2.16327141       0.06913762       18       0.00068909      -0.00934086       0.00083581
O       -0.82747341      -0.72483406       1.90801680       19       0.00485606       0.00244777      -0.00767151
O        3.78401940       4.78627164       1.83887918       20      -0.00349119      -0.00196521      -0.00850732
O        1.90327007       2.81138021       1.58173311       21       0.00349119       0.00638495      -0.00595559
O        1.90327007       5.99641238       0.25714607       22       0.00349119      -0.00835017      -0.00255174
O       -2.17540372       5.69543810       3.55187692       23       0.00903634       0.00246394       0.00083581
O        3.25120037       1.85824955       6.89634099       24      -0.00068909       0.00934086      -0.00083581
O        5.01904845      -1.67391715       3.41360169       25      -0.00903634      -0.00246394      -0.00083581
O        6.09484511       3.15227111       1.64386012       26      -0.00068909      -0.00394659       0.00850732
O        3.51188575       2.23905708       3.73988537       27       0.00903634      -0.00050814      -0.00255174
O        0.66824101       4.13006769       6.63919492       28       0.00903634      -0.00195580       0.00171593
O        2.17540372      -0.10854673       0.32628369       29      -0.00903634       0.00195580      -0.00171593
O       -3.25120038       0.86924984       5.32161849       30       0.00068909       0.00394659      -0.00850732
O        4.85981606       0.72078649       1.90100619       31       0.00485606       0.00541984       0.00595559
O        0.94037467       1.21014075       5.38374550       32      -0.00349119      -0.00638495       0.00595559
O        3.25120037      -0.98899970       5.39075611       33      -0.00068909      -0.00539426      -0.00767151
O        2.01617132       0.00404758       3.15645562       34       0.00485606      -0.00786761       0.00171593
O        0.94037467      -1.97489143       6.70833254       35      -0.00349119       0.00835017       0.00255174
O       -0.66824102       1.78246388       3.22559323       36      -0.00903634       0.00050814       0.00255174
O       -0.94037467      -0.76475068       5.12659943       37       0.00349119       0.00196521       0.00850732
O       -0.40755564       5.01052066       1.57472250       38       0.00068909       0.00539426       0.00767151
O        3.67111815       4.74635502       5.05746181       39      -0.00485606      -0.00244777       0.00767151
