40
Lattice="9.54346176512018 7.479833894581126e-10 2.8209430156418334e-14 -3.1811539224119327 8.997662039898694 -1.295564332255226e-09 -3.1811539213541478 -4.498831019201355 7.792203902082875" Properties=species:S:1:pos:R:3:spacegroup_kinds:I:1:forces:R:3 spacegroup="P 1" unit_cell=conventional occupancy="_JSON {\"0\": {\"In\": 1}, \"1\": {\"In\": 1}, \"2\": {\"In\": 1}, \"3\": {\"In\": 1}, \"4\": {\"In\": 1}, \"5\": {\"In\": 1}, \"6\": {\"In\": 1}, \"7\": {\"In\": 1}, \"8\": {\"In\": 1}, \"9\": {\"In\": 1}, \"10\": {\"In\": 1}, \"11\": {\"In\": 1}, \"12\": {\"In\": 1}, \"13\": {\"In\": 1}, \"14\": {\"In\": 1}, \"15\": {\"In\": 1}, \"16\": {\"O\": 1}, \"17\": {\"O\": 1}, \"18\": {\"O\": 1}, \"19\": {\"O\": 1}, \"20\": {\"O\": 1}, \"21\": {\"O\": 1}, \"22\": {\"O\": 1}, \"23\": {\"O\": 1}, \"24\": {\"O\": 1}, \"25\": {\"O\": 1}, \"26\": {\"O\": 1}, \"27\": {\"O\": 1}, \"28\": {\"O\": 1}, \"29\": {\"O\": 1}, \"30\": {\"O\": 1}, \"31\": {\"O\": 1}, \"32\": {\"O\": 1}, \"33\": {\"O\": 1}, \"34\": {\"O\": 1}, \"35\": {\"O\": 1}, \"36\": {\"O\": 1}, \"37\": {\"O\": 1}, \"38\": {\"O\": 1}, \"39\": {\"O\": 1}}" n_minim_iter=1 energy=-45144.20267316284 stress="0.10451274702995582 -6.377189578535378e-14 1.1648031604318438e-13 -6.377189578535378e-14 0.10451274702987196 7.106218415051294e-14 1.1648031604318438e-13 7.106218415051294e-14 0.10451274703065104" free_energy=-45144.20267316284 pbc="T T T"
In      -4.52569794       3.20015170       6.14548051        0       0.04101727      -0.02900359       0.05023569
In       7.70685186       1.29867932       1.64672339        1      -0.04101727       0.02900359      -0.05023569
In       1.34454402      -0.95073619       5.54282534        2      -0.04101727       0.02900359      -0.05023569
In      -1.59057696      -2.24941551       3.89610195        3       0.00000000      -0.00000000      -0.00000000
In      -1.34454402       4.32485946       3.59477436        4       0.04101727      -0.02900359      -0.05023569
In       5.01776382      -3.02618014       5.84415292        5       0.04101727       0.05800718      -0.00000000
In      -1.34454402       1.47265088       5.84415292        6       0.04101727       0.05800718      -0.00000000
In      -1.83660991       7.52501116       1.94805097        7      -0.04101727      -0.05800718       0.00000000
In       4.52569794       0.17397157       4.19742953        8      -0.04101727       0.02900359       0.05023569
In      -1.59057696       4.49883102      -0.00000000        9      -0.00000000       0.00000000       0.00000000
In       4.52569794       6.92221809       0.30132758       10      -0.04101727       0.02900359       0.05023569
In      -1.34454402      -2.42338707       7.49087631       11       0.04101727      -0.02900359      -0.05023569
In       4.52569794       3.02618014       1.94805097       12      -0.04101727      -0.05800718       0.00000000
In       1.83660990       5.44956721       2.24937856       13       0.04101727      -0.02900359       0.05023569
In       4.77173088       0.00000000      -0.00000000       14       0.00000000      -0.00000000      -0.00000000
In       1.59057696       2.24941551       3.89610195       15      -0.00000000       0.00000000      -0.00000000
O        1.00209504       4.51344277       4.20491665       16       0.02783034       0.03498776      -0.02706342
O       -2.17905888       3.63425877       5.67709143       17       0.02783034      -0.04093149      -0.01676857
O       -0.46731877       2.42387572      -0.01866755       18       0.00367298      -0.02384965      -0.04635518
O       -1.00209504      -0.84996050       2.08980418       19      -0.02783034      -0.00594373      -0.04383200
O        4.15276498       5.33801381       2.10847172       20      -0.04786736      -0.02081944       0.00252319
O        2.20954286       3.09243234       1.78098947       21       0.04786736      -0.01259487      -0.01676857
O        2.20954286       6.74441249       0.32748224       22       0.04786736      -0.00822458       0.01929176
O       -2.44102487       6.38088032       3.87743440       23       0.02370999       0.00448697      -0.04635518
O        3.64847269       2.07495530       7.81087145       24      -0.00367298       0.02384965       0.04635518
O        5.62217879      -1.88204929       3.91476950       25      -0.02370999      -0.00448697       0.04635518
O        6.82962661       3.44518680       1.78763022       26      -0.00367298      -0.05206959      -0.00252319
O        3.92128297       2.41693205       4.22358420       27       0.02370999      -0.04238825       0.01929176
O        0.74012905       4.69868070       7.48338920       28       0.02370999       0.03790128       0.02706342
O        2.44102487      -0.19984967       0.30881470       29      -0.02370999      -0.03790128      -0.02706342
O       -3.64847269       1.05364422       6.00457367       30       0.00367298       0.05206959       0.00252319
O        5.36021280       0.86457226       2.11511247       31      -0.02783034       0.04093149       0.01676857
O        0.97161106       1.40639868       6.01121442       32      -0.04786736       0.01259487       0.01676857
O        3.64847269      -1.02131108       5.98590613       33      -0.00367298       0.02821994      -0.04383200
O        2.17905888      -0.01461175       3.58728725       34      -0.02783034      -0.03498776       0.02706342
O        0.97161106      -2.24558147       7.46472165       35      -0.04786736       0.00822458      -0.01929176
O       -0.74012905       2.08189897       3.56861970       36      -0.02370999       0.04238825      -0.01929176
O       -0.97161106      -0.83918279       5.68373217       37       0.04786736       0.02081944      -0.00252319
O       -0.46731877       5.52014210       1.80629777       38       0.00367298      -0.02821994       0.04383200
O        4.18324896       5.34879153       5.70239972       39       0.02783034       0.00594373       0.04383200
40
Lattice="9.543461765120178 7.479833894581125e-10 2.820943015641833e-14 -3.1811539224119323 8.997662039898692 -1.2955643322552257e-09 -3.1811539213541473 -4.498831019201354 7.792203902082874" Properties=species:S:1:pos:R:3:spacegroup_kinds:I:1:forces:R:3 spacegroup="P 1" unit_cell=conventional occupancy="_JSON {\"0\": {\"In\": 1}, \"1\": {\"In\": 1}, \"2\": {\"In\": 1}, \"3\": {\"In\": 1}, \"4\": {\"In\": 1}, \"5\": {\"In\": 1}, \"6\": {\"In\": 1}, \"7\": {\"In\": 1}, \"8\": {\"In\": 1}, \"9\": {\"In\": 1}, \"10\": {\"In\": 1}, \"11\": {\"In\": 1}, \"12\": {\"In\": 1}, \"13\": {\"In\": 1}, \"14\": {\"In\": 1}, \"15\": {\"In\": 1}, \"16\": {\"O\": 1}, \"17\": {\"O\": 1}, \"18\": {\"O\": 1}, \"19\": {\"O\": 1}, \"20\": {\"O\": 1}, \"21\": {\"O\": 1}, \"22\": {\"O\": 1}, \"23\": {\"O\": 1}, \"24\": {\"O\": 1}, \"25\": {\"O\": 1}, \"26\": {\"O\": 1}, \"27\": {\"O\": 1}, \"28\": {\"O\": 1}, \"29\": {\"O\": 1}, \"30\": {\"O\": 1}, \"31\": {\"O\": 1}, \"32\": {\"O\": 1}, \"33\": {\"O\": 1}, \"34\": {\"O\": 1}, \"35\": {\"O\": 1}, \"36\": {\"O\": 1}, \"37\": {\"O\": 1}, \"38\": {\"O\": 1}, \"39\": {\"O\": 1}}" n_minim_iter=2 energy=-45144.21461294783 stress="0.1026624098870866 -7.492701428787947e-13 -3.2687490257237727e-13 -7.492701428787947e-13 0.10266240988719079 -1.7853619530680272e-13 -3.2687490257237727e-13 -1.7853619530680272e-13 0.10266240988724563" free_energy=-45144.21461294783 pbc="T T T"
In      -4.51771680       3.19450818       6.15525538        0       0.00431500      -0.00305116       0.00528477
In       7.69887071       1.30432284       1.63694852        1      -0.00431500       0.00305116      -0.00528477
In       1.33656287      -0.94509267       5.53305047        2      -0.00431500       0.00305116      -0.00528477
In      -1.59057696      -2.24941551       3.89610195        3       0.00000000       0.00000000      -0.00000000
In      -1.33656287       4.31921594       3.58499950        4       0.00431500      -0.00305116      -0.00528477
In       5.02574497      -3.01489309       5.84415292        5       0.00431500       0.00610232       0.00000000
In      -1.33656287       1.48393793       5.84415292        6       0.00431500       0.00610232       0.00000000
In      -1.84459105       7.51372412       1.94805097        7      -0.00431500      -0.00610232       0.00000000
In       4.51771679       0.17961509       4.20720440        8      -0.00431500       0.00305116       0.00528477
In      -1.59057696       4.49883102      -0.00000000        9       0.00000000      -0.00000000       0.00000000
In       4.51771679       6.92786162       0.31110245       10      -0.00431500       0.00305116       0.00528477
In      -1.33656287      -2.42903059       7.48110145       11       0.00431500      -0.00305116      -0.00528477
In       4.51771679       3.01489310       1.94805097       12      -0.00431500      -0.00610232      -0.00000000
In       1.84459105       5.44392369       2.25915342       13       0.00431500      -0.00305116       0.00528477
In       4.77173088       0.00000000      -0.00000000       14       0.00000000       0.00000000      -0.00000000
In       1.59057696       2.24941551       3.89610195       15       0.00000000       0.00000000       0.00000000
O        1.00751027       4.52025069       4.19965064       16       0.03238564      -0.03346329       0.01226690
O       -2.17364365       3.62629431       5.67382859       17       0.03238564       0.02735509       0.02284661
O       -0.46660408       2.41923506      -0.02768735       18       0.00503635       0.04669396      -0.01064929
O       -1.00751027      -0.85111703       2.08127534       19      -0.03238564      -0.00610820       0.03511351
O        4.14345095       5.33396276       2.10896268       20       0.01499542      -0.00004017       0.04576280
O        2.21885689       3.08998163       1.77772664       21      -0.01499542      -0.03965183       0.02284661
O        2.21885689       6.74281215       0.33123604       22      -0.01499542       0.03961166       0.02291619
O       -2.43641138       6.38175339       3.86841460       23      -0.04234471      -0.02031297      -0.01064929
O        3.64775800       2.07959597       7.81989124       24      -0.00503635      -0.04669396       0.01064929
O        5.61756530      -1.88292237       3.92378929       25       0.04234471       0.02031297       0.01064929
O        6.82891192       3.43505510       1.78713926       26      -0.00503635       0.01412442      -0.04576280
O        3.92589647       2.40868414       4.22733799       27      -0.04234471       0.00093393       0.02291619
O        0.74474254       4.70605553       7.48865520       28      -0.04234471       0.01937904      -0.01226690
O        2.43641137      -0.20722451       0.30354869       29       0.04234471      -0.01937904       0.01226690
O       -3.64775800       1.06377593       6.00506463       30       0.00503635      -0.01412442       0.04576280
O        5.35479757       0.87253671       2.11837530       31      -0.03238564      -0.02735509      -0.02284661
O        0.96229703       1.40884939       6.01447725       32       0.01499542       0.03965183      -0.02284661
O        3.64775800      -1.01582004       5.97737729       33      -0.00503635       0.03256954       0.03511351
O        2.17364365      -0.02141967       3.59255325       34      -0.03238564       0.03346329      -0.01226690
O        0.96229703      -2.24398113       7.46096786       35       0.01499542      -0.03961166      -0.02291619
O       -0.74474255       2.09014689       3.56486591       36       0.04234471      -0.00093393      -0.02291619
O       -0.96229703      -0.83513174       5.68324121       37      -0.01499542       0.00004017      -0.04576280
O       -0.46660408       5.51465106       1.81482660       38       0.00503635      -0.03256954      -0.03511351
O        4.18866419       5.34994806       5.71092856       39       0.03238564       0.00610820      -0.03511351
40
Lattice="9.543461765120172 7.479833894581123e-10 2.8209430156418296e-14 -3.1811539224119314 8.997662039898689 -1.2955643322552253e-09 -3.1811539213541464 -4.4988310192013525 7.792203902082871" Properties=species:S:1:pos:R:3:spacegroup_kinds:I:1:forces:R:3 spacegroup="P 1" unit_cell=conventional occupancy="_JSON {\"0\": {\"In\": 1}, \"1\": {\"In\": 1}, \"2\": {\"In\": 1}, \"3\": {\"In\": 1}, \"4\": {\"In\": 1}, \"5\": {\"In\": 1}, \"6\": {\"In\": 1}, \"7\": {\"In\": 1}, \"8\": {\"In\": 1}, \"9\": {\"In\": 1}, \"10\": {\"In\": 1}, \"11\": {\"In\": 1}, \"12\": {\"In\": 1}, \"13\": {\"In\": 1}, \"14\": {\"In\": 1}, \"15\": {\"In\": 1}, \"16\": {\"O\": 1}, \"17\": {\"O\": 1}, \"18\": {\"O\": 1}, \"19\": {\"O\": 1}, \"20\": {\"O\": 1}, \"21\": {\"O\": 1}, \"22\": {\"O\": 1}, \"23\": {\"O\": 1}, \"24\": {\"O\": 1}, \"25\": {\"O\": 1}, \"26\": {\"O\": 1}, \"27\": {\"O\": 1}, \"28\": {\"O\": 1}, \"29\": {\"O\": 1}, \"30\": {\"O\": 1}, \"31\": {\"O\": 1}, \"32\": {\"O\": 1}, \"33\": {\"O\": 1}, \"34\": {\"O\": 1}, \"35\": {\"O\": 1}, \"36\": {\"O\": 1}, \"37\": {\"O\": 1}, \"38\": {\"O\": 1}, \"39\": {\"O\": 1}}" n_minim_iter=3 energy=-45144.21695117931 stress="0.10296042436679313 -2.4087121386635213e-13 9.050342670458007e-14 -2.4087121386635213e-13 0.102960424367197 1.5810482077080696e-14 9.050342670458007e-14 1.5810482077080696e-14 0.10296042436704772" free_energy=-45144.21695117931 pbc="T T T"
In      -4.51850391       3.19506475       6.15429137        0       0.01032493      -0.00730083       0.01264540
In       7.69965783       1.30376627       1.63791253        1      -0.01032493       0.00730083      -0.01264540
In       1.33734998      -0.94564924       5.53401448        2      -0.01032493       0.00730083      -0.01264540
In      -1.59057696      -2.24941551       3.89610195        3       0.00000000       0.00000000       0.00000000
In      -1.33734999       4.31977251       3.58596351        4       0.01032493      -0.00730083      -0.01264540
In       5.02495786      -3.01600624       5.84415292        5       0.01032493       0.01460165       0.00000000
In      -1.33734999       1.48282478       5.84415292        6       0.01032493       0.01460165      -0.00000000
In      -1.84380394       7.51483726       1.94805097        7      -0.01032493      -0.01460165      -0.00000000
In       4.51850390       0.17905852       4.20624039        8      -0.01032493       0.00730083       0.01264540
In      -1.59057696       4.49883102      -0.00000000        9      -0.00000000      -0.00000000      -0.00000000
In       4.51850390       6.92730505       0.31013844       10      -0.01032493       0.00730083       0.01264540
In      -1.33734998      -2.42847402       7.48206546       11       0.01032493      -0.00730083      -0.01264540
In       4.51850390       3.01600624       1.94805097       12      -0.01032493      -0.01460165       0.00000000
In       1.84380394       5.44448026       2.25818941       13       0.01032493      -0.00730083       0.01264540
In       4.77173088       0.00000000      -0.00000000       14      -0.00000000       0.00000000       0.00000000
In       1.59057696       2.24941551       3.89610195       15       0.00000000      -0.00000000      -0.00000000
O        1.00895389       4.51708560       4.20118467       16       0.02761489      -0.00098058      -0.00144211
O       -2.17220003       3.62920537       5.67580263       17       0.02761489      -0.00075862       0.00157027
O       -0.46636239       2.42299600      -0.02718536       18       0.00756523       0.01341863      -0.02298545
O       -1.00895389      -0.85137108       2.08478341       19      -0.02761489      -0.00173920       0.00012815
O        4.14571431       5.33450663       2.11196876       20      -0.00992019      -0.01153146       0.02311360
O        2.21659353       3.08765022       1.77970068       21       0.00992019      -0.02578270       0.00157027
O        2.21659353       6.74568743       0.33226808       22       0.00992019       0.01425124       0.02154334
O       -2.43987666       6.38027187       3.86891659       23      -0.01012946      -0.01160545      -0.02298545
O        3.64751631       2.07583503       7.81938926       24      -0.00756523      -0.01341863       0.02298545
O        5.62103058      -1.88144085       3.92328731       25       0.01012946       0.01160545       0.02298545
O        6.82867023       3.43737030       1.78413318       26      -0.00756523      -0.01319667      -0.02311360
O        3.92243118       2.40985963       4.22837003       27      -0.01012946      -0.01410326       0.02154334
O        0.74127726       4.70636156       7.48712118       28      -0.01012946       0.02570871       0.00144211
O        2.43987666      -0.20753054       0.30508272       29       0.01012946      -0.02570871      -0.00144211
O       -3.64751631       1.06146072       6.00807071       30       0.00756523       0.01319667       0.02311360
O        5.35335395       0.86962566       2.11640126       31      -0.02761489       0.00075862      -0.00157027
O        0.96456039       1.41118080       6.01250321       32      -0.00992019       0.02578270      -0.00157027
O        3.64751631      -1.01437430       5.98088536       33      -0.00756523       0.02661530       0.00012815
O        2.17220003      -0.01825458       3.59101923       34      -0.02761489       0.00098058       0.00144211
O        0.96456039      -2.24685640       7.45993582       35      -0.00992019      -0.01425124      -0.02154334
O       -0.74127726       2.08897139       3.56383387       36       0.01012946       0.01410326      -0.02154334
O       -0.96456039      -0.83567560       5.68023513       37       0.00992019       0.01153146      -0.02311360
O       -0.46636239       5.51320532       1.81131854       38       0.00756523      -0.02661530      -0.00012815
O        4.19010781       5.35020210       5.70742049       39       0.02761489       0.00173920      -0.00012815
40
Lattice="9.543461765120169 7.479833894581117e-10 2.820943015641826e-14 -3.181153922411929 8.99766203989868 -1.2955643322552249e-09 -3.181153921354144 -4.498831019201348 7.792203902082867" Properties=species:S:1:pos:R:3:spacegroup_kinds:I:1:forces:R:3 spacegroup="P 1" unit_cell=conventional occupancy="_JSON {\"0\": {\"In\": 1}, \"1\": {\"In\": 1}, \"2\": {\"In\": 1}, \"3\": {\"In\": 1}, \"4\": {\"In\": 1}, \"5\": {\"In\": 1}, \"6\": {\"In\": 1}, \"7\": {\"In\": 1}, \"8\": {\"In\": 1}, \"9\": {\"In\": 1}, \"10\": {\"In\": 1}, \"11\": {\"In\": 1}, \"12\": {\"In\": 1}, \"13\": {\"In\": 1}, \"14\": {\"In\": 1}, \"15\": {\"In\": 1}, \"16\": {\"O\": 1}, \"17\": {\"O\": 1}, \"18\": {\"O\": 1}, \"19\": {\"O\": 1}, \"20\": {\"O\": 1}, \"21\": {\"O\": 1}, \"22\": {\"O\": 1}, \"23\": {\"O\": 1}, \"24\": {\"O\": 1}, \"25\": {\"O\": 1}, \"26\": {\"O\": 1}, \"27\": {\"O\": 1}, \"28\": {\"O\": 1}, \"29\": {\"O\": 1}, \"30\": {\"O\": 1}, \"31\": {\"O\": 1}, \"32\": {\"O\": 1}, \"33\": {\"O\": 1}, \"34\": {\"O\": 1}, \"35\": {\"O\": 1}, \"36\": {\"O\": 1}, \"37\": {\"O\": 1}, \"38\": {\"O\": 1}, \"39\": {\"O\": 1}}" n_minim_iter=4 energy=-45144.22117085742 stress="0.10210640142902842 5.121830361762434e-13 -1.4339846180174218e-13 5.121830361762434e-13 0.10210640142906634 2.283087322159735e-13 -1.4339846180174218e-13 2.283087322159735e-13 0.10210640142924597" free_energy=-45144.22117085742 pbc="T T T"
In      -4.51329740       3.19138319       6.16066801        0      -0.01049558       0.00742150      -0.01285441
In       7.69445131       1.30744783       1.63153588        1       0.01049558      -0.00742150       0.01285441
In       1.33214347      -0.94196768       5.52763783        2       0.01049558      -0.00742150       0.01285441
In      -1.59057696      -2.24941551       3.89610195        3      -0.00000000       0.00000000      -0.00000000
In      -1.33214347       4.31609095       3.57958686        4      -0.01049558       0.00742150       0.01285441
In       5.03016437      -3.00864312       5.84415292        5      -0.01049558      -0.01484299      -0.00000000
In      -1.33214347       1.49018790       5.84415292        6      -0.01049558      -0.01484299      -0.00000000
In      -1.84901045       7.50747414       1.94805097        7       0.01049558       0.01484299      -0.00000000
In       4.51329739       0.18274008       4.21261704        8       0.01049558      -0.00742150      -0.01285441
In      -1.59057696       4.49883102      -0.00000000        9      -0.00000000      -0.00000000       0.00000000
In       4.51329739       6.93098660       0.31651509       10       0.01049558      -0.00742150      -0.01285441
In      -1.33214347      -2.43215558       7.47568881       11      -0.01049558       0.00742150       0.01285441
In       4.51329739       3.00864312       1.94805097       12       0.01049558       0.01484299       0.00000000
In       1.84901045       5.44079870       2.26456606       13      -0.01049558       0.00742150      -0.01285441
In       4.77173088       0.00000000      -0.00000000       14       0.00000000       0.00000000       0.00000000
In       1.59057696       2.24941551       3.89610195       15      -0.00000000      -0.00000000      -0.00000000
O        1.01866686       4.51448601       4.20067871       16       0.01435357       0.02305736      -0.00291506
O       -2.16248706       3.63006699       5.67830692       17       0.01435357      -0.01405319      -0.01851073
O       -0.46476330       2.42959500      -0.03461851       18       0.01327373      -0.01328963      -0.01983326
O       -1.01866686      -0.85310904       2.08678174       19      -0.01435357       0.00900417      -0.02142579
O        4.14328899       5.33195306       2.12140024       20      -0.01803400      -0.02045490      -0.00159253
O        2.21901885       3.07820554       1.78220497       21       0.01803400      -0.00884828      -0.01851073
O        2.21901885       6.75257855       0.33919527       22       0.01803400      -0.01160663       0.01691820
O       -2.44556524       6.37656457       3.86148344       23       0.01695417      -0.00808472      -0.01983326
O        3.64591722       2.06923602       7.82682241       24      -0.01327373       0.01328963       0.01983326
O        5.62671915      -1.87773355       3.93072046       25      -0.01695417       0.00808472       0.01983326
O        6.82707114       3.43423251       1.77470170       26      -0.01327373      -0.02382092       0.00159253
O        3.91674261       2.40527598       4.23529722       27       0.01695417      -0.01313374       0.01691820
O        0.73558869       4.71465251       7.48762714       28       0.01695417       0.02121846       0.00291506
O        2.44556523      -0.21582148       0.30457676       29      -0.01695417      -0.02121846      -0.00291506
O       -3.64591723       1.06459852       6.01750219       30       0.01327373       0.02382092      -0.00159253
O        5.34364098       0.86876404       2.11389697       31      -0.01435357       0.01405319       0.01851073
O        0.96213507       1.42062549       6.00999892       32      -0.01803400       0.00884828       0.01851073
O        3.64591722      -1.00463750       5.98288369       33      -0.01327373       0.01053129      -0.02142579
O        2.16248706      -0.01565499       3.59152519       34      -0.01435357      -0.02305736       0.00291506
O        0.96213507      -2.25374752       7.45300863       35      -0.01803400       0.01160663      -0.01691820
O       -0.73558869       2.09355504       3.55690668       36      -0.01695417       0.01313374      -0.01691820
O       -0.96213507      -0.83312204       5.67080365       37       0.01803400       0.02045490       0.00159253
O       -0.46476330       5.50346852       1.80932021       38       0.01327373      -0.01053129       0.02142579
O        4.19982078       5.35194007       5.70542216       39       0.01435357      -0.00900417       0.02142579
40
Lattice="9.543461765120169 7.479833894581117e-10 2.8209430156418252e-14 -3.181153922411929 8.99766203989868 -1.2955643322552249e-09 -3.181153921354144 -4.498831019201348 7.792203902082867" Properties=species:S:1:pos:R:3:spacegroup_kinds:I:1:forces:R:3 spacegroup="P 1" unit_cell=conventional occupancy="_JSON {\"0\": {\"In\": 1}, \"1\": {\"In\": 1}, \"2\": {\"In\": 1}, \"3\": {\"In\": 1}, \"4\": {\"In\": 1}, \"5\": {\"In\": 1}, \"6\": {\"In\": 1}, \"7\": {\"In\": 1}, \"8\": {\"In\": 1}, \"9\": {\"In\": 1}, \"10\": {\"In\": 1}, \"11\": {\"In\": 1}, \"12\": {\"In\": 1}, \"13\": {\"In\": 1}, \"14\": {\"In\": 1}, \"15\": {\"In\": 1}, \"16\": {\"O\": 1}, \"17\": {\"O\": 1}, \"18\": {\"O\": 1}, \"19\": {\"O\": 1}, \"20\": {\"O\": 1}, \"21\": {\"O\": 1}, \"22\": {\"O\": 1}, \"23\": {\"O\": 1}, \"24\": {\"O\": 1}, \"25\": {\"O\": 1}, \"26\": {\"O\": 1}, \"27\": {\"O\": 1}, \"28\": {\"O\": 1}, \"29\": {\"O\": 1}, \"30\": {\"O\": 1}, \"31\": {\"O\": 1}, \"32\": {\"O\": 1}, \"33\": {\"O\": 1}, \"34\": {\"O\": 1}, \"35\": {\"O\": 1}, \"36\": {\"O\": 1}, \"37\": {\"O\": 1}, \"38\": {\"O\": 1}, \"39\": {\"O\": 1}}" n_minim_iter=5 energy=-45144.22157775047 stress="0.10195482948784965 9.776190913963505e-15 -4.694098987051284e-14 9.776190913963505e-15 0.10195482948732208 9.144394682813981e-14 -4.694098987051284e-14 9.144394682813981e-14 0.10195482948689286" free_energy=-45144.22157775047 pbc="T T T"
In      -4.51281356       3.19104107       6.16126059        0      -0.01352053       0.00956046      -0.01655920
In       7.69396748       1.30778995       1.63094331        1       0.01352053      -0.00956046       0.01655920
In       1.33165963      -0.94162556       5.52704526        2       0.01352053      -0.00956046       0.01655920
In      -1.59057696      -2.24941551       3.89610195        3       0.00000000      -0.00000000      -0.00000000
In      -1.33165964       4.31574883       3.57899428        4      -0.01352053       0.00956046       0.01655920
In       5.03064821      -3.00795887       5.84415292        5      -0.01352053      -0.01912092      -0.00000000
In      -1.33165964       1.49087215       5.84415292        6      -0.01352053      -0.01912092      -0.00000000
In      -1.84949429       7.50678989       1.94805097        7       0.01352053       0.01912092       0.00000000
In       4.51281356       0.18308220       4.21320961        8       0.01352053      -0.00956046      -0.01655920
In      -1.59057696       4.49883102      -0.00000000        9      -0.00000000      -0.00000000      -0.00000000
In       4.51281356       6.93132873       0.31710766       10       0.01352053      -0.00956046      -0.01655920
In      -1.33165964      -2.43249770       7.47509623       11      -0.01352053       0.00956046       0.01655920
In       4.51281356       3.00795888       1.94805097       12       0.01352053       0.01912092       0.00000000
In       1.84949428       5.44045658       2.26515864       13      -0.01352053       0.00956046      -0.01655920
In       4.77173088       0.00000000      -0.00000000       14       0.00000000       0.00000000       0.00000000
In       1.59057696       2.24941551       3.89610195       15      -0.00000000      -0.00000000      -0.00000000
O        1.01921985       4.51543180       4.20018576       16       0.01440699       0.01362911       0.00145186
O       -2.16193407       3.62916719       5.67773432       17       0.01440699      -0.00555721      -0.01252909
O       -0.46453561       2.42892523      -0.03558953       18       0.01241259      -0.00414696      -0.01497172
O       -1.01921986      -0.85306305       2.08571618       19      -0.01440699       0.00807190      -0.01107723
O        4.14225632       5.33134645       2.12130571       20      -0.01004172      -0.01671583       0.00389449
O        2.22005152       3.07798410       1.78163236       21       0.01004172      -0.01173064      -0.01252909
O        2.22005152       6.75219337       0.33967334       22       0.01004172      -0.00498519       0.01642357
O       -2.44485787       6.37657316       3.86051242       23       0.00804732      -0.01032038      -0.01497172
O        3.64568953       2.06990580       7.82779342       24      -0.01241259       0.00414696       0.01497172
O        5.62601179      -1.87774214       3.93169147       25      -0.00804732       0.01032038       0.01497172
O        6.82684345       3.43305669       1.77479624       26      -0.01241259      -0.01503937      -0.00389449
O        3.91744998       2.40443076       4.23577529       27       0.00804732      -0.00780569       0.01642357
O        0.73629605       4.71548914       7.48812008       28       0.00804732       0.01812608      -0.00145186
O        2.44485786      -0.21665812       0.30408381       29      -0.00804732      -0.01812608       0.00145186
O       -3.64568953       1.06577433       6.01740766       30       0.01241259       0.01503937       0.00389449
O        5.34308799       0.86966384       2.11446958       31      -0.01440699       0.00555721       0.01252909
O        0.96110240       1.42084692       6.01057153       32      -0.01004172       0.01173064       0.01252909
O        3.64568953      -1.00413146       5.98181813       33      -0.01241259       0.01089241      -0.01107723
O        2.16193407      -0.01660078       3.59201813       34      -0.01440699      -0.01362911      -0.00145186
O        0.96110240      -2.25336235       7.45253056       35      -0.01004172       0.00498519      -0.01642357
O       -0.73629606       2.09440026       3.55642861       36      -0.00804732       0.00780569      -0.01642357
O       -0.96110240      -0.83251543       5.67089819       37       0.01004172       0.01671583      -0.00389449
O       -0.46453561       5.50296249       1.81038576       38       0.01241259      -0.01089241       0.01107723
O        4.20037377       5.35189408       5.70648771       39       0.01440699      -0.00807190       0.01107723
40