40
Lattice="9.344581477840316 7.323960067955809e-10 2.7552037021687767e-14 -3.1148604933039508 8.810155906864 -1.2685626068139977e-09 -3.1148604922682055 -4.4050779526996005 7.629818827491443" Properties=species:S:1:pos:R:3:spacegroup_kinds:I:1:forces:R:3 spacegroup="P 1" unit_cell=conventional occupancy="_JSON {\"0\": {\"In\": 1}, \"1\": {\"In\": 1}, \"2\": {\"In\": 1}, \"3\": {\"In\": 1}, \"4\": {\"In\": 1}, \"5\": {\"In\": 1}, \"6\": {\"In\": 1}, \"7\": {\"In\": 1}, \"8\": {\"In\": 1}, \"9\": {\"In\": 1}, \"10\": {\"In\": 1}, \"11\": {\"In\": 1}, \"12\": {\"In\": 1}, \"13\": {\"In\": 1}, \"14\": {\"In\": 1}, \"15\": {\"In\": 1}, \"16\": {\"O\": 1}, \"17\": {\"O\": 1}, \"18\": {\"O\": 1}, \"19\": {\"O\": 1}, \"20\": {\"O\": 1}, \"21\": {\"O\": 1}, \"22\": {\"O\": 1}, \"23\": {\"O\": 1}, \"24\": {\"O\": 1}, \"25\": {\"O\": 1}, \"26\": {\"O\": 1}, \"27\": {\"O\": 1}, \"28\": {\"O\": 1}, \"29\": {\"O\": 1}, \"30\": {\"O\": 1}, \"31\": {\"O\": 1}, \"32\": {\"O\": 1}, \"33\": {\"O\": 1}, \"34\": {\"O\": 1}, \"35\": {\"O\": 1}, \"36\": {\"O\": 1}, \"37\": {\"O\": 1}, \"38\": {\"O\": 1}, \"39\": {\"O\": 1}}" n_minim_iter=3 energy=-45148.09163486238 stress="0.08432422255777339 2.9412051709378985e-13 4.1324919387137217e-13 2.9412051709378985e-13 0.08432422255819122 2.4391268969265174e-13 4.1324919387137217e-13 2.4391268969265174e-13 0.08432422255792071" free_energy=-45148.09163486238 pbc="T T T"
In      -4.44866600       3.14568190       5.99624737        0      -0.00029657       0.00020971      -0.00036322
In       7.56352649       1.25939606       1.63357145        1       0.00029657      -0.00020971       0.00036322
In       1.33380551      -0.94314292       5.44848087        2       0.00029657      -0.00020971       0.00036322
In      -1.55743025      -2.20253897       3.81490941        3      -0.00000000      -0.00000000       0.00000000
In      -1.33380551       4.24695139       3.54102616        4      -0.00029657       0.00020971       0.00036322
In       4.89591547      -2.98755533       5.72236412        5      -0.00029657      -0.00041941      -0.00000000
In      -1.33380551       1.41752263       5.72236412        6      -0.00029657      -0.00041941      -0.00000000
In      -1.78105498       7.39263329       1.90745470        7       0.00029657       0.00041941       0.00000000
In       4.44866600       0.15812657       4.08879266        8       0.00029657      -0.00020971      -0.00036322
In      -1.55743025       4.40507795      -0.00000000        9       0.00000000       0.00000000      -0.00000000
In       4.44866600       6.76574350       0.27388325       10       0.00029657      -0.00020971      -0.00036322
In      -1.33380551      -2.36066554       7.35593558       11      -0.00029657       0.00020971       0.00036322
In       4.44866600       2.98755533       1.90745470       12       0.00029657       0.00041941       0.00000000
In       1.78105498       5.34822088       2.18133795       13      -0.00029657       0.00020971      -0.00036322
In       4.67229074       0.00000000      -0.00000000       14      -0.00000000       0.00000000       0.00000000
In       1.55743024       2.20253898       3.81490941       15      -0.00000000       0.00000000      -0.00000000
O        0.94897619       4.41428234       4.12824095       16       0.00853764      -0.00285429       0.00165917
O       -2.16588431       3.57055935       5.55772711       17       0.00853764       0.00286403       0.00164230
O       -0.46178832       2.36558152       0.01499111       18       0.00285506       0.00688222      -0.00531740
O       -0.94897619      -0.82531422       2.05614924       19      -0.00853764       0.00000974       0.00330147
O        4.08831707       5.23904730       2.04115812       20      -0.00014565      -0.00307974       0.00861888
O        2.14140392       3.05436784       1.74281770       21       0.00014565      -0.00900404       0.00164230
O        2.14140391       6.58975742       0.29834042       22       0.00014565       0.00592430       0.00697657
O       -2.38422108       6.25446796       3.82990053       23      -0.00553693      -0.00498585      -0.00531740
O        3.57664881       2.03949644       7.61482771       24      -0.00285506      -0.00688222       0.00531740
O        5.49908157      -1.84939000       3.79991830       25       0.00553693       0.00498585       0.00531740
O        6.69150930       3.39831242       1.77375128       26      -0.00285506      -0.00116390      -0.00861888
O        3.84549991       2.39209615       4.11324983       27      -0.00553693      -0.00211208       0.00697657
O        0.73063941       4.56866976       7.31648728       28      -0.00553693       0.00709793      -0.00165917
O        2.38422108      -0.16359180       0.31333154       29       0.00553693      -0.00709793       0.00165917
O       -3.57664881       1.00676554       5.85606754       30       0.00285506       0.00116390       0.00861888
O        5.28074480       0.83451861       2.07209171       31      -0.00853764      -0.00286403      -0.00164230
O        0.97345657       1.35071012       5.88700112       32      -0.00014565       0.00900404      -0.00164230
O        3.57664881      -1.03273090       5.87105865       33      -0.00285506       0.00804612       0.00330147
O        2.16588430      -0.00920438       3.50157787       34      -0.00853764       0.00285429      -0.00165917
O        0.97345657      -2.18467946       7.33147840       35      -0.00014565      -0.00592430      -0.00697657
O       -0.73063942       2.01298181       3.51656899       36       0.00553693       0.00211208      -0.00697657
O       -0.97345658      -0.83396934       5.58866070       37       0.00014565       0.00307974      -0.00861888
O       -0.46178832       5.43780886       1.75876017       38       0.00285506      -0.00804612      -0.00330147
O        4.06383668       5.23039218       5.57366958       39       0.00853764      -0.00000974      -0.00330147
