1
Lattice="3.574489353949788 0.29105381769697464 -2.9783112279689325e-10 0.5377455540584152 3.545774412647647 -7.365578082722512e-10 -2.0561174538544513 -1.9184141147326652 2.2257032072237144" Properties=species:S:1:pos:R:3:spacegroup_kinds:I:1:forces:R:3 spacegroup="P 1" unit_cell=conventional occupancy="_JSON {\"0\": {\"In\": 1}}" n_minim_iter=2 energy=-1969.2209585818105 stress="0.08006512248721065 0.0036794002852185976 -6.560132127161731e-13 0.0036794002852185976 0.07955459729423348 -1.6650781004589791e-13 -6.560132127161731e-13 -1.6650781004589791e-13 0.07612161566498835" free_energy=-1969.2209585818105 pbc="T T T"
In       0.00000000       0.00000000       0.00000000        0      -0.00000000      -0.00000000      -0.00000000
