1
Lattice="3.628641530409289 0.35110024380186794 -3.133327916226664e-10 0.6013958570971238 3.5956409387583754 -7.506863277676314e-10 -2.115018693604025 -1.9733705908418508 2.2187417998304353" Properties=species:S:1:pos:R:3:spacegroup_kinds:I:1:forces:R:3 spacegroup="P 1" unit_cell=conventional occupancy="_JSON {\"0\": {\"In\": 1}}" n_minim_iter=2 energy=-1969.1749243016775 stress="0.06564510768256628 0.0005402747497031995 2.262748086477328e-13 0.0005402747497031995 0.06557014332758893 -5.3456503931386e-13 2.262748086477328e-13 -5.3456503931386e-13 0.06506605214006943" free_energy=-1969.1749243016775 pbc="T T T"
In       0.00000000       0.00000000       0.00000000        0       0.00000000       0.00000000       0.00000000
