1
Lattice="3.3730860745690117 0.012246510161010509 -2.292167625394741e-10 0.24566771277910243 3.364150266911452 -6.810420064251248e-10 -1.8093768935199384 -1.6881983880834577 2.2921607934721906" Properties=species:S:1:pos:R:3:spacegroup_kinds:I:1:forces:R:3 spacegroup="P 1" unit_cell=conventional occupancy="_JSON {\"0\": {\"In\": 1}}" n_minim_iter=1 energy=-1969.3853880149522 stress="0.17596833340145673 -0.016522074865837275 4.138930372095993e-12 -0.016522074865837275 0.1782608090252055 4.493900031155483e-12 4.138930372095993e-12 4.493900031155483e-12 0.19367635913197034" free_energy=-1969.3853880149522 pbc="T T T"
In       0.00000000       0.00000000       0.00000000        0      -0.00000000       0.00000000      -0.00000000
1
Lattice="3.381589173921322 0.03301197528451034 -2.3389030819012364e-10 0.2669718826648039 3.3711958035036296 -6.838661517346679e-10 -1.8242805281395746 -1.7021038889431501 2.2827785783096597" Properties=species:S:1:pos:R:3:spacegroup_kinds:I:1:forces:R:3 spacegroup="P 1" unit_cell=conventional occupancy="_JSON {\"0\": {\"In\": 1}}" n_minim_iter=2 energy=-1969.3902120889134 stress="0.17892286972480154 -0.004221576290796687 1.0794311805258923e-12 -0.004221576290796687 0.17950862307699217 1.0072127247359012e-12 1.0794311805258923e-12 1.0072127247359012e-12 0.183447469823619" free_energy=-1969.3902120889134 pbc="T T T"
In       0.00000000       0.00000000       0.00000000        0       0.00000000       0.00000000       0.00000000
