1
Lattice="3.0667399965700524 -0.10625159959270158 -1.8521143261068847e-10 0.10625159959270158 3.0667399965700524 -6.129210239973467e-10 -1.5864957979354846 -1.4802441980600693 2.1698137722443005" Properties=species:S:1:pos:R:3:spacegroup_kinds:I:1:forces:R:3 spacegroup="P 1" unit_cell=conventional occupancy="_JSON {\"0\": {\"In\": 1}}" n_minim_iter=1 energy=-1968.0671796124007 stress="-0.4808259236763325 -3.705351483348397e-13 -5.431187547219326e-13 -3.705351483348397e-13 -0.480825923676281 -5.067995273854774e-13 -5.431187547219326e-13 -5.067995273854774e-13 -0.48082592368457544" free_energy=-1968.0671796124007 pbc="T T T"
In       0.00000000       0.00000000       0.00000000        0       0.00000000       0.00000000       0.00000000
