1
Lattice="3.156989549652877 -0.10937842462133185 -1.9066192695896693e-10 0.10937842462133252 3.1569895496528764 -6.309583693714877e-10 -1.6331839869869185 -1.523805562074553 2.233668133369477" Properties=species:S:1:pos:R:3:spacegroup_kinds:I:1:forces:R:3 spacegroup="P 1" unit_cell=conventional occupancy="_JSON {\"0\": {\"In\": 1}}" n_minim_iter=1 energy=-1968.9459552892326 stress="-0.4334662894111427 1.4261869184326598e-12 1.9804019330122308e-13 1.4261869184326598e-12 -0.4334662894113409 1.0877913544528125e-12 1.9804019330122308e-13 1.0877913544528125e-12 -0.43346628941355825" free_energy=-1968.9459552892326 pbc="T T T"
In       0.00000000       0.00000000       0.00000000        0       0.00000000       0.00000000       0.00000000
