1
Lattice="3.4082169566705685 0.03327192280054171 -2.3573203998938263e-10 0.26907411002777837 3.3977417453209116 -6.892511462982853e-10 -1.8386455331944764 -1.715506833606256 2.3007539528810703" Properties=species:S:1:pos:R:3:spacegroup_kinds:I:1:forces:R:3 spacegroup="P 1" unit_cell=conventional occupancy="_JSON {\"0\": {\"In\": 1}}" n_minim_iter=2 energy=-1969.3902120889134 stress="0.17892286972480154 -0.004221576290796687 1.0794311805258923e-12 -0.004221576290796687 0.17950862307699217 1.0072127247359012e-12 1.0794311805258923e-12 1.0072127247359012e-12 0.183447469823619" free_energy=-1969.3902120889134 pbc="T T T"
In       0.00000000       0.00000000       0.00000000        0       0.00000000       0.00000000       0.00000000
