1
Lattice="3.4082169566705685 0.033271922800541316 -2.3573137766304987e-10 0.2690741100277782 3.3977417453209116 -6.892521541519081e-10 -1.838645533194476 -1.715506833606256 2.300753952881071" Properties=species:S:1:pos:R:3:spacegroup_kinds:I:1:forces:R:3 spacegroup="P 1" unit_cell=conventional occupancy="_JSON {\"0\": {\"In\": 1}}" n_minim_iter=1 energy=-1969.263582289266 stress="0.2147368732098248 -0.014244994054599365 3.1147125831148785e-12 -0.014244994054599365 0.21671339867015937 4.670312237214873e-12 3.1147125831148785e-12 4.670312237214873e-12 0.23000436977207891" free_energy=-1969.263582289266 pbc="T T T"
In       0.00000000       0.00000000       0.00000000        0      -0.00000000      -0.00000000       0.00000000
1
Lattice="3.4668872094360395 0.16983613414693177 -2.6665194548868914e-10 0.4093714135365719 3.446819734362716 -7.083797914376044e-10 -1.9381293113356315 -1.8083279338121707 2.2409275070268264" Properties=species:S:1:pos:R:3:spacegroup_kinds:I:1:forces:R:3 spacegroup="P 1" unit_cell=conventional occupancy="_JSON {\"0\": {\"In\": 1}}" n_minim_iter=2 energy=-1969.2907021916062 stress="0.13704911074710108 -0.00011073538411784672 4.605905335628932e-13 -0.00011073538411784672 0.13706447553471 4.2977103993737713e-13 4.605905335628932e-13 4.2977103993737713e-13 0.13716779470090007" free_energy=-1969.2907021916062 pbc="T T T"
In       0.00000000       0.00000000       0.00000000        0       0.00000000       0.00000000       0.00000000
