1
Lattice="3.7262634137507593 0.44808452355258327 -3.39051264096138e-10 0.704903970676476 3.686316475972913 -7.755547641081468e-10 -2.2155836920647274 -2.067200499325331 2.2144276389059874" Properties=species:S:1:pos:R:3:spacegroup_kinds:I:1:forces:R:3 spacegroup="P 1" unit_cell=conventional occupancy="_JSON {\"0\": {\"In\": 1}}" n_minim_iter=1 energy=-1969.0530217721537 stress="0.07150329960305911 -0.010320786551844324 3.582001164421354e-12 -0.010320786551844324 0.0729353323089707 2.4823634186475707e-12 3.582001164421354e-12 2.4823634186475707e-12 0.08256490991962209" free_energy=-1969.0530217721537 pbc="T T T"
In       0.00000000       0.00000000       0.00000000        0       0.00000000      -0.00000000      -0.00000000
1
Lattice="3.752295439835973 0.49883654809263644 -3.5082661277459555e-10 0.7573359693243322 3.7087735437870033 -7.835160964586693e-10 -2.2548157044325645 -2.103805045506226 2.1950784585234437" Properties=species:S:1:pos:R:3:spacegroup_kinds:I:1:forces:R:3 spacegroup="P 1" unit_cell=conventional occupancy="_JSON {\"0\": {\"In\": 1}}" n_minim_iter=2 energy=-1969.0582907616426 stress="0.05725699014600499 -9.73933881798635e-05 -2.272778180172599e-13 -9.73933881798635e-05 0.05727050370174744 -2.1208954899919045e-13 -2.272778180172599e-13 -2.1208954899919045e-13 0.05736137441031505" free_energy=-1969.0582907616426 pbc="T T T"
In       0.00000000       0.00000000       0.00000000        0       0.00000000      -0.00000000      -0.00000000
