1
Lattice="3.2624123996286345 0.01184469228422236 -2.216954640968319e-10 0.23760715695977525 3.2537697830282135 -6.58696658351364e-10 -1.7500097781451425 -1.6328072372183007 2.216953148911791" Properties=species:S:1:pos:R:3:spacegroup_kinds:I:1:forces:R:3 spacegroup="P 1" unit_cell=conventional occupancy="_JSON {\"0\": {\"In\": 1}}" n_minim_iter=1 energy=-1969.4732734848046 stress="-0.11909061241621943 0.009549678740384862 -1.2823177697319042e-12 0.009549678740384862 -0.12041565215201258 -3.620527617708862e-12 -1.2823177697319042e-12 -3.620527617708862e-12 -0.12932576497620196" free_energy=-1969.4732734848046 pbc="T T T"
In       0.00000000       0.00000000       0.00000000        0       0.00000000      -0.00000000       0.00000000
