1
Lattice="3.7002047750863336 0.4449509628259617 -3.3668056967528666e-10 0.6999744110009075 3.6605371956634163 -7.701326426029594e-10 -2.2000895928957696 -2.0527440788103313 2.198941624289355" Properties=species:S:1:pos:R:3:spacegroup_kinds:I:1:forces:R:3 spacegroup="P 1" unit_cell=conventional occupancy="_JSON {\"0\": {\"In\": 1}}" n_minim_iter=2 energy=-1969.0962146803124 stress="0.06305402973738711 5.207326758226357e-05 7.247905412396184e-13 5.207326758226357e-05 0.06304680445257978 -8.31933777480212e-14 7.247905412396184e-13 -8.31933777480212e-14 0.06299821866114115" free_energy=-1969.0962146803124 pbc="T T T"
In       0.00000000       0.00000000       0.00000000        0      -0.00000000      -0.00000000       0.00000000
