1
Lattice="3.4935566206383917 0.17114261729015443 -2.6870319491001136e-10 0.41252054816442474 3.4733347743057243 -7.138290809021899e-10 -1.9530385842495748 -1.822238695351881 2.258166088367718" Properties=species:S:1:pos:R:3:spacegroup_kinds:I:1:forces:R:3 spacegroup="P 1" unit_cell=conventional occupancy="_JSON {\"0\": {\"In\": 1}}" n_minim_iter=2 energy=-1969.2907021916062 stress="0.13704911074710108 -0.00011073538411784672 4.605905335628932e-13 -0.00011073538411784672 0.13706447553471 4.2977103993737713e-13 4.605905335628932e-13 4.2977103993737713e-13 0.13716779470090007" free_energy=-1969.2907021916062 pbc="T T T"
In       0.00000000       0.00000000       0.00000000        0       0.00000000       0.00000000       0.00000000
