1
Lattice="3.2146763556673545 -0.11063053845079318 -1.9429330278453667e-10 0.11212180474804082 3.2146246886105847 -6.425275673009491e-10 -1.6633990800548033 -1.551997074630723 2.273937503216649" Properties=species:S:1:pos:R:3:spacegroup_kinds:I:1:forces:R:3 spacegroup="P 1" unit_cell=conventional occupancy="_JSON {\"0\": {\"In\": 1}}" n_minim_iter=2 energy=-1969.3821806734575 stress="-0.24747425827284297 0.00016933656891936544 9.801156440664591e-14 0.00016933656891936544 -0.24749775410852937 -1.3633544313118465e-12 9.801156440664591e-14 -1.3633544313118465e-12 -0.24765574979009192" free_energy=-1969.3821806734575 pbc="T T T"
In       0.00000000       0.00000000       0.00000000        0       0.00000000       0.00000000      -0.00000000
