1
Lattice="3.830022161967182 0.6004452935673212 -3.761216982571922e-10 0.8640805198835583 3.7792815675581366 -8.04618304626281e-10 -2.347051340779213 -2.189863430133336 2.173810588077553" Properties=species:S:1:pos:R:3:spacegroup_kinds:I:1:forces:R:3 spacegroup="P 1" unit_cell=conventional occupancy="_JSON {\"0\": {\"In\": 1}}" n_minim_iter=2 energy=-1969.032183570845 stress="0.02362670316328048 -0.0017459681050392673 4.310116207351028e-13 -0.0017459681050392673 0.023868960226074692 4.679359654628897e-13 4.310116207351028e-13 4.679359654628897e-13 0.025497996467512645" free_energy=-1969.032183570845 pbc="T T T"
In       0.00000000       0.00000000       0.00000000        0       0.00000000      -0.00000000      -0.00000000
