1
Lattice="3.855901475115965 0.6045024794330449 -3.786631381757149e-10 0.8699190788824818 3.8048180284526674 -8.100550797127132e-10 -2.3629102768520784 -2.2046602535105615 2.1884989430154533" Properties=species:S:1:pos:R:3:spacegroup_kinds:I:1:forces:R:3 spacegroup="P 1" unit_cell=conventional occupancy="_JSON {\"0\": {\"In\": 1}}" n_minim_iter=2 energy=-1969.032183570845 stress="0.02362670316328048 -0.0017459681050392673 4.310116207351028e-13 -0.0017459681050392673 0.023868960226074692 4.679359654628897e-13 4.310116207351028e-13 4.679359654628897e-13 0.025497996467512645" free_energy=-1969.032183570845 pbc="T T T"
In       0.00000000       0.00000000       0.00000000        0       0.00000000      -0.00000000      -0.00000000
