1
Lattice="3.930610863158895 0.7401022348691725 -4.104695875701642e-10 1.0103643042565318 3.8699634427634146 -8.323650131807015e-10 -2.470487583563808 -2.3050328383935192 2.140319553016707" Properties=species:S:1:pos:R:3:spacegroup_kinds:I:1:forces:R:3 spacegroup="P 1" unit_cell=conventional occupancy="_JSON {\"0\": {\"In\": 1}}" n_minim_iter=2 energy=-1969.0425529414845 stress="-0.02588982430410004 -0.0031803110190158313 2.353019551203473e-12 -0.0031803110190158313 -0.025448548888320533 -2.4698182428234263e-13 2.353019551203473e-12 -2.4698182428234263e-13 -0.022481231259787425" free_energy=-1969.0425529414845 pbc="T T T"
In       0.00000000       0.00000000       0.00000000        0       0.00000000      -0.00000000       0.00000000
