40
Lattice="9.206704530270622 7.215972516778603e-10 1.5750613806526813e-14 -3.0689015107705355 8.680164274073155 -1.2498513570838521e-09 -3.0689015097500563 -4.340082136314977 7.517242771202687" Properties=species:S:1:pos:R:3:spacegroup_kinds:I:1:forces:R:3 spacegroup="P 1" unit_cell=conventional occupancy="_JSON {\"0\": {\"In\": 1}, \"1\": {\"In\": 1}, \"2\": {\"In\": 1}, \"3\": {\"In\": 1}, \"4\": {\"In\": 1}, \"5\": {\"In\": 1}, \"6\": {\"In\": 1}, \"7\": {\"In\": 1}, \"8\": {\"In\": 1}, \"9\": {\"In\": 1}, \"10\": {\"In\": 1}, \"11\": {\"In\": 1}, \"12\": {\"In\": 1}, \"13\": {\"In\": 1}, \"14\": {\"In\": 1}, \"15\": {\"In\": 1}, \"16\": {\"O\": 1}, \"17\": {\"O\": 1}, \"18\": {\"O\": 1}, \"19\": {\"O\": 1}, \"20\": {\"O\": 1}, \"21\": {\"O\": 1}, \"22\": {\"O\": 1}, \"23\": {\"O\": 1}, \"24\": {\"O\": 1}, \"25\": {\"O\": 1}, \"26\": {\"O\": 1}, \"27\": {\"O\": 1}, \"28\": {\"O\": 1}, \"29\": {\"O\": 1}, \"30\": {\"O\": 1}, \"31\": {\"O\": 1}, \"32\": {\"O\": 1}, \"33\": {\"O\": 1}, \"34\": {\"O\": 1}, \"35\": {\"O\": 1}, \"36\": {\"O\": 1}, \"37\": {\"O\": 1}, \"38\": {\"O\": 1}, \"39\": {\"O\": 1}}" n_minim_iter=1 energy=-45150.82646367143 stress="0.016121046575239 -2.8781895711554256e-13 -1.8892044486713264e-12 -2.8781895711554256e-13 0.01612104657626329 -1.4263877940788417e-12 -1.8892044486713264e-12 -1.4263877940788417e-12 0.016121046575763312" free_energy=-45150.82646367143 pbc="T T T"
In      -4.43634677       3.13697089       5.84247120        0       0.02173840      -0.01537137       0.02662399
In       7.50524828       1.20311126       1.67477156        1      -0.02173840       0.01537137      -0.02662399
In       1.36744526      -0.96692981       5.43339295        2      -0.02173840       0.01537137      -0.02662399
In      -1.53445076      -2.17004107       3.75862138        3       0.00000000       0.00000000      -0.00000000
In      -1.36744526       4.22199142       3.55408226        4       0.02173840      -0.01537137      -0.02662399
In       4.77035776      -3.01888016       5.63793208        5       0.02173840       0.03074274       0.00000000
In      -1.36744526       1.32120197       5.63793208        6       0.02173840       0.03074274       0.00000000
In      -1.70145625       7.35896230       1.87931069        7      -0.02173840      -0.03074274      -0.00000000
In       4.43634677       0.11809072       3.96316051        8      -0.02173840       0.01537137       0.02662399
In      -1.53445076       4.34008214      -0.00000000        9       0.00000000      -0.00000000      -0.00000000
In       4.43634677       6.62821393       0.20453912       10      -0.02173840       0.01537137       0.02662399
In      -1.36744526      -2.28813179       7.31270364       11       0.02173840      -0.01537137      -0.02662399
In       4.43634677       3.01888017       1.87931069       12      -0.02173840      -0.03074274       0.00000000
In       1.70145625       5.30701195       2.08384981       13       0.02173840      -0.01537137       0.02662399
In       4.60335226       0.00000000      -0.00000000       14      -0.00000000      -0.00000000      -0.00000000
In       1.53445075       2.17004107       3.75862138       15       0.00000000      -0.00000000       0.00000000
O        0.83208261       4.33642474       4.09152041       16      -0.04654555       0.00013486      -0.00611909
O       -2.23681890       3.54518932       5.47464996       17      -0.04654555      -0.00536672       0.00294275
O       -0.47551949       2.29976256       0.11454960       18      -0.02044783      -0.02382060       0.03490580
O       -0.83208261      -0.79855021       2.04892760       19       0.04654555      -0.00523186      -0.00317634
O        4.08804284       5.20476760       1.93437800       20       0.01045539       0.02538474      -0.03808215
O        2.04976017       3.09720438       1.71602857       21      -0.01045539       0.04567247       0.00294275
O        2.04976017       6.44764536       0.21834942       22      -0.01045539      -0.02028774      -0.04102490
O       -2.32674344       6.19185976       3.87317099       23       0.01564233       0.02721860       0.03490580
O        3.54442100       2.04031958       7.40269316       24       0.02044783       0.02382060      -0.03490580
O        5.39564494      -1.85177762       3.64407178       25      -0.01564233      -0.02721860      -0.03490580
O        6.61332251       3.41912522       1.82424338       26       0.02044783       0.01831901       0.03808215
O        3.81105958       2.42837566       3.97697081       27       0.01564233       0.01662001      -0.04102490
O        0.74215807       4.40001099       7.18434373       28       0.01564233      -0.04383861       0.00611909
O        2.32674343      -0.05992885       0.33289903       29      -0.01564233       0.04383861      -0.00611909
O       -3.54442100       0.92095692       5.69299938       30      -0.02044783      -0.01831901      -0.03808215
O        5.30572041       0.79489282       2.04259281       31       0.04654555       0.00536672      -0.00294275
O        1.01914133       1.24287776       5.80121420       32       0.01045539      -0.04567247      -0.00294275
O        3.54442100      -1.11936265       5.80754899       33       0.02044783      -0.04213961      -0.00317634
O        2.23681890       0.00365740       3.42572235       34       0.04654555      -0.00013486       0.00611909
O        1.01914133      -2.10756321       7.29889334       35       0.01045539       0.02028774       0.04102490
O       -0.74215808       1.91170648       3.54027196       36      -0.01564233      -0.01662001       0.04102490
O       -1.01914134      -0.86468546       5.58286477       37      -0.01045539      -0.02538474       0.03808215
O       -0.47551949       5.45944479       1.70969378       38      -0.02044783       0.04213961       0.00317634
O        3.90098412       5.13863235       5.46831516       39      -0.04654555       0.00523186       0.00317634
40
Lattice="9.206704530270624 7.215972516778605e-10 1.5750613806526816e-14 -3.0689015107705364 8.680164274073157 -1.2498513570838523e-09 -3.068901509750057 -4.340082136314978 7.517242771202689" Properties=species:S:1:pos:R:3:spacegroup_kinds:I:1:forces:R:3 spacegroup="P 1" unit_cell=conventional occupancy="_JSON {\"0\": {\"In\": 1}, \"1\": {\"In\": 1}, \"2\": {\"In\": 1}, \"3\": {\"In\": 1}, \"4\": {\"In\": 1}, \"5\": {\"In\": 1}, \"6\": {\"In\": 1}, \"7\": {\"In\": 1}, \"8\": {\"In\": 1}, \"9\": {\"In\": 1}, \"10\": {\"In\": 1}, \"11\": {\"In\": 1}, \"12\": {\"In\": 1}, \"13\": {\"In\": 1}, \"14\": {\"In\": 1}, \"15\": {\"In\": 1}, \"16\": {\"O\": 1}, \"17\": {\"O\": 1}, \"18\": {\"O\": 1}, \"19\": {\"O\": 1}, \"20\": {\"O\": 1}, \"21\": {\"O\": 1}, \"22\": {\"O\": 1}, \"23\": {\"O\": 1}, \"24\": {\"O\": 1}, \"25\": {\"O\": 1}, \"26\": {\"O\": 1}, \"27\": {\"O\": 1}, \"28\": {\"O\": 1}, \"29\": {\"O\": 1}, \"30\": {\"O\": 1}, \"31\": {\"O\": 1}, \"32\": {\"O\": 1}, \"33\": {\"O\": 1}, \"34\": {\"O\": 1}, \"35\": {\"O\": 1}, \"36\": {\"O\": 1}, \"37\": {\"O\": 1}, \"38\": {\"O\": 1}, \"39\": {\"O\": 1}}" n_minim_iter=2 energy=-45150.82991686627 stress="0.015783092438965675 -6.539136693478917e-13 -2.4755528793851057e-12 -6.539136693478917e-13 0.015783092439338207 2.195881344056399e-12 -2.4755528793851057e-12 2.195881344056399e-12 0.015783092439919644" free_energy=-45150.82991686627 pbc="T T T"
In      -4.43479403       3.13587293       5.84437291        0       0.00275859      -0.00195061       0.00337856
In       7.50369553       1.20420921       1.67286985        1      -0.00275859       0.00195061      -0.00337856
In       1.36589251      -0.96583186       5.43149124        2      -0.00275859       0.00195061      -0.00337856
In      -1.53445076      -2.17004107       3.75862138        3       0.00000000       0.00000000      -0.00000000
In      -1.36589252       4.22089347       3.55218054        4       0.00275859      -0.00195061      -0.00337856
In       4.77191050      -3.01668425       5.63793208        5       0.00275858       0.00390123       0.00000000
In      -1.36589252       1.32339788       5.63793208        6       0.00275859       0.00390123       0.00000000
In      -1.70300900       7.35676639       1.87931069        7      -0.00275858      -0.00390123       0.00000000
In       4.43479402       0.11918868       3.96506222        8      -0.00275859       0.00195061       0.00337856
In      -1.53445076       4.34008214      -0.00000000        9      -0.00000000       0.00000000      -0.00000000
In       4.43479402       6.62931188       0.20644084       10      -0.00275859       0.00195061       0.00337856
In      -1.36589252      -2.28922974       7.31080193       11       0.00275859      -0.00195061      -0.00337856
In       4.43479402       3.01668426       1.87931069       12      -0.00275859      -0.00390123      -0.00000000
In       1.70300899       5.30591400       2.08575153       13       0.00275859      -0.00195061       0.00337856
In       4.60335226       0.00000000      -0.00000000       14       0.00000000       0.00000000      -0.00000000
In       1.53445075       2.17004107       3.75862138       15       0.00000000       0.00000000       0.00000000
O        0.82875793       4.33643438       4.09108334       16      -0.02257387       0.00949262       0.00449041
O       -2.24014358       3.54480598       5.47486015       17      -0.02257387      -0.00085750      -0.01046606
O       -0.47698005       2.29806109       0.11704287       18       0.00061665      -0.01725567       0.01793641
O       -0.82875793      -0.79892391       2.04870072       19       0.02257387       0.00863512      -0.00597565
O        4.08878966       5.20658079       1.93165784       20       0.00671616       0.00172047      -0.02391205
O        2.04901336       3.10046670       1.71623877       21      -0.00671616       0.02156868      -0.01046606
O        2.04901336       6.44619623       0.21541907       22      -0.00671616      -0.01984821      -0.01344600
O       -2.32562613       6.19380395       3.87566426       23       0.01647435       0.00517051       0.01793641
O        3.54588156       2.04202105       7.40019989       24      -0.00061665       0.01725567      -0.01793641
O        5.39452763      -1.85372181       3.64157851       25      -0.01647435      -0.00517051      -0.01793641
O        6.61478307       3.42043372       1.82696354       26      -0.00061665       0.00690555       0.02391205
O        3.81217689       2.42956281       3.97404046       27       0.01647435       0.01294813      -0.01344600
O        0.74327538       4.39687966       7.18478081       28       0.01647435      -0.01811864      -0.00449041
O        2.32562612      -0.05679752       0.33246195       29      -0.01647435       0.01811864       0.00449041
O       -3.54588156       0.91964842       5.69027923       30       0.00061665      -0.00690555      -0.02391205
O        5.30904509       0.79527616       2.04238261       31       0.02257387       0.00085750       0.01046606
O        1.01988815       1.23961544       5.80100400       32       0.00671616      -0.02156868       0.01046606
O        3.54588156      -1.12237263       5.80732211       33      -0.00061665      -0.02416122      -0.00597565
O        2.24014358       0.00364776       3.42615943       34       0.02257387      -0.00949262      -0.00449041
O        1.01988815      -2.10611409       7.30182369       35       0.00671616       0.01984821       0.01344600
O       -0.74327539       1.91051933       3.54320231       36      -0.01647435      -0.01294813       0.01344600
O       -1.01988815      -0.86649865       5.58558492       37      -0.00671616      -0.00172047       0.02391205
O       -0.47698005       5.46245477       1.70992066       38       0.00061665       0.02416122       0.00597565
O        3.89765944       5.13900606       5.46854204       39      -0.02257387      -0.00863512       0.00597565
40
Lattice="9.206704530270624 7.215972516778605e-10 1.5750613806526816e-14 -3.0689015107705364 8.680164274073157 -1.2498513570838523e-09 -3.068901509750057 -4.340082136314978 7.517242771202689" Properties=species:S:1:pos:R:3:spacegroup_kinds:I:1:forces:R:3 spacegroup="P 1" unit_cell=conventional occupancy="_JSON {\"0\": {\"In\": 1}, \"1\": {\"In\": 1}, \"2\": {\"In\": 1}, \"3\": {\"In\": 1}, \"4\": {\"In\": 1}, \"5\": {\"In\": 1}, \"6\": {\"In\": 1}, \"7\": {\"In\": 1}, \"8\": {\"In\": 1}, \"9\": {\"In\": 1}, \"10\": {\"In\": 1}, \"11\": {\"In\": 1}, \"12\": {\"In\": 1}, \"13\": {\"In\": 1}, \"14\": {\"In\": 1}, \"15\": {\"In\": 1}, \"16\": {\"O\": 1}, \"17\": {\"O\": 1}, \"18\": {\"O\": 1}, \"19\": {\"O\": 1}, \"20\": {\"O\": 1}, \"21\": {\"O\": 1}, \"22\": {\"O\": 1}, \"23\": {\"O\": 1}, \"24\": {\"O\": 1}, \"25\": {\"O\": 1}, \"26\": {\"O\": 1}, \"27\": {\"O\": 1}, \"28\": {\"O\": 1}, \"29\": {\"O\": 1}, \"30\": {\"O\": 1}, \"31\": {\"O\": 1}, \"32\": {\"O\": 1}, \"33\": {\"O\": 1}, \"34\": {\"O\": 1}, \"35\": {\"O\": 1}, \"36\": {\"O\": 1}, \"37\": {\"O\": 1}, \"38\": {\"O\": 1}, \"39\": {\"O\": 1}}" n_minim_iter=3 energy=-45150.83067526293 stress="0.015543716466133211 8.596178659304427e-13 -1.9316757908325525e-12 8.596178659304427e-13 0.015543716465681263 9.912646301289235e-13 -1.9316757908325525e-12 9.912646301289235e-13 0.015543716465971812" free_energy=-45150.83067526293 pbc="T T T"
In      -4.43390308       3.13524293       5.84546410        0      -0.00829210       0.00586340      -0.01015571
In       7.50280458       1.20483921       1.67177866        1       0.00829210      -0.00586340       0.01015571
In       1.36500156      -0.96520186       5.43040005        2       0.00829210      -0.00586340       0.01015571
In      -1.53445076      -2.17004107       3.75862138        3      -0.00000000       0.00000000       0.00000000
In      -1.36500157       4.22026347       3.55108935        4      -0.00829210       0.00586340       0.01015571
In       4.77280146      -3.01542425       5.63793208        5      -0.00829210      -0.01172680      -0.00000000
In      -1.36500156       1.32465788       5.63793208        6      -0.00829210      -0.01172680       0.00000000
In      -1.70389995       7.35550640       1.87931069        7       0.00829210       0.01172680       0.00000000
In       4.43390307       0.11981868       3.96615341        8       0.00829210      -0.00586340      -0.01015571
In      -1.53445076       4.34008214      -0.00000000        9       0.00000000       0.00000000      -0.00000000
In       4.43390307       6.62994188       0.20753203       10       0.00829210      -0.00586340      -0.01015571
In      -1.36500156      -2.28985974       7.30971074       11      -0.00829210       0.00586340       0.01015571
In       4.43390307       3.01542426       1.87931069       12       0.00829210       0.01172680       0.00000000
In       1.70389994       5.30528400       2.08684272       13      -0.00829210       0.00586340      -0.01015571
In       4.60335226       0.00000000      -0.00000000       14       0.00000000       0.00000000       0.00000000
In       1.53445075       2.17004107       3.75862138       15      -0.00000000       0.00000000      -0.00000000
O        0.82646459       4.33665916       4.09095442       16      -0.00691525       0.01162419       0.00963873
O       -2.24243692       3.54458194       5.47472995       17      -0.00691525       0.00253530      -0.01488621
O       -0.47774380       2.29675547       0.11878603       18       0.01104461      -0.01016424       0.00711003
O       -0.82646459      -0.79892317       2.04844160       19       0.00691525       0.01415948      -0.00524747
O        4.08934288       5.20758646       1.92965556       20       0.00469538      -0.01005451      -0.01235750
O        2.04846014       3.10270356       1.71610856       21      -0.00469538       0.00567466      -0.01488621
O        2.04846014       6.44496504       0.21354700       22      -0.00469538      -0.01572916       0.00252871
O       -2.32464975       6.19495922       3.87740742       23       0.01326447      -0.00702487       0.00711003
O        3.54664531       2.04332667       7.39845673       24      -0.01104461       0.01016424      -0.00711003
O        5.39355126      -1.85487708       3.63983535       25      -0.01326447       0.00702488      -0.00711003
O        6.61554682       3.42129053       1.82896582       26      -0.01104461       0.00107535       0.01235750
O        3.81315327       2.43049479       3.97216838       27       0.01326447       0.00966990       0.00252871
O        0.74425176       4.39479241       7.18490973       28       0.01326447      -0.00264503      -0.00963873
O        2.32464975      -0.05471027       0.33233303       29      -0.01326447       0.00264503       0.00963873
O       -3.54664531       0.91879161       5.68827695       30       0.01104461      -0.00107535      -0.01235750
O        5.31133843       0.79550020       2.04251282       31       0.00691525      -0.00253530       0.01488621
O        1.02044137       1.23737858       5.80113420       32       0.00469538      -0.00567466       0.01488621
O        3.54664531      -1.12453506       5.80706298       33      -0.01104461      -0.01123958      -0.00524747
O        2.24243692       0.00342298       3.42628835       34       0.00691525      -0.01162419      -0.00963873
O        1.02044137      -2.10488290       7.30369577       35       0.00469538       0.01572916      -0.00252871
O       -0.74425176       1.90958736       3.54507438       36      -0.01326447      -0.00966990      -0.00252871
O       -1.02044137      -0.86750432       5.58758720       37      -0.00469538       0.01005451       0.01235750
O       -0.47774380       5.46461720       1.71017978       38       0.01104461       0.01123958       0.00524747
O        3.89536610       5.13900532       5.46880117       39      -0.00691525      -0.01415948       0.00524747
40
Lattice="9.206704530270624 7.215972516778605e-10 1.5750613806526816e-14 -3.0689015107705364 8.680164274073157 -1.2498513570838523e-09 -3.068901509750057 -4.340082136314978 7.517242771202689" Properties=species:S:1:pos:R:3:spacegroup_kinds:I:1:forces:R:3 spacegroup="P 1" unit_cell=conventional occupancy="_JSON {\"0\": {\"In\": 1}, \"1\": {\"In\": 1}, \"2\": {\"In\": 1}, \"3\": {\"In\": 1}, \"4\": {\"In\": 1}, \"5\": {\"In\": 1}, \"6\": {\"In\": 1}, \"7\": {\"In\": 1}, \"8\": {\"In\": 1}, \"9\": {\"In\": 1}, \"10\": {\"In\": 1}, \"11\": {\"In\": 1}, \"12\": {\"In\": 1}, \"13\": {\"In\": 1}, \"14\": {\"In\": 1}, \"15\": {\"In\": 1}, \"16\": {\"O\": 1}, \"17\": {\"O\": 1}, \"18\": {\"O\": 1}, \"19\": {\"O\": 1}, \"20\": {\"O\": 1}, \"21\": {\"O\": 1}, \"22\": {\"O\": 1}, \"23\": {\"O\": 1}, \"24\": {\"O\": 1}, \"25\": {\"O\": 1}, \"26\": {\"O\": 1}, \"27\": {\"O\": 1}, \"28\": {\"O\": 1}, \"29\": {\"O\": 1}, \"30\": {\"O\": 1}, \"31\": {\"O\": 1}, \"32\": {\"O\": 1}, \"33\": {\"O\": 1}, \"34\": {\"O\": 1}, \"35\": {\"O\": 1}, \"36\": {\"O\": 1}, \"37\": {\"O\": 1}, \"38\": {\"O\": 1}, \"39\": {\"O\": 1}}" n_minim_iter=4 energy=-45150.830985740104 stress="0.015437026122392406 -1.2714439239605414e-13 2.1840355553322553e-12 -1.2714439239605414e-13 0.015437026122630424 -1.1568993347351735e-13 2.1840355553322553e-12 -1.1568993347351735e-13 0.015437026122606938" free_energy=-45150.830985740104 pbc="T T T"
In      -4.43386856       3.13521853       5.84550637        0      -0.01016333       0.00718656      -0.01244749
In       7.50277007       1.20486361       1.67173639        1       0.01016333      -0.00718656       0.01244749
In       1.36496705      -0.96517745       5.43035778        2       0.01016333      -0.00718656       0.01244749
In      -1.53445076      -2.17004107       3.75862138        3       0.00000000       0.00000000       0.00000000
In      -1.36496705       4.22023906       3.55104708        4      -0.01016333       0.00718656       0.01244749
In       4.77283597      -3.01537545       5.63793208        5      -0.01016333      -0.01437312       0.00000000
In      -1.36496705       1.32470669       5.63793208        6      -0.01016333      -0.01437312      -0.00000000
In      -1.70393446       7.35545759       1.87931069        7       0.01016333       0.01437312       0.00000000
In       4.43386856       0.11984308       3.96619568        8       0.01016333      -0.00718656      -0.01244749
In      -1.53445076       4.34008214      -0.00000000        9       0.00000000      -0.00000000       0.00000000
In       4.43386856       6.62996629       0.20757430       10       0.01016333      -0.00718656      -0.01244749
In      -1.36496705      -2.28988414       7.30966847       11      -0.01016333       0.00718656       0.01244749
In       4.43386856       3.01537545       1.87931069       12       0.01016333       0.01437312      -0.00000000
In       1.70393446       5.30525960       2.08688499       13      -0.01016333       0.00718656      -0.01244749
In       4.60335226       0.00000000      -0.00000000       14      -0.00000000       0.00000000      -0.00000000
In       1.53445075       2.17004107       3.75862138       15      -0.00000000       0.00000000      -0.00000000
O        0.82470731       4.33747057       4.09144617       16       0.00148777       0.00000579       0.00633029
O       -2.24419420       3.54460211       5.47378137       17       0.00148777       0.00547930      -0.00317017
O       -0.47754554       2.29539286       0.12023248       18       0.00566732       0.00252391       0.00194871
O       -0.82470731      -0.79809160       2.04798477       19      -0.00148777       0.00548509       0.00316013
O        4.08994765       5.20759000       1.92775228       20       0.00467001      -0.00436000       0.00121142
O        2.04785537       3.10435362       1.71515998       21      -0.00467001      -0.00322912      -0.00317017
O        2.04785537       6.44331852       0.21259230       22      -0.00467001      -0.00113089       0.00438158
O       -2.32329899       6.19522651       3.87885387       23      -0.00049046      -0.00618450       0.00194871
O        3.54644705       2.04468928       7.39701028       24      -0.00566732      -0.00252391      -0.00194871
O        5.39220049      -1.85514437       3.63838890       25       0.00049046       0.00618450      -0.00194871
O        6.61534856       3.42186189       1.83086910       26      -0.00566732       0.00294959      -0.00121142
O        3.81450403       2.43161381       3.97121368       27      -0.00049046       0.00477989       0.00438158
O        0.74560252       4.39340610       7.18441798       28      -0.00049046       0.00140462      -0.00633029
O        2.32329898      -0.05332396       0.33282478       29       0.00049046      -0.00140462       0.00633029
O       -3.54644705       0.91822025       5.68637367       30       0.00566732      -0.00294959       0.00121142
O        5.31309571       0.79548003       2.04346140       31      -0.00148777      -0.00547930       0.00317017
O        1.02104614       1.23572852       5.80208278       32       0.00467001       0.00322912       0.00317017
O        3.54644705      -1.12646903       5.80660615       33      -0.00566732      -0.00042568       0.00316013
O        2.24419420       0.00261157       3.42579660       34      -0.00148777      -0.00000580      -0.00633029
O        1.02104614      -2.10323637       7.30465047       35       0.00467001       0.00113089      -0.00438158
O       -0.74560253       1.90846833       3.54602908       36       0.00049046      -0.00477989      -0.00438158
O       -1.02104614      -0.86750786       5.58949049       37      -0.00467001       0.00436000      -0.00121142
O       -0.47754554       5.46655117       1.71063661       38       0.00566732       0.00042568      -0.00316013
O        3.89360882       5.13817374       5.46925800       39       0.00148777      -0.00548509      -0.00316013
40
Lattice="9.206704530270624 7.215972516778605e-10 1.5750613806526816e-14 -3.0689015107705364 8.680164274073157 -1.2498513570838523e-09 -3.068901509750057 -4.340082136314978 7.517242771202689" Properties=species:S:1:pos:R:3:spacegroup_kinds:I:1:forces:R:3 spacegroup="P 1" unit_cell=conventional occupancy="_JSON {\"0\": {\"In\": 1}, \"1\": {\"In\": 1}, \"2\": {\"In\": 1}, \"3\": {\"In\": 1}, \"4\": {\"In\": 1}, \"5\": {\"In\": 1}, \"6\": {\"In\": 1}, \"7\": {\"In\": 1}, \"8\": {\"In\": 1}, \"9\": {\"In\": 1}, \"10\": {\"In\": 1}, \"11\": {\"In\": 1}, \"12\": {\"In\": 1}, \"13\": {\"In\": 1}, \"14\": {\"In\": 1}, \"15\": {\"In\": 1}, \"16\": {\"O\": 1}, \"17\": {\"O\": 1}, \"18\": {\"O\": 1}, \"19\": {\"O\": 1}, \"20\": {\"O\": 1}, \"21\": {\"O\": 1}, \"22\": {\"O\": 1}, \"23\": {\"O\": 1}, \"24\": {\"O\": 1}, \"25\": {\"O\": 1}, \"26\": {\"O\": 1}, \"27\": {\"O\": 1}, \"28\": {\"O\": 1}, \"29\": {\"O\": 1}, \"30\": {\"O\": 1}, \"31\": {\"O\": 1}, \"32\": {\"O\": 1}, \"33\": {\"O\": 1}, \"34\": {\"O\": 1}, \"35\": {\"O\": 1}, \"36\": {\"O\": 1}, \"37\": {\"O\": 1}, \"38\": {\"O\": 1}, \"39\": {\"O\": 1}}" n_minim_iter=5 energy=-45150.831155339176 stress="0.015557783291102923 1.281960762222653e-12 1.6537863538636527e-12 1.281960762222653e-12 0.015557783289768597 -2.629381528871626e-12 1.6537863538636527e-12 -2.629381528871626e-12 0.015557783292914507" free_energy=-45150.831155339176 pbc="T T T"
In      -4.43456708       3.13571246       5.84465087        0      -0.00358103       0.00253217      -0.00438584
In       7.50346859       1.20436969       1.67259190        1       0.00358103      -0.00253217       0.00438584
In       1.36566557      -0.96567138       5.43121329        2       0.00358103      -0.00253217       0.00438584
In      -1.53445076      -2.17004107       3.75862138        3      -0.00000000       0.00000000      -0.00000000
In      -1.36566557       4.22073299       3.55190259        4      -0.00358103       0.00253217       0.00438584
In       4.77213745      -3.01636330       5.63793208        5      -0.00358103      -0.00506434       0.00000000
In      -1.36566557       1.32371883       5.63793208        6      -0.00358103      -0.00506434      -0.00000000
In      -1.70323594       7.35644544       1.87931069        7       0.00358103       0.00506434      -0.00000000
In       4.43456708       0.11934915       3.96534017        8       0.00358103      -0.00253217      -0.00438584
In      -1.53445076       4.34008214      -0.00000000        9       0.00000000       0.00000000      -0.00000000
In       4.43456708       6.62947236       0.20671879       10       0.00358103      -0.00253217      -0.00438584
In      -1.36566557      -2.28939022       7.31052398       11      -0.00358103       0.00253217       0.00438584
In       4.43456708       3.01636331       1.87931069       12       0.00358103       0.00506434       0.00000000
In       1.70323594       5.30575352       2.08602948       13      -0.00358103       0.00253217      -0.00438584
In       4.60335226       0.00000000      -0.00000000       14       0.00000000       0.00000000      -0.00000000
In       1.53445075       2.17004107       3.75862138       15       0.00000000       0.00000000      -0.00000000
O        0.82505782       4.33775575       4.09191471       16      -0.00394466      -0.00825948      -0.00006759
O       -2.24384369       3.54486529       5.47330013       17      -0.00394466       0.00407121       0.00718671
O       -0.47691171       2.29545570       0.12009823       18      -0.00526363       0.00500386       0.00557132
O       -0.82505783      -0.79754324       2.04797207       19       0.00394466      -0.00418827       0.00711912
O        4.09007893       5.20696413       1.92787383       20       0.00515326       0.00740487       0.00154781
O        2.04772408       3.10393542       1.71467874       21      -0.00515326       0.00236200       0.00718671
O        2.04772408       6.44311085       0.21319508       22      -0.00515326       0.00504288      -0.00563890
O       -2.32314696       6.19460798       3.87871962       23      -0.00647222       0.00329464       0.00557132
O        3.54581322       2.04462644       7.39714453       24       0.00526363      -0.00500386      -0.00557132
O        5.39204847      -1.85452584       3.63852315       25       0.00647222      -0.00329464      -0.00557132
O        6.61471473       3.42177705       1.83074755       26       0.00526363       0.00732683      -0.00154781
O        3.81465606       2.43180681       3.97181647       27      -0.00647222       0.00317758      -0.00563890
O        0.74575455       4.39383163       7.18394944       28      -0.00647222      -0.00647222       0.00006759
O        2.32314696      -0.05374949       0.33329332       29       0.00647222       0.00647222      -0.00006759
O       -3.54581322       0.91830509       5.68649522       30      -0.00526363      -0.00732683       0.00154781
O        5.31274519       0.79521685       2.04394264       31       0.00394466      -0.00407121      -0.00718671
O        1.02117743       1.23614672       5.80256402       32       0.00515326      -0.00236200      -0.00718671
O        3.54581322      -1.12632134       5.80659345       33       0.00526363      -0.00232298       0.00711912
O        2.24384368       0.00232640       3.42532806       34       0.00394466       0.00825948       0.00006759
O        1.02117743      -2.10302871       7.30404768       35       0.00515326      -0.00504288       0.00563890
O       -0.74575455       1.90827533       3.54542630       36       0.00647222      -0.00317758       0.00563890
O       -1.02117743      -0.86688199       5.58936894       37      -0.00515326      -0.00740487      -0.00154781
O       -0.47691171       5.46640348       1.71064931       38      -0.00526363       0.00232298      -0.00711912
O        3.89395933       5.13762539       5.46927070       39      -0.00394466       0.00418827      -0.00711912
