40
Lattice="8.103271652520188 6.351136360525046e-10 2.8705507544145504e-14 -2.701090551438854 7.639837780179956 -1.100058994588222e-09 -2.70109055054069 -3.819918889454864 6.616293599161312" Properties=species:S:1:pos:R:3:spacegroup_kinds:I:1:forces:R:3 spacegroup="P 1" unit_cell=conventional occupancy="_JSON {\"0\": {\"In\": 1}, \"1\": {\"In\": 1}, \"2\": {\"In\": 1}, \"3\": {\"In\": 1}, \"4\": {\"In\": 1}, \"5\": {\"In\": 1}, \"6\": {\"In\": 1}, \"7\": {\"In\": 1}, \"8\": {\"In\": 1}, \"9\": {\"In\": 1}, \"10\": {\"In\": 1}, \"11\": {\"In\": 1}, \"12\": {\"In\": 1}, \"13\": {\"In\": 1}, \"14\": {\"In\": 1}, \"15\": {\"In\": 1}, \"16\": {\"O\": 1}, \"17\": {\"O\": 1}, \"18\": {\"O\": 1}, \"19\": {\"O\": 1}, \"20\": {\"O\": 1}, \"21\": {\"O\": 1}, \"22\": {\"O\": 1}, \"23\": {\"O\": 1}, \"24\": {\"O\": 1}, \"25\": {\"O\": 1}, \"26\": {\"O\": 1}, \"27\": {\"O\": 1}, \"28\": {\"O\": 1}, \"29\": {\"O\": 1}, \"30\": {\"O\": 1}, \"31\": {\"O\": 1}, \"32\": {\"O\": 1}, \"33\": {\"O\": 1}, \"34\": {\"O\": 1}, \"35\": {\"O\": 1}, \"36\": {\"O\": 1}, \"37\": {\"O\": 1}, \"38\": {\"O\": 1}, \"39\": {\"O\": 1}}" n_minim_iter=1 energy=-45143.49517909635 stress="-0.05819324620469916 2.7103294705293448e-12 2.0910534137424996e-12 2.7103294705293448e-12 -0.058193246202757426 1.0438708566492487e-12 2.0910534137424996e-12 1.0438708566492487e-12 -0.0581932462015085" free_energy=-45143.49517909635 pbc="T T T"
In      -3.90305891       2.75987942       5.14418901        0      -0.70240111       0.49667259      -0.86026216
In       6.60414946       1.06003947       1.47210458        1       0.70240112      -0.49667259       0.86026216
In       1.20196836      -0.84991998       4.78025138        2       0.70240112      -0.49667259       0.86026216
In      -1.35054528      -1.90995944       3.30814680        3      -0.00000000      -0.00000000       0.00000000
In      -1.20196836       3.71485915       3.12617798        4      -0.70240112       0.49667259       0.86026216
In       4.20021274      -2.65481968       4.96222020        5      -0.70240112      -0.99334518      -0.00000000
In      -1.20196836       1.16509921       4.96222020        6      -0.70240111      -0.99334518       0.00000000
In      -1.49912219       6.47473857       1.65407340        7       0.70240111       0.99334518      -0.00000000
In       3.90305891       0.10505975       3.49011561        8       0.70240112      -0.49667259      -0.86026216
In      -1.35054528       3.81991889      -0.00000000        9      -0.00000000      -0.00000000       0.00000000
In       3.90305891       5.83493808       0.18196881       10       0.70240111      -0.49667259      -0.86026216
In      -1.20196836      -2.01501919       6.43432478       11      -0.70240112       0.49667259       0.86026216
In       3.90305891       2.65481968       1.65407340       12       0.70240112       0.99334518      -0.00000000
In       1.49912219       4.66983887       1.83604221       13      -0.70240112       0.49667259      -0.86026216
In       4.05163582       0.00000000      -0.00000000       14      -0.00000000       0.00000000      -0.00000000
In       1.35054527       1.90995945       3.30814680       15       0.00000000       0.00000000       0.00000000
O        0.78061360       3.80746638       3.58508466       16       0.07530928       0.29333914      -0.20379727
O       -1.92047695       3.11100064       4.83453546       17       0.07530928      -0.32316319      -0.15214051
O       -0.41991034       2.04993982       0.05605312       18      -0.00301529      -0.26777935      -0.24806812
O       -0.78061361      -0.72137075       1.80332652       19      -0.07530928      -0.02982405      -0.35593779
O        3.57323851       4.57365193       1.74727340       20      -0.32978427      -0.11339815      -0.10786966
O        1.82894258       2.68360226       1.52638866       21       0.32978427       0.03671879      -0.15214051
O        1.82894258       5.70996856       0.22088474       22       0.32978427      -0.15011694       0.04427085
O       -2.07267191       5.44246033       3.36419991       23       0.25145970       0.09210262      -0.24806812
O        3.12100089       1.76997907       6.56024048       24       0.00301529       0.26777935       0.24806812
O        4.77376246      -1.62254143       3.25209368       25      -0.25145970      -0.09210262       0.24806812
O        5.82209144       2.98347278       1.56087340       26       0.00301529      -0.34872297       0.10786966
O        3.32950919       2.10221188       3.52903154       27       0.25145970      -0.26088461       0.04427085
O        0.62841864       3.91508447       6.33935574       28       0.25145970       0.16878199       0.20379727
O        2.07267191      -0.09516558       0.27693786       29      -0.25145970      -0.16878199      -0.20379727
O       -3.12100089       0.83644611       5.05542020       30      -0.00301529       0.34872297      -0.10786966
O        4.62156749       0.70891825       1.78175814       31      -0.07530928       0.32316319       0.15214051
O        0.87214796       1.13631663       5.08990494       32      -0.32978427      -0.03671879       0.15214051
O        3.12100089      -0.93353296       5.11147332       33       0.00301529       0.08094362      -0.35593779
O        1.92047694       0.01245251       3.03120894       34      -0.07530928      -0.29333914       0.20379727
O        0.87214796      -1.89004967       6.39540886       35      -0.32978427       0.15011694      -0.04427085
O       -0.62841864       1.71770702       3.08726206       36      -0.25145970       0.26088461      -0.04427085
O       -0.87214797      -0.75373304       4.86902020       37       0.32978427       0.11339815       0.10786966
O       -0.41991034       4.75345185       1.50482028       38      -0.00301529      -0.08094362       0.35593779
O        3.48170416       4.54128965       4.81296708       39       0.07530928       0.02982405       0.35593779
40
Lattice="8.103271652520187 6.351136360525047e-10 2.87055075441455e-14 -2.7010905514388543 7.639837780179957 -1.1000589945882218e-09 -2.7010905505406906 -3.8199188894548644 6.616293599161312" Properties=species:S:1:pos:R:3:spacegroup_kinds:I:1:forces:R:3 spacegroup="P 1" unit_cell=conventional occupancy="_JSON {\"0\": {\"In\": 1}, \"1\": {\"In\": 1}, \"2\": {\"In\": 1}, \"3\": {\"In\": 1}, \"4\": {\"In\": 1}, \"5\": {\"In\": 1}, \"6\": {\"In\": 1}, \"7\": {\"In\": 1}, \"8\": {\"In\": 1}, \"9\": {\"In\": 1}, \"10\": {\"In\": 1}, \"11\": {\"In\": 1}, \"12\": {\"In\": 1}, \"13\": {\"In\": 1}, \"14\": {\"In\": 1}, \"15\": {\"In\": 1}, \"16\": {\"O\": 1}, \"17\": {\"O\": 1}, \"18\": {\"O\": 1}, \"19\": {\"O\": 1}, \"20\": {\"O\": 1}, \"21\": {\"O\": 1}, \"22\": {\"O\": 1}, \"23\": {\"O\": 1}, \"24\": {\"O\": 1}, \"25\": {\"O\": 1}, \"26\": {\"O\": 1}, \"27\": {\"O\": 1}, \"28\": {\"O\": 1}, \"29\": {\"O\": 1}, \"30\": {\"O\": 1}, \"31\": {\"O\": 1}, \"32\": {\"O\": 1}, \"33\": {\"O\": 1}, \"34\": {\"O\": 1}, \"35\": {\"O\": 1}, \"36\": {\"O\": 1}, \"37\": {\"O\": 1}, \"38\": {\"O\": 1}, \"39\": {\"O\": 1}}" n_minim_iter=2 energy=-45143.91920027509 stress="0.0096685726093478 3.71885365766635e-12 1.4747090439749959e-12 3.71885365766635e-12 0.009668572606138858 4.285342813997392e-12 1.4747090439749959e-12 4.285342813997392e-12 0.009668572607534677" free_energy=-45143.91920027509 pbc="T T T"
In      -3.93315466       2.78116033       5.10732940        0       0.16360957      -0.11568943       0.20037998
In       6.63424520       1.03875856       1.50896419        1      -0.16360957       0.11568943      -0.20037998
In       1.23206410      -0.87120088       4.81711099        2      -0.16360957       0.11568943      -0.20037998
In      -1.35054528      -1.90995944       3.30814680        3      -0.00000000      -0.00000000       0.00000000
In      -1.23206411       3.73614005       3.16303759        4       0.16360957      -0.11568943      -0.20037998
In       4.17011700      -2.69738149       4.96222020        5       0.16360957       0.23137887       0.00000000
In      -1.23206411       1.12253740       4.96222020        6       0.16360957       0.23137887      -0.00000000
In      -1.46902645       6.51730038       1.65407340        7      -0.16360957      -0.23137887       0.00000000
In       3.93315465       0.08377884       3.45325600        8      -0.16360957       0.11568944       0.20037998
In      -1.35054528       3.81991889      -0.00000000        9      -0.00000000       0.00000000       0.00000000
In       3.93315465       5.81365718       0.14510920       10      -0.16360957       0.11568944       0.20037998
In      -1.23206411      -1.99373828       6.47118439       11       0.16360957      -0.11568943      -0.20037998
In       3.93315465       2.69738149       1.65407340       12      -0.16360957      -0.23137887      -0.00000000
In       1.46902644       4.69111978       1.79918260       13       0.16360957      -0.11568943       0.20037998
In       4.05163582       0.00000000      -0.00000000       14       0.00000000      -0.00000000       0.00000000
In       1.35054527       1.90995945       3.30814680       15       0.00000000       0.00000000       0.00000000
O        0.78384038       3.82003507       3.57635256       16      -0.21534052      -0.37602336      -0.99866777
O       -1.91725017       3.09715409       4.82801670       17      -0.21534052      -0.67685998       0.82497966
O       -0.42003953       2.03846629       0.04542415       18      -1.06444811      -0.07645025      -0.21496049
O       -0.78384038      -0.72264862       1.78807567       19       0.21534052      -1.05288334      -0.17368811
O        3.55910826       4.56879317       1.74265151       20      -0.56636954       0.92877584       0.04127239
O        1.84307283       2.68517555       1.51986990       21       0.56636954       0.42864499       0.82497966
O        1.84307283       5.70353651       0.22278161       22       0.56636954       0.50013085      -0.78370728
O       -2.06189763       5.44640664       3.35357095       23      -0.28273805       1.02905472      -0.21496049
O        3.12113008       1.78145260       6.57086944       24       1.06444811       0.07645025       0.21496049
O        4.76298818      -1.62648775       3.26272264       25       0.28273805      -1.02905472       0.21496049
O        5.82222063       2.96853107       1.56549528       26       1.06444811      -0.22438638      -0.04127239
O        3.34028347       2.09103377       3.53092841       27      -0.28273804      -0.70068861      -0.78370728
O        0.63919292       3.92231627       6.34808783       28      -0.28273805      -0.32836611       0.99866777
O        2.06189762      -0.10239737       0.26820576       29       0.28273805       0.32836611      -0.99866777
O       -3.12113008       0.85138783       5.05079831       30      -1.06444811       0.22438638       0.04127239
O        4.61834072       0.72276481       1.78827689       31       0.21534052       0.67685998      -0.82497966
O        0.85801771       1.13474335       5.09642369       32      -0.56636954      -0.42864499      -0.82497966
O        3.12113008      -0.93006477       5.09622247       33       1.06444811       0.14793612      -0.17368811
O        1.91725017      -0.00011618       3.03994103       34       0.21534052       0.37602336       0.99866777
O        0.85801771      -1.88361762       6.39351199       35      -0.56636954      -0.50013085       0.78370728
O       -0.63919293       1.72888513       3.08536519       36       0.28273804       0.70068861       0.78370728
O       -0.85801772      -0.74887427       4.87364208       37       0.56636954      -0.92877584      -0.04127239
O       -0.42003953       4.74998367       1.52007113       38      -1.06444811      -0.14793612       0.17368811
O        3.48493093       4.54256752       4.82821793       39      -0.21534052       1.05288334       0.17368811
40
Lattice="8.10327165252018 6.351136360525044e-10 2.870550754414547e-14 -2.701090551438853 7.639837780179954 -1.100058994588221e-09 -2.7010905505406893 -3.819918889454863 6.61629359916131" Properties=species:S:1:pos:R:3:spacegroup_kinds:I:1:forces:R:3 spacegroup="P 1" unit_cell=conventional occupancy="_JSON {\"0\": {\"In\": 1}, \"1\": {\"In\": 1}, \"2\": {\"In\": 1}, \"3\": {\"In\": 1}, \"4\": {\"In\": 1}, \"5\": {\"In\": 1}, \"6\": {\"In\": 1}, \"7\": {\"In\": 1}, \"8\": {\"In\": 1}, \"9\": {\"In\": 1}, \"10\": {\"In\": 1}, \"11\": {\"In\": 1}, \"12\": {\"In\": 1}, \"13\": {\"In\": 1}, \"14\": {\"In\": 1}, \"15\": {\"In\": 1}, \"16\": {\"O\": 1}, \"17\": {\"O\": 1}, \"18\": {\"O\": 1}, \"19\": {\"O\": 1}, \"20\": {\"O\": 1}, \"21\": {\"O\": 1}, \"22\": {\"O\": 1}, \"23\": {\"O\": 1}, \"24\": {\"O\": 1}, \"25\": {\"O\": 1}, \"26\": {\"O\": 1}, \"27\": {\"O\": 1}, \"28\": {\"O\": 1}, \"29\": {\"O\": 1}, \"30\": {\"O\": 1}, \"31\": {\"O\": 1}, \"32\": {\"O\": 1}, \"33\": {\"O\": 1}, \"34\": {\"O\": 1}, \"35\": {\"O\": 1}, \"36\": {\"O\": 1}, \"37\": {\"O\": 1}, \"38\": {\"O\": 1}, \"39\": {\"O\": 1}}" n_minim_iter=3 energy=-45146.14324680786 stress="0.23928989777148393 -1.2315129205363094e-12 9.524703096431026e-13 -1.2315129205363094e-12 0.2392898977685617 2.46879705779006e-13 9.524703096431026e-13 2.46879705779006e-13 0.23928989776859416" free_energy=-45146.14324680786 pbc="T T T"
In      -3.99590069       2.82552848       5.03048152        0      -0.24929144       0.17627567      -0.30531842
In       6.69699124       0.99439042       1.58581208        1       0.24929144      -0.17627567       0.30531842
In       1.29481014      -0.91556903       4.89395888        2       0.24929144      -0.17627567       0.30531842
In      -1.35054528      -1.90995944       3.30814680        3       0.00000000      -0.00000000      -0.00000000
In      -1.29481014       3.78050820       3.23988548        4      -0.24929144       0.17627567       0.30531842
In       4.10737096      -2.78611778       4.96222020        5      -0.24929144      -0.35255134      -0.00000000
In      -1.29481014       1.03380111       4.96222020        6      -0.24929144      -0.35255134      -0.00000000
In      -1.40628041       6.60603668       1.65407340        7       0.24929144       0.35255134      -0.00000000
In       3.99590069       0.03941069       3.37640812        8       0.24929144      -0.17627567      -0.30531842
In      -1.35054528       3.81991889      -0.00000000        9      -0.00000000       0.00000000      -0.00000000
In       3.99590069       5.76928903       0.06826132       10       0.24929144      -0.17627567      -0.30531842
In      -1.29481014      -1.94937013       6.54803228       11      -0.24929144       0.17627567       0.30531842
In       3.99590069       2.78611779       1.65407340       12       0.24929144       0.35255134      -0.00000000
In       1.40628041       4.73548792       1.72233472       13      -0.24929144       0.17627567      -0.30531842
In       4.05163582       0.00000000      -0.00000000       14       0.00000000      -0.00000000      -0.00000000
In       1.35054527       1.90995945       3.30814680       15       0.00000000       0.00000000      -0.00000000
O        0.76855938       3.81200292       3.44174677       16      -0.10732247       0.40742830      -0.14669531
O       -1.93253117       2.98459813       4.90227564       17      -0.10732247      -0.33075602      -0.27949560
O       -0.53882476       1.99909887      -0.00708317       18       0.03651316      -0.43246317      -0.10333365
O       -0.76855938      -0.84323673       1.72772882       19       0.10732247       0.07667228      -0.42619091
O        3.45808316       4.65906616       1.73481199       20      -0.27606561      -0.13633199      -0.32285727
O        1.94409794       2.73710127       1.59412884       21       0.27606561       0.21143660      -0.27949560
O        1.94409794       5.74188378       0.14068314       22       0.27606561      -0.34776859      -0.04336167
O       -2.06437675       5.57152090       3.30106363       23       0.41990124       0.10972945      -0.10333365
O        3.23991531       1.82082002       6.62337677       24      -0.03651316       0.43246317       0.10333365
O        4.76546729      -1.75160201       3.31522997       25      -0.41990124      -0.10972945       0.10333365
O        5.94100586       2.90337468       1.57333480       26      -0.03651316      -0.30572115       0.32285727
O        3.33780436       1.98300396       3.44882994       27       0.41990124      -0.14435429      -0.04336167
O        0.63671380       3.90523182       6.48269362       28       0.41990124       0.03462484       0.14669531
O        2.06437674      -0.08531292       0.13359997       29      -0.41990124      -0.03462484      -0.14669531
O       -3.23991531       0.91654422       5.04295879       30       0.03651316       0.30572115      -0.32285727
O        4.63362172       0.83532076       1.71401795       31       0.10732247       0.33075602       0.27949560
O        0.75699261       1.08281763       5.02216475       32      -0.27606561      -0.21143660       0.27949560
O        3.23991531      -0.90427580       5.03587562       33      -0.03651316      -0.12674202      -0.42619091
O        1.93253117       0.00791598       3.17454682       34       0.10732247      -0.40742830       0.14669531
O        0.75699261      -1.92196489       6.47561045       35      -0.27606561       0.34776859       0.04336167
O       -0.63671381       1.83691494       3.16746365       36      -0.41990124       0.14435429       0.04336167
O       -0.75699261      -0.83914726       4.88148160       37       0.27606561       0.13633199       0.32285727
O       -0.53882476       4.72419469       1.58041797       38       0.03651316       0.12674202       0.42619091
O        3.46964993       4.66315563       4.88856477       39      -0.10732247      -0.07667228       0.42619091
40
Lattice="8.103271652520172 6.351136360525038e-10 2.8705507544145467e-14 -2.701090551438851 7.639837780179947 -1.1000589945882202e-09 -2.701090550540687 -3.8199188894548595 6.616293599161305" Properties=species:S:1:pos:R:3:spacegroup_kinds:I:1:forces:R:3 spacegroup="P 1" unit_cell=conventional occupancy="_JSON {\"0\": {\"In\": 1}, \"1\": {\"In\": 1}, \"2\": {\"In\": 1}, \"3\": {\"In\": 1}, \"4\": {\"In\": 1}, \"5\": {\"In\": 1}, \"6\": {\"In\": 1}, \"7\": {\"In\": 1}, \"8\": {\"In\": 1}, \"9\": {\"In\": 1}, \"10\": {\"In\": 1}, \"11\": {\"In\": 1}, \"12\": {\"In\": 1}, \"13\": {\"In\": 1}, \"14\": {\"In\": 1}, \"15\": {\"In\": 1}, \"16\": {\"O\": 1}, \"17\": {\"O\": 1}, \"18\": {\"O\": 1}, \"19\": {\"O\": 1}, \"20\": {\"O\": 1}, \"21\": {\"O\": 1}, \"22\": {\"O\": 1}, \"23\": {\"O\": 1}, \"24\": {\"O\": 1}, \"25\": {\"O\": 1}, \"26\": {\"O\": 1}, \"27\": {\"O\": 1}, \"28\": {\"O\": 1}, \"29\": {\"O\": 1}, \"30\": {\"O\": 1}, \"31\": {\"O\": 1}, \"32\": {\"O\": 1}, \"33\": {\"O\": 1}, \"34\": {\"O\": 1}, \"35\": {\"O\": 1}, \"36\": {\"O\": 1}, \"37\": {\"O\": 1}, \"38\": {\"O\": 1}, \"39\": {\"O\": 1}}" n_minim_iter=4 energy=-45146.346785145935 stress="0.2773657758889494 -9.123585645206531e-13 -1.2508247582539646e-12 -9.123585645206531e-13 0.2773657758862334 1.34904901279635e-12 -1.2508247582539646e-12 1.34904901279635e-12 0.27736577589076894" free_energy=-45146.346785145935 pbc="T T T"
In      -4.01899470       2.84185841       5.00219725        0      -0.27598311       0.19514953      -0.33800889
In       6.72008525       0.97806048       1.61409635        1       0.27598311      -0.19514953       0.33800889
In       1.31790415      -0.93189896       4.92224315        2       0.27598311      -0.19514953       0.33800889
In      -1.35054528      -1.90995944       3.30814680        3      -0.00000000      -0.00000000       0.00000000
In      -1.31790415       3.79683813       3.26816975        4      -0.27598311       0.19514953       0.33800889
In       4.08427695      -2.81877765       4.96222020        5      -0.27598311      -0.39029905       0.00000000
In      -1.31790415       1.00114124       4.96222020        6      -0.27598311      -0.39029905      -0.00000000
In      -1.38318640       6.63869654       1.65407340        7       0.27598311       0.39029905      -0.00000000
In       4.01899470       0.02308076       3.34812385        8       0.27598311      -0.19514953      -0.33800889
In      -1.35054528       3.81991889      -0.00000000        9       0.00000000      -0.00000000       0.00000000
In       4.01899470       5.75295910       0.03997705       10       0.27598311      -0.19514953      -0.33800889
In      -1.31790415      -1.93304020       6.57631655       11      -0.27598311       0.19514953       0.33800889
In       4.01899470       2.81877765       1.65407340       12       0.27598311       0.39029905      -0.00000000
In       1.38318640       4.75181785       1.69405045       13      -0.27598311       0.19514953      -0.33800889
In       4.05163582       0.00000000      -0.00000000       14       0.00000000       0.00000000       0.00000000
In       1.35054527       1.90995945       3.30814680       15      -0.00000000      -0.00000000       0.00000000
O        0.76435098       3.81525131       3.40465483       16      -0.14381816       0.54543258       0.26292504
O       -1.93673957       2.95085137       4.91800843       17      -0.14381816      -0.04501653      -0.60382099
O       -0.56898170       1.98370050      -0.02313074       18       0.42385739      -0.44642376       0.09143673
O       -0.76435099      -0.87373511       1.70636966       19       0.14381816       0.50041605      -0.34089595
O        3.42766920       4.68029946       1.72950039       20       0.00549740      -0.44762503      -0.43233268
O        1.97451190       2.75231790       1.60986163       21      -0.00549740       0.15059857      -0.60382099
O        1.97451190       5.74790046       0.11963876       22      -0.00549740      -0.59822360       0.17148831
O       -2.05991134       5.60508593       3.28501606       23       0.56217815      -0.25080866       0.09143673
O        3.27007225       1.83621839       6.63942433       24      -0.42385739       0.44642376      -0.09143673
O        4.76100188      -1.78516703       3.33127753       25      -0.56217815       0.25080866      -0.09143673
O        5.97116280       2.88177789       1.57864640       26      -0.42385739      -0.14402535       0.43233268
O        3.34226977       1.95232385       3.42778556       27       0.56217815       0.20459086       0.17148831
O        0.64117921       3.90234690       6.51978557       28       0.56217815       0.04621780      -0.26292504
O        2.05991133      -0.08242801       0.09650803       29      -0.56217815      -0.04621780       0.26292504
O       -3.27007225       0.93814100       5.03764719       30       0.42385739       0.14402535      -0.43233268
O        4.63783011       0.86906753       1.69828517       31       0.14381816       0.04501653       0.60382099
O        0.72657865       1.06760100       5.00643197       32       0.00549740      -0.15059857       0.60382099
O        3.27007225      -0.89807739       5.01451646       33      -0.42385739      -0.30239841      -0.34089595
O        1.93673956       0.00466758       3.21163877       34       0.14381816      -0.54543258      -0.26292504
O        0.72657865      -1.92798156       6.49665483       35       0.00549740       0.59822360      -0.17148831
O       -0.64117922       1.86759505       3.18850803       36      -0.56217815      -0.20459086      -0.17148831
O       -0.72657865      -0.86038057       4.88679320       37      -0.00549740       0.44762503       0.43233268
O       -0.56898170       4.71799628       1.60177714       38       0.42385739       0.30239841       0.34089595
O        3.46544153       4.69365400       4.90992394       39      -0.14381816      -0.50041605       0.34089595
40
Lattice="8.103271652520158 6.351136360525029e-10 2.8705507544145416e-14 -2.7010905514388472 7.639837780179936 -1.1000589945882187e-09 -2.7010905505406835 -3.8199188894548537 6.616293599161296" Properties=species:S:1:pos:R:3:spacegroup_kinds:I:1:forces:R:3 spacegroup="P 1" unit_cell=conventional occupancy="_JSON {\"0\": {\"In\": 1}, \"1\": {\"In\": 1}, \"2\": {\"In\": 1}, \"3\": {\"In\": 1}, \"4\": {\"In\": 1}, \"5\": {\"In\": 1}, \"6\": {\"In\": 1}, \"7\": {\"In\": 1}, \"8\": {\"In\": 1}, \"9\": {\"In\": 1}, \"10\": {\"In\": 1}, \"11\": {\"In\": 1}, \"12\": {\"In\": 1}, \"13\": {\"In\": 1}, \"14\": {\"In\": 1}, \"15\": {\"In\": 1}, \"16\": {\"O\": 1}, \"17\": {\"O\": 1}, \"18\": {\"O\": 1}, \"19\": {\"O\": 1}, \"20\": {\"O\": 1}, \"21\": {\"O\": 1}, \"22\": {\"O\": 1}, \"23\": {\"O\": 1}, \"24\": {\"O\": 1}, \"25\": {\"O\": 1}, \"26\": {\"O\": 1}, \"27\": {\"O\": 1}, \"28\": {\"O\": 1}, \"29\": {\"O\": 1}, \"30\": {\"O\": 1}, \"31\": {\"O\": 1}, \"32\": {\"O\": 1}, \"33\": {\"O\": 1}, \"34\": {\"O\": 1}, \"35\": {\"O\": 1}, \"36\": {\"O\": 1}, \"37\": {\"O\": 1}, \"38\": {\"O\": 1}, \"39\": {\"O\": 1}}" n_minim_iter=5 energy=-45146.75992904208 stress="0.3568285276364756 1.481912222834017e-12 -2.5913223847917057e-12 1.481912222834017e-12 0.35682852763959727 5.282116129522986e-13 -2.5913223847917057e-12 5.282116129522986e-13 0.35682852763924156" free_energy=-45146.75992904208 pbc="T T T"
In      -4.05796558       2.86941498       4.95446786        0      -0.08431302       0.05961831      -0.10326194
In       6.75905613       0.95050391       1.66182573        1       0.08431302      -0.05961831       0.10326194
In       1.35687503      -0.95945553       4.96997253        2       0.08431302      -0.05961831       0.10326194
In      -1.35054528      -1.90995944       3.30814680        3       0.00000000      -0.00000000      -0.00000000
In      -1.35687503       3.82439470       3.31589913        4      -0.08431302       0.05961831       0.10326194
In       4.04530607      -2.87389079       4.96222020        5      -0.08431302      -0.11923662       0.00000000
In      -1.35687503       0.94602810       4.96222020        6      -0.08431302      -0.11923662      -0.00000000
In      -1.34421552       6.69380968       1.65407340        7       0.08431302       0.11923662       0.00000000
In       4.05796558      -0.00447581       3.30039446        8       0.08431302      -0.05961831      -0.10326194
In      -1.35054528       3.81991889      -0.00000000        9      -0.00000000      -0.00000000       0.00000000
In       4.05796558       5.72540252      -0.00775234       10       0.08431302      -0.05961831      -0.10326194
In      -1.35687503      -1.90548363       6.62404593       11      -0.08431302       0.05961831       0.10326194
In       4.05796558       2.87389079       1.65407340       12       0.08431302       0.11923662       0.00000000
In       1.34421552       4.77937443       1.64632106       13      -0.08431302       0.05961831      -0.10326194
In       4.05163582       0.00000000      -0.00000000       14       0.00000000       0.00000000      -0.00000000
In       1.35054527       1.90995945       3.30814680       15       0.00000000      -0.00000000       0.00000000
O        0.75594035       3.84073351       3.37841827       16      -0.08873869      -0.13074949      -0.29705104
O       -1.94515020       2.91538875       4.90905847       17      -0.08873869      -0.19187900       0.26175790
O       -0.58119488       1.95092669      -0.03673784       18      -0.33375662      -0.01862516      -0.03832656
O       -0.75594035      -0.88371553       1.67118315       19       0.08873869      -0.32262849      -0.03529314
O        3.39703827       4.68242382       1.70792099       20      -0.15132569       0.30050064       0.00303342
O        2.00514283       2.77206839       1.60091167       21       0.15132569       0.14762330       0.26175790
O        2.00514283       5.73027432       0.10700931       22       0.15132569       0.15287734      -0.25872448
O       -2.03308295       5.62752522       3.27140896       23      -0.09369224       0.32087714      -0.03832656
O        3.28228542       1.86899220       6.65303143       24       0.33375662       0.01862516       0.03832656
O        4.73417350      -1.80760633       3.34488463       25       0.09369224      -0.32087714       0.03832656
O        5.98337597       2.85360689       1.60022581       26       0.33375662      -0.04250435      -0.00303342
O        3.36909815       1.92932010       3.41515611       27      -0.09369224      -0.19363034      -0.25872448
O        0.66800760       3.90291135       6.54602212       28      -0.09369224      -0.12724680       0.29705104
O        2.03308294      -0.08299245       0.07027148       29       0.09369224       0.12724680      -0.29705104
O       -3.28228543       0.96631200       5.01606779       30      -0.33375662       0.04250435       0.00303342
O        4.64624075       0.90453015       1.70723512       31       0.08873869       0.19187900      -0.26175790
O        0.69594772       1.04785050       5.01538192       32      -0.15132569      -0.14762330      -0.26175790
O        3.28228542      -0.90268020       4.97932995       33       0.33375662       0.02387919      -0.03529314
O        1.94515020      -0.02081461       3.23787532       34       0.08873869       0.13074949       0.29705104
O        0.69594772      -1.91035543       6.50928428       35      -0.15132569      -0.15287734       0.25872448
O       -0.66800761       1.89059879       3.20113748       36       0.09369224       0.19363034       0.25872448
O       -0.69594772      -0.86250493       4.90837261       37       0.15132569      -0.30050064      -0.00303342
O       -0.58119488       4.72259909       1.63696364       38      -0.33375662      -0.02387919       0.03529314
O        3.45703090       4.70363442       4.94511044       39      -0.08873869       0.32262849       0.03529314
40