40
Lattice="8.611011059965117 6.749072095474224e-10 1.1253723641209513e-14 -2.87033702062468 8.118539084273289 -1.168989685205784e-09 -2.8703370196702283 -4.059269541461727 7.030861089376843" Properties=species:S:1:pos:R:3:spacegroup_kinds:I:1:forces:R:3 spacegroup="P 1" unit_cell=conventional occupancy="_JSON {\"0\": {\"In\": 1}, \"1\": {\"In\": 1}, \"2\": {\"In\": 1}, \"3\": {\"In\": 1}, \"4\": {\"In\": 1}, \"5\": {\"In\": 1}, \"6\": {\"In\": 1}, \"7\": {\"In\": 1}, \"8\": {\"In\": 1}, \"9\": {\"In\": 1}, \"10\": {\"In\": 1}, \"11\": {\"In\": 1}, \"12\": {\"In\": 1}, \"13\": {\"In\": 1}, \"14\": {\"In\": 1}, \"15\": {\"In\": 1}, \"16\": {\"O\": 1}, \"17\": {\"O\": 1}, \"18\": {\"O\": 1}, \"19\": {\"O\": 1}, \"20\": {\"O\": 1}, \"21\": {\"O\": 1}, \"22\": {\"O\": 1}, \"23\": {\"O\": 1}, \"24\": {\"O\": 1}, \"25\": {\"O\": 1}, \"26\": {\"O\": 1}, \"27\": {\"O\": 1}, \"28\": {\"O\": 1}, \"29\": {\"O\": 1}, \"30\": {\"O\": 1}, \"31\": {\"O\": 1}, \"32\": {\"O\": 1}, \"33\": {\"O\": 1}, \"34\": {\"O\": 1}, \"35\": {\"O\": 1}, \"36\": {\"O\": 1}, \"37\": {\"O\": 1}, \"38\": {\"O\": 1}, \"39\": {\"O\": 1}}" n_minim_iter=5 energy=-45149.26775881837 stress="-0.07099316893201778 -1.675533038111933e-13 6.599383515534149e-13 -1.675533038111933e-13 -0.07099316893460549 -2.133172742863032e-12 6.599383515534149e-13 -2.133172742863032e-12 -0.07099316893337865" free_energy=-45149.26775881837 pbc="T T T"
In      -4.12962083       2.92008289       5.48855970        0      -0.00352627       0.00249345      -0.00431878
In       6.99995785       1.13918665       1.54230138        1       0.00352627      -0.00249345       0.00431878
In       1.25928381      -0.89044812       5.05773193        2       0.00352627      -0.00249345       0.00431878
In      -1.43516851      -2.02963477       3.51543054        3       0.00000000      -0.00000000      -0.00000000
In      -1.25928381       3.93490028       3.30001666        4      -0.00352627       0.00249345       0.00431878
In       4.48139023      -2.79571362       5.27314581        5      -0.00352627      -0.00498690       0.00000000
In      -1.25928381       1.26355592       5.27314581        6      -0.00352627      -0.00498690      -0.00000000
In      -1.61105321       6.85498317       1.75771527        7       0.00352627       0.00498690       0.00000000
In       4.12962083       0.12436927       3.73084443        8       0.00352627      -0.00249345      -0.00431878
In      -1.43516851       4.05926954      -0.00000000        9       0.00000000       0.00000000      -0.00000000
In       4.12962083       6.21327358       0.21541388       10       0.00352627      -0.00249345      -0.00431878
In      -1.25928381      -2.15400403       6.81544720       11      -0.00352627       0.00249345       0.00431878
In       4.12962083       2.79571363       1.75771527       12       0.00352627       0.00498690      -0.00000000
In       1.61105321       4.94971766       1.97312916       13      -0.00352627       0.00249345      -0.00431878
In       4.30550553       0.00000000      -0.00000000       14       0.00000000       0.00000000       0.00000000
In       1.43516851       2.02963477       3.51543054       15      -0.00000000      -0.00000000       0.00000000
O        0.84689045       4.06080820       3.80889325       16      -0.00072881      -0.00158864      -0.00424888
O       -2.02344657       3.29782899       5.12508195       17      -0.00072881      -0.00288532       0.00350024
O       -0.43414557       2.17402347       0.04070911       18      -0.00446102      -0.00024625      -0.00107077
O       -0.84689045      -0.75990190       1.90311411       19       0.00072881      -0.00447396      -0.00074864
O        3.78370517       4.84267486       1.86240499       20      -0.00247737       0.00385575       0.00032213
O        1.95696886       2.83808217       1.60965140       21       0.00247737       0.00164890       0.00350024
O        1.95696886       6.06386224       0.25275359       22       0.00247737       0.00220685      -0.00317811
O       -2.19440417       5.77354619       3.55613966       23      -0.00125484       0.00428798      -0.00107077
O        3.30448258       1.88524608       6.99015197       24       0.00446102       0.00024625       0.00107077
O        5.06474119      -1.71427665       3.47472143       25       0.00125484      -0.00428798       0.00107077
O        6.17481960       3.15190163       1.65302555       26       0.00446102      -0.00105044      -0.00032213
O        3.54626987       2.22256896       3.76818413       27      -0.00125484      -0.00307130      -0.00317811
O        0.67593285       4.18169348       6.73739838       28      -0.00125484      -0.00121667       0.00424888
O        2.19440417      -0.12242393       0.29346270       29       0.00125484       0.00121667      -0.00424888
O       -3.30448259       0.90736791       5.37783553       30      -0.00446102       0.00105044       0.00032213
O        4.89378359       0.76144056       1.90577914       31       0.00072881       0.00288532      -0.00350024
O        0.91336815       1.22118738       5.42120968       32      -0.00247737      -0.00164890      -0.00350024
O        3.30448258      -0.97787816       5.41854465       33       0.00446102       0.00080419      -0.00074864
O        2.02344657      -0.00153866       3.22196784       34       0.00072881       0.00158864       0.00424888
O        0.91336815      -2.00459269       6.77810750       35      -0.00247737      -0.00220685       0.00317811
O       -0.67593285       1.83670058       3.26267695       36       0.00125484       0.00307130       0.00317811
O       -0.91336816      -0.78340532       5.16845609       37       0.00247737      -0.00385575      -0.00032213
O       -0.43414557       5.03714771       1.61231643       38      -0.00446102      -0.00080419       0.00074864
O        3.71722747       4.81917144       5.12774698       39      -0.00072881       0.00447396       0.00074864
