40
Lattice="8.36484619703782 6.556149608737314e-10 1.2943700326525357e-14 -2.7882820662973993 7.886452625792074 -1.1355748104611046e-09 -2.7882820653702303 -3.943226312240411 6.829868320435458" Properties=species:S:1:pos:R:3:spacegroup_kinds:I:1:forces:R:3 spacegroup="P 1" unit_cell=conventional occupancy="_JSON {\"0\": {\"In\": 1}, \"1\": {\"In\": 1}, \"2\": {\"In\": 1}, \"3\": {\"In\": 1}, \"4\": {\"In\": 1}, \"5\": {\"In\": 1}, \"6\": {\"In\": 1}, \"7\": {\"In\": 1}, \"8\": {\"In\": 1}, \"9\": {\"In\": 1}, \"10\": {\"In\": 1}, \"11\": {\"In\": 1}, \"12\": {\"In\": 1}, \"13\": {\"In\": 1}, \"14\": {\"In\": 1}, \"15\": {\"In\": 1}, \"16\": {\"O\": 1}, \"17\": {\"O\": 1}, \"18\": {\"O\": 1}, \"19\": {\"O\": 1}, \"20\": {\"O\": 1}, \"21\": {\"O\": 1}, \"22\": {\"O\": 1}, \"23\": {\"O\": 1}, \"24\": {\"O\": 1}, \"25\": {\"O\": 1}, \"26\": {\"O\": 1}, \"27\": {\"O\": 1}, \"28\": {\"O\": 1}, \"29\": {\"O\": 1}, \"30\": {\"O\": 1}, \"31\": {\"O\": 1}, \"32\": {\"O\": 1}, \"33\": {\"O\": 1}, \"34\": {\"O\": 1}, \"35\": {\"O\": 1}, \"36\": {\"O\": 1}, \"37\": {\"O\": 1}, \"38\": {\"O\": 1}, \"39\": {\"O\": 1}}" n_minim_iter=7 energy=-45145.98695553185 stress="-0.06666482083946132 -1.3532440189875855e-12 -1.245983739097213e-12 -1.3532440189875855e-12 -0.06666482084413738 5.381962919662144e-13 -1.245983739097213e-12 5.381962919662144e-13 -0.06666482084204356" free_energy=-45145.98695553185 pbc="T T T"
In      -4.00329983       2.83076046       5.34178155        0       0.00220359      -0.00155817       0.00269883
In       6.79158189       1.11246586       1.48808677        1      -0.00220359       0.00155817      -0.00269883
In       1.21501776      -0.85914730       4.90302093        2      -0.00220359       0.00155817      -0.00269883
In      -1.39414103      -1.97161315       3.41493416        3       0.00000000      -0.00000000      -0.00000000
In      -1.21501776       3.81656703       3.19555385        4       0.00220359      -0.00155817      -0.00269883
In       4.36154637      -2.70410117       5.12240124        5       0.00220359       0.00311634       0.00000000
In      -1.21501776       1.23912514       5.12240124        6       0.00220359       0.00311634      -0.00000000
In      -1.57326431       6.64732749       1.70746708        7      -0.00220359      -0.00311634       0.00000000
In       4.00329982       0.12665928       3.63431447        8      -0.00220359       0.00155817       0.00269883
In      -1.39414103       3.94322631      -0.00000000        9       0.00000000       0.00000000      -0.00000000
In       4.00329982       6.04149875       0.21938031       10      -0.00220359       0.00155817       0.00269883
In      -1.21501776      -2.09827244       6.61048801       11       0.00220359      -0.00155817      -0.00269883
In       4.00329982       2.70410118       1.70746708       12      -0.00220359      -0.00311634      -0.00000000
In       1.57326430       4.80237361       1.92684739       13       0.00220359      -0.00155817       0.00269883
In       4.18242310       0.00000000      -0.00000000       14       0.00000000       0.00000000      -0.00000000
In       1.39414103       1.97161316       3.41493416       15       0.00000000      -0.00000000       0.00000000
O        0.80885101       3.94058875       3.72080036       16       0.00043703      -0.00457832      -0.00173859
O       -1.97943105       3.22362642       4.97175234       17       0.00043703       0.00078349       0.00483424
O       -0.41131500       2.11480093       0.06242610       18      -0.00343212       0.00351940       0.00009552
O       -0.80885102      -0.72223746       1.86268438       19      -0.00043703      -0.00379483       0.00309565
O        3.69907449       4.70150550       1.80025827       20       0.00059301       0.00384997       0.00300013
O        1.87748964       2.76329651       1.55681818       21      -0.00059301      -0.00067320       0.00483424
O        1.87748964       5.88143531       0.24344009       22      -0.00059301       0.00452318      -0.00183411
O       -2.13095844       5.59769733       3.47736026       23      -0.00446216       0.00206270       0.00009552
O        3.19959706       1.82842539       6.76744221       24       0.00343212      -0.00351940      -0.00009552
O        4.91924050      -1.65447101       3.35250805       25       0.00446216      -0.00206270      -0.00009552
O        5.98787913       3.08307622       1.61467588       26       0.00343212       0.00184242      -0.00300013
O        3.44560569       2.18424682       3.65837426       27      -0.00446216      -0.00094863      -0.00183411
O        0.65732363       4.04773479       6.52400211       28      -0.00446216      -0.00111407       0.00173859
O        2.13095844      -0.10450847       0.30586620       29       0.00446216       0.00111407      -0.00173859
O       -3.19959707       0.86015010       5.21519243       30      -0.00343212      -0.00184242       0.00300013
O        4.76771311       0.71959989       1.85811598       31      -0.00043703      -0.00078349      -0.00483424
O        0.91079242       1.17992981       5.27305014       32       0.00059301       0.00067320      -0.00483424
O        3.19959707      -0.96827528       5.27761854       33       0.00343212       0.00167698       0.00309565
O        1.97943105       0.00263757       3.10906795       34      -0.00043703       0.00457832       0.00173859
O        0.91079242      -1.93820899       6.58642822       35       0.00059301      -0.00452318       0.00183411
O       -0.65732363       1.75897949       3.17149406       36       0.00446216       0.00094863       0.00183411
O       -0.91079242      -0.75827919       5.02961004       37      -0.00059301      -0.00384997      -0.00300013
O       -0.41131500       4.91150160       1.55224977       38      -0.00343212      -0.00167698      -0.00309565
O        3.59713308       4.66546377       4.96718393       39       0.00043703       0.00379483      -0.00309565
