40
Lattice="9.543009147566742 7.479540966750782e-10 2.5565770049354164e-14 -3.18100304989409 8.997235307976947 -1.2955101742467762e-09 -3.1810030488363465 -4.498617653240512 7.791834341398003" Properties=species:S:1:pos:R:3:spacegroup_kinds:I:1:forces:R:3 spacegroup="P 1" unit_cell=conventional occupancy="_JSON {\"0\": {\"In\": 1}, \"1\": {\"In\": 1}, \"2\": {\"In\": 1}, \"3\": {\"In\": 1}, \"4\": {\"In\": 1}, \"5\": {\"In\": 1}, \"6\": {\"In\": 1}, \"7\": {\"In\": 1}, \"8\": {\"In\": 1}, \"9\": {\"In\": 1}, \"10\": {\"In\": 1}, \"11\": {\"In\": 1}, \"12\": {\"In\": 1}, \"13\": {\"In\": 1}, \"14\": {\"In\": 1}, \"15\": {\"In\": 1}, \"16\": {\"O\": 1}, \"17\": {\"O\": 1}, \"18\": {\"O\": 1}, \"19\": {\"O\": 1}, \"20\": {\"O\": 1}, \"21\": {\"O\": 1}, \"22\": {\"O\": 1}, \"23\": {\"O\": 1}, \"24\": {\"O\": 1}, \"25\": {\"O\": 1}, \"26\": {\"O\": 1}, \"27\": {\"O\": 1}, \"28\": {\"O\": 1}, \"29\": {\"O\": 1}, \"30\": {\"O\": 1}, \"31\": {\"O\": 1}, \"32\": {\"O\": 1}, \"33\": {\"O\": 1}, \"34\": {\"O\": 1}, \"35\": {\"O\": 1}, \"36\": {\"O\": 1}, \"37\": {\"O\": 1}, \"38\": {\"O\": 1}, \"39\": {\"O\": 1}}" n_minim_iter=1 energy=-45149.02055742987 stress="0.05588994641787696 2.5858628545341955e-12 8.039564908226351e-13 2.5858628545341955e-12 0.05588994642417369 -1.6231676458458427e-12 8.039564908226351e-13 -1.6231676458458427e-12 0.05588994642485678" free_energy=-45149.02055742987 pbc="T T T"
In      -4.56641118       3.22894032       6.09506283        0       0.02070257      -0.01463893       0.02535536
In       7.74741423       1.26967734       1.69677150        1      -0.02070257       0.01463893      -0.02535536
In       1.38540813      -0.97963148       5.59268867        2      -0.02070257       0.01463893      -0.02535536
In      -1.59050153      -2.24930883       3.89591717        3      -0.00000000      -0.00000000       0.00000000
In      -1.38540814       4.35359473       3.64473009        4       0.02070257      -0.01463893      -0.02535536
In       4.97659796      -3.08391738       5.84387575        5       0.02070257       0.02927785      -0.00000000
In      -1.38540814       1.41470027       5.84387575        6       0.02070257       0.02927785      -0.00000000
In      -1.79559492       7.58253504       1.94795858        7      -0.02070257      -0.02927785       0.00000000
In       4.56641118       0.14502293       4.14710425        8      -0.02070257       0.01463893       0.02535536
In      -1.59050153       4.49861766      -0.00000000        9       0.00000000       0.00000000      -0.00000000
In       4.56641118       6.89294941       0.25118707       10      -0.02070257       0.01463893       0.02535536
In      -1.38540814      -2.39433175       7.54064726       11       0.02070257      -0.01463893      -0.02535536
In       4.56641118       3.08391739       1.94795858       12      -0.02070257      -0.02927785      -0.00000000
In       1.79559491       5.47824914       2.19914566       13       0.02070257      -0.01463893       0.02535536
In       4.77150457       0.00000000      -0.00000000       14       0.00000000       0.00000000       0.00000000
In       1.59050152       2.24930883       3.89591717       15      -0.00000000       0.00000000       0.00000000
O        0.88507983       4.50317978       4.19927495       16       0.05212151      -0.02469256      -0.02294555
O       -2.29592322       3.63439773       5.68824594       17       0.05212151      -0.00752515       0.03285716
O       -0.51546654       2.37542474       0.07701679       18      -0.01300131       0.03852364      -0.04690168
O       -0.88507984      -0.85965780       2.09568656       19      -0.05212151      -0.03221771       0.00991161
O        4.19185077       5.40274112       2.01866977       20      -0.02446862       0.00513901       0.05681329
O        2.17015532       3.20246009       1.79232877       21       0.02446862      -0.04663225       0.03285716
O        2.17015532       6.69889869       0.22634099       22       0.02446862       0.05177126       0.02395613
O       -2.41139410       6.44210475       3.97293396       23      -0.04065420      -0.00058346      -0.04690168
O        3.69646959       2.12319292       7.71481755       24       0.01300131      -0.03852364       0.04690168
O        5.59239715      -1.94348709       3.81890038       25       0.04065420       0.00058346       0.04690168
O        6.87747263       3.50371970       1.87724740       26       0.01300131      -0.02135623      -0.05681329
O        3.95061200       2.46891819       4.12225816       27      -0.04065420      -0.04032632       0.02395613
O        0.76960895       4.58483003       7.48847655       28      -0.04065420       0.04090978       0.02294555
O        2.41139410      -0.08621237       0.30335778       29       0.04065420      -0.04090978      -0.02294555
O       -3.69646959       0.99489796       5.91458694       30      -0.01300131       0.02135623       0.05681329
O        5.47692626       0.86421993       2.10358839       31      -0.05212151       0.00752515      -0.03285716
O        1.01084773       1.29615757       5.99950556       32      -0.02446862       0.04663225      -0.03285716
O        3.69646959      -1.12829495       5.99160373       33       0.01300131       0.05987987       0.00991161
O        2.29592321      -0.00456212       3.59255938       34      -0.05212151       0.02469256       0.02294555
O        1.01084773      -2.20028104       7.56549334       35      -0.02446862      -0.05177126      -0.02395613
O       -0.76960895       2.02969946       3.66957617       36       0.04065420       0.04032632      -0.02395613
O       -1.01084773      -0.90412347       5.77316457       37       0.02446862      -0.00513901      -0.05681329
O       -0.51546654       5.62691261       1.80023060       38      -0.01300131      -0.05987987      -0.00991161
O        4.06608288       5.35827546       5.69614777       39       0.05212151       0.03221771      -0.00991161
40
Lattice="9.543009147566748 7.479540966750787e-10 2.5565770049354155e-14 -3.1810030498940924 8.99723530797695 -1.2955101742467768e-09 -3.1810030488363488 -4.4986176532405135 7.791834341398008" Properties=species:S:1:pos:R:3:spacegroup_kinds:I:1:forces:R:3 spacegroup="P 1" unit_cell=conventional occupancy="_JSON {\"0\": {\"In\": 1}, \"1\": {\"In\": 1}, \"2\": {\"In\": 1}, \"3\": {\"In\": 1}, \"4\": {\"In\": 1}, \"5\": {\"In\": 1}, \"6\": {\"In\": 1}, \"7\": {\"In\": 1}, \"8\": {\"In\": 1}, \"9\": {\"In\": 1}, \"10\": {\"In\": 1}, \"11\": {\"In\": 1}, \"12\": {\"In\": 1}, \"13\": {\"In\": 1}, \"14\": {\"In\": 1}, \"15\": {\"In\": 1}, \"16\": {\"O\": 1}, \"17\": {\"O\": 1}, \"18\": {\"O\": 1}, \"19\": {\"O\": 1}, \"20\": {\"O\": 1}, \"21\": {\"O\": 1}, \"22\": {\"O\": 1}, \"23\": {\"O\": 1}, \"24\": {\"O\": 1}, \"25\": {\"O\": 1}, \"26\": {\"O\": 1}, \"27\": {\"O\": 1}, \"28\": {\"O\": 1}, \"29\": {\"O\": 1}, \"30\": {\"O\": 1}, \"31\": {\"O\": 1}, \"32\": {\"O\": 1}, \"33\": {\"O\": 1}, \"34\": {\"O\": 1}, \"35\": {\"O\": 1}, \"36\": {\"O\": 1}, \"37\": {\"O\": 1}, \"38\": {\"O\": 1}, \"39\": {\"O\": 1}}" n_minim_iter=2 energy=-45149.03741349419 stress="0.052917835119635666 -1.3599058477586948e-12 2.3856710157365474e-12 -1.3599058477586948e-12 0.05291783512126661 1.2513342621187718e-12 2.3856710157365474e-12 1.2513342621187718e-12 0.05291783511919914" free_energy=-45149.03741349419 pbc="T T T"
In      -4.56020041       3.22454864       6.10266944        0       0.02671511      -0.01889044       0.03271920
In       7.74120346       1.27406902       1.68916489        1      -0.02671511       0.01889044      -0.03271920
In       1.37919736      -0.97523981       5.58508207        2      -0.02671511       0.01889044      -0.03271920
In      -1.59050153      -2.24930883       3.89591717        3       0.00000000      -0.00000000      -0.00000000
In      -1.37919737       4.34920305       3.63712348        4       0.02671511      -0.01889044      -0.03271920
In       4.98280873      -3.07513403       5.84387575        5       0.02671511       0.03778088       0.00000000
In      -1.37919737       1.42348363       5.84387575        6       0.02671511       0.03778088       0.00000000
In      -1.80180569       7.57375169       1.94795858        7      -0.02671511      -0.03778088       0.00000000
In       4.56020041       0.14941461       4.15471086        8      -0.02671511       0.01889044       0.03271920
In      -1.59050153       4.49861766      -0.00000000        9       0.00000000      -0.00000000      -0.00000000
In       4.56020041       6.89734109       0.25879368       10      -0.02671511       0.01889044       0.03271920
In      -1.37919736      -2.39872343       7.53304065       11       0.02671511      -0.01889044      -0.03271920
In       4.56020041       3.07513403       1.94795858       12      -0.02671511      -0.03778088       0.00000000
In       1.80180568       5.47385746       2.20675227       13       0.02671511      -0.01889044       0.03271920
In       4.77150457       0.00000000      -0.00000000       14      -0.00000000       0.00000000      -0.00000000
In       1.59050152       2.24930883       3.89591717       15      -0.00000000       0.00000000      -0.00000000
O        0.90071629       4.49577201       4.19239129       16       0.02526963       0.05714979       0.02529135
O       -2.28028676       3.63214018       5.69810309       17       0.02526963      -0.00667194      -0.06213885
O       -0.51936693       2.38698183       0.06294628       18       0.05601418      -0.02841162      -0.02448461
O       -0.90071629      -0.86932311       2.09866004       19      -0.02526963       0.05047785      -0.03684749
O        4.18451019       5.40428283       2.03571376       20      -0.01471357      -0.06461405      -0.01236288
O        2.17749591       3.18847041       1.80218592       21       0.01471357      -0.02160045      -0.06213885
O        2.17749591       6.71443007       0.23352783       22       0.01471357      -0.04301359       0.04977596
O       -2.42359036       6.44192971       3.95886345       23       0.04545813      -0.04334014      -0.02448461
O        3.70036998       2.11163583       7.72888805       24      -0.05601418       0.02841162       0.02448461
O        5.60459341      -1.94331205       3.83297088       25      -0.04545813       0.04334014       0.02448461
O        6.88137303       3.49731283       1.86020341       26      -0.05601418      -0.03541011       0.01236288
O        3.93841574       2.45682030       4.12944500       27       0.04545813       0.00046577       0.04977596
O        0.75741269       4.59710296       7.49536022       28       0.04545813       0.04287436      -0.02529135
O        2.42359036      -0.09848530       0.29647412       29      -0.04545813      -0.04287436       0.02529135
O       -3.70036998       1.00130483       5.93163093       30       0.05601418       0.03541011      -0.01236288
O        5.46128981       0.86647747       2.09373124       31      -0.02526963       0.00667194       0.06213885
O        1.00350714       1.31014725       5.98964841       32      -0.01471357       0.02160045       0.06213885
O        3.70036998      -1.11033099       5.99457721       33      -0.05601418       0.00699848      -0.03684749
O        2.28028676       0.00284565       3.59944305       34      -0.02526963      -0.05714979      -0.02529135
O        1.00350714      -2.21581241       7.55830650       35      -0.01471357       0.04301359      -0.04977597
O       -0.75741269       2.04179736       3.66238933       36      -0.04545813      -0.00046577      -0.04977597
O       -1.00350714      -0.90566517       5.75612058       37       0.01471357       0.06461405       0.01236288
O       -0.51936693       5.60894865       1.79725712       38       0.05601418      -0.00699848       0.03684749
O        4.08171933       5.36794077       5.69317429       39       0.02526963      -0.05047785       0.03684749
40
Lattice="9.543009147566753 7.479540966750789e-10 2.5565770049354136e-14 -3.1810030498940933 8.997235307976952 -1.2955101742467773e-09 -3.1810030488363497 -4.498617653240514 7.791834341398011" Properties=species:S:1:pos:R:3:spacegroup_kinds:I:1:forces:R:3 spacegroup="P 1" unit_cell=conventional occupancy="_JSON {\"0\": {\"In\": 1}, \"1\": {\"In\": 1}, \"2\": {\"In\": 1}, \"3\": {\"In\": 1}, \"4\": {\"In\": 1}, \"5\": {\"In\": 1}, \"6\": {\"In\": 1}, \"7\": {\"In\": 1}, \"8\": {\"In\": 1}, \"9\": {\"In\": 1}, \"10\": {\"In\": 1}, \"11\": {\"In\": 1}, \"12\": {\"In\": 1}, \"13\": {\"In\": 1}, \"14\": {\"In\": 1}, \"15\": {\"In\": 1}, \"16\": {\"O\": 1}, \"17\": {\"O\": 1}, \"18\": {\"O\": 1}, \"19\": {\"O\": 1}, \"20\": {\"O\": 1}, \"21\": {\"O\": 1}, \"22\": {\"O\": 1}, \"23\": {\"O\": 1}, \"24\": {\"O\": 1}, \"25\": {\"O\": 1}, \"26\": {\"O\": 1}, \"27\": {\"O\": 1}, \"28\": {\"O\": 1}, \"29\": {\"O\": 1}, \"30\": {\"O\": 1}, \"31\": {\"O\": 1}, \"32\": {\"O\": 1}, \"33\": {\"O\": 1}, \"34\": {\"O\": 1}, \"35\": {\"O\": 1}, \"36\": {\"O\": 1}, \"37\": {\"O\": 1}, \"38\": {\"O\": 1}, \"39\": {\"O\": 1}}" n_minim_iter=3 energy=-45149.05013788477 stress="0.04803096601134484 5.449013480828192e-13 2.178902015129428e-12 5.449013480828192e-13 0.04803096601664304 2.129772316565863e-12 2.178902015129428e-12 2.129772316565863e-12 0.04803096601488359" free_energy=-45149.05013788477 pbc="T T T"
In      -4.54823084       3.21608487       6.11732912        0       0.01442182      -0.01019777       0.01766306
In       7.72923388       1.28253279       1.67450522        1      -0.01442182       0.01019777      -0.01766306
In       1.36722778      -0.96677604       5.57042239        2      -0.01442182       0.01019777      -0.01766306
In      -1.59050153      -2.24930883       3.89591717        3       0.00000000      -0.00000000       0.00000000
In      -1.36722779       4.34073928       3.62246380        4       0.01442182      -0.01019777      -0.01766306
In       4.99477831      -3.05820649       5.84387575        5       0.01442182       0.02039554      -0.00000000
In      -1.36722779       1.44041117       5.84387575        6       0.01442182       0.02039554      -0.00000000
In      -1.81377527       7.55682415       1.94795858        7      -0.01442182      -0.02039554       0.00000000
In       4.54823083       0.15787838       4.16937053        8      -0.01442182       0.01019777       0.01766306
In      -1.59050153       4.49861766      -0.00000000        9      -0.00000000      -0.00000000       0.00000000
In       4.54823083       6.90580486       0.27345336       10      -0.01442182       0.01019777       0.01766306
In      -1.36722779      -2.40718720       7.51838097       11       0.01442182      -0.01019777      -0.01766306
In       4.54823083       3.05820649       1.94795858       12      -0.01442182      -0.02039554      -0.00000000
In       1.81377526       5.46539369       2.22141195       13       0.01442182      -0.01019777       0.01766306
In       4.77150457       0.00000000      -0.00000000       14       0.00000000      -0.00000000      -0.00000000
In       1.59050152       2.24930883       3.89591717       15      -0.00000000       0.00000000      -0.00000000
O        0.92343443       4.49721871       4.18882244       16      -0.00535309       0.04612640       0.03380366
O       -2.25756862       3.62832613       5.69863464       17      -0.00535309       0.00621163      -0.05684846
O       -0.51402619       2.39545545       0.04219495       18       0.04756041      -0.03120386       0.00795707
O       -0.92343443      -0.87169048       2.09562275       19       0.00535309       0.05233803      -0.02304480
O        4.17334155       5.39466940       2.05342780       20       0.00764074      -0.04774402      -0.03100187
O        2.18866455       3.16832289       1.80271747       21      -0.00764075       0.00297640      -0.05684846
O        2.18866455       6.72496417       0.25071032       22      -0.00764074      -0.05072041       0.02584660
O       -2.42979912       6.43406987       3.93811212       23       0.04527275      -0.03443909       0.00795707
O        3.69502924       2.10316221       7.74963939       24      -0.04756041       0.03120386      -0.00795707
O        5.61080217      -1.93545221       3.85372222       25      -0.04527275       0.03443909      -0.00795707
O        6.87603229       3.48357845       1.84248937       26      -0.04756041      -0.00871091       0.03100187
O        3.93220698       2.44277903       4.14662749       27       0.04527275       0.02411057       0.02584660
O        0.75120393       4.61900406       7.49892906       28       0.04527275       0.01032853      -0.03380366
O        2.42979912      -0.12038640       0.29290527       29      -0.04527275      -0.01032853       0.03380366
O       -3.69502924       1.01503920       5.94934497       30       0.04756041       0.00871091      -0.03100187
O        5.43857166       0.87029153       2.09319969       31       0.00535309      -0.00621163       0.05684846
O        0.99233850       1.33029477       5.98911686       32       0.00764074      -0.00297640       0.05684846
O        3.69502924      -1.08812300       5.99153992       33      -0.04756041      -0.02249295      -0.02304480
O        2.25756861       0.00139895       3.60301189       34       0.00535309      -0.04612640      -0.03380366
O        0.99233850      -2.22634651       7.54112402       35       0.00764074       0.05072041      -0.02584660
O       -0.75120393       2.05583862       3.64520684       36      -0.04527275      -0.02411057      -0.02584660
O       -0.99233850      -0.89605175       5.73840654       37      -0.00764074       0.04774402       0.03100187
O       -0.51402619       5.58674066       1.80029442       38       0.04756041       0.02249295       0.02304480
O        4.10443748       5.37030814       5.69621159       39      -0.00535309      -0.05233803       0.02304480
40
Lattice="9.543009147566753 7.47954096675079e-10 2.5565770049354132e-14 -3.1810030498940938 8.99723530797695 -1.2955101742467768e-09 -3.18100304883635 -4.4986176532405135 7.79183434139801" Properties=species:S:1:pos:R:3:spacegroup_kinds:I:1:forces:R:3 spacegroup="P 1" unit_cell=conventional occupancy="_JSON {\"0\": {\"In\": 1}, \"1\": {\"In\": 1}, \"2\": {\"In\": 1}, \"3\": {\"In\": 1}, \"4\": {\"In\": 1}, \"5\": {\"In\": 1}, \"6\": {\"In\": 1}, \"7\": {\"In\": 1}, \"8\": {\"In\": 1}, \"9\": {\"In\": 1}, \"10\": {\"In\": 1}, \"11\": {\"In\": 1}, \"12\": {\"In\": 1}, \"13\": {\"In\": 1}, \"14\": {\"In\": 1}, \"15\": {\"In\": 1}, \"16\": {\"O\": 1}, \"17\": {\"O\": 1}, \"18\": {\"O\": 1}, \"19\": {\"O\": 1}, \"20\": {\"O\": 1}, \"21\": {\"O\": 1}, \"22\": {\"O\": 1}, \"23\": {\"O\": 1}, \"24\": {\"O\": 1}, \"25\": {\"O\": 1}, \"26\": {\"O\": 1}, \"27\": {\"O\": 1}, \"28\": {\"O\": 1}, \"29\": {\"O\": 1}, \"30\": {\"O\": 1}, \"31\": {\"O\": 1}, \"32\": {\"O\": 1}, \"33\": {\"O\": 1}, \"34\": {\"O\": 1}, \"35\": {\"O\": 1}, \"36\": {\"O\": 1}, \"37\": {\"O\": 1}, \"38\": {\"O\": 1}, \"39\": {\"O\": 1}}" n_minim_iter=4 energy=-45149.054178534905 stress="0.04779542671996801 -8.081431492482166e-13 8.032462267141248e-13 -8.081431492482166e-13 0.047795426716523114 -1.6000666376157265e-12 8.032462267141248e-13 -1.6000666376157265e-12 0.047795426718658496" free_energy=-45149.054178534905 pbc="T T T"
In      -4.54672057       3.21501695       6.11917881        0       0.00775804      -0.00548576       0.00950162
In       7.72772362       1.28360071       1.67265553        1      -0.00775804       0.00548576      -0.00950162
In       1.36571752      -0.96570812       5.56857270        2      -0.00775804       0.00548576      -0.00950162
In      -1.59050153      -2.24930883       3.89591717        3       0.00000000      -0.00000000      -0.00000000
In      -1.36571752       4.33967136       3.62061411        4       0.00775804      -0.00548576      -0.00950162
In       4.99628858      -3.05607065       5.84387575        5       0.00775804       0.01097153       0.00000000
In      -1.36571752       1.44254700       5.84387575        6       0.00775804       0.01097153      -0.00000000
In      -1.81528553       7.55468831       1.94795858        7      -0.00775804      -0.01097153      -0.00000000
In       4.54672057       0.15894630       4.17122022        8      -0.00775804       0.00548576       0.00950162
In      -1.59050153       4.49861766      -0.00000000        9      -0.00000000      -0.00000000      -0.00000000
In       4.54672057       6.90687278       0.27530305       10      -0.00775804       0.00548576       0.00950162
In      -1.36571752      -2.40825512       7.51653128       11       0.00775804      -0.00548576      -0.00950162
In       4.54672057       3.05607066       1.94795858       12      -0.00775804      -0.01097153       0.00000000
In       1.81528553       5.46432578       2.22326164       13       0.00775804      -0.00548576       0.00950162
In       4.77150457       0.00000000      -0.00000000       14      -0.00000000      -0.00000000       0.00000000
In       1.59050152       2.24930883       3.89591717       15      -0.00000000      -0.00000000      -0.00000000
O        0.92442955       4.50098038       4.19074620       16      -0.00296034       0.00814909       0.01389349
O       -2.25657350       3.62811131       5.69441505       17      -0.00296034       0.00795757      -0.01400407
O       -0.51035047       2.39334516       0.04125842       18       0.01419873      -0.00417572       0.00701141
O       -0.92442955      -0.86814362       2.09332692       19       0.00296034       0.01610666      -0.00011058
O        4.17280731       5.39058183       2.05206850       20       0.00848925      -0.01205862      -0.00712199
O        2.18919878       3.16745629       1.79849788       21      -0.00848925       0.00013851      -0.01400407
O        2.18919878       6.72174320       0.25357061       22      -0.00848925      -0.01219713       0.00688208
O       -2.42658428       6.43130780       3.93717559       23       0.00866982      -0.01199478       0.00701141
O        3.69135352       2.10527249       7.75057592       24      -0.01419873       0.00417572      -0.00701141
O        5.60758733      -1.93269014       3.85465875       25      -0.00866982       0.01199478      -0.00701141
O        6.87235657       3.48171225       1.84384867       26      -0.01419873       0.00398420       0.00712199
O        3.93542181       2.44334901       4.14948778       27       0.00866982       0.01206945       0.00688208
O        0.75441876       4.62119616       7.49700530       28       0.00866982      -0.00007467      -0.01389349
O        2.42658428      -0.12257850       0.29482903       29      -0.00866982       0.00007467       0.01389349
O       -3.69135352       1.01690541       5.94798567       30       0.01419873      -0.00398420      -0.00712199
O        5.43757655       0.87050635       2.09741928       31       0.00296034      -0.00795757       0.01400407
O        0.99180426       1.33116137       5.99333645       32       0.00848925      -0.00013851       0.01400407
O        3.69135352      -1.08836708       5.98924409       33      -0.01419873      -0.00815992      -0.00011058
O        2.25657350      -0.00236272       3.60108813       34       0.00296034      -0.00814909      -0.01389349
O        0.99180426      -2.22312554       7.53826372       35       0.00848925       0.01219713      -0.00688208
O       -0.75441877       2.05526865       3.64234655       36      -0.00866982      -0.01206945      -0.00688208
O       -0.99180427      -0.89196417       5.73976584       37      -0.00848925       0.01205862       0.00712199
O       -0.51035047       5.58698474       1.80259025       38       0.01419873       0.00815992       0.00011058
O        4.10543260       5.36676127       5.69850742       39      -0.00296034      -0.01610666       0.00011058
40
Lattice="9.543009147566755 7.479540966750791e-10 2.556577004935414e-14 -3.181003049894094 8.99723530797695 -1.295510174246777e-09 -3.1810030488363505 -4.4986176532405135 7.791834341398011" Properties=species:S:1:pos:R:3:spacegroup_kinds:I:1:forces:R:3 spacegroup="P 1" unit_cell=conventional occupancy="_JSON {\"0\": {\"In\": 1}, \"1\": {\"In\": 1}, \"2\": {\"In\": 1}, \"3\": {\"In\": 1}, \"4\": {\"In\": 1}, \"5\": {\"In\": 1}, \"6\": {\"In\": 1}, \"7\": {\"In\": 1}, \"8\": {\"In\": 1}, \"9\": {\"In\": 1}, \"10\": {\"In\": 1}, \"11\": {\"In\": 1}, \"12\": {\"In\": 1}, \"13\": {\"In\": 1}, \"14\": {\"In\": 1}, \"15\": {\"In\": 1}, \"16\": {\"O\": 1}, \"17\": {\"O\": 1}, \"18\": {\"O\": 1}, \"19\": {\"O\": 1}, \"20\": {\"O\": 1}, \"21\": {\"O\": 1}, \"22\": {\"O\": 1}, \"23\": {\"O\": 1}, \"24\": {\"O\": 1}, \"25\": {\"O\": 1}, \"26\": {\"O\": 1}, \"27\": {\"O\": 1}, \"28\": {\"O\": 1}, \"29\": {\"O\": 1}, \"30\": {\"O\": 1}, \"31\": {\"O\": 1}, \"32\": {\"O\": 1}, \"33\": {\"O\": 1}, \"34\": {\"O\": 1}, \"35\": {\"O\": 1}, \"36\": {\"O\": 1}, \"37\": {\"O\": 1}, \"38\": {\"O\": 1}, \"39\": {\"O\": 1}}" n_minim_iter=5 energy=-45149.05455392395 stress="0.047584763161646934 4.107561887724298e-13 -1.630793028038816e-12 4.107561887724298e-13 0.047584763159928656 -1.0665885933117068e-12 -1.630793028038816e-12 -1.0665885933117068e-12 0.04758476316525113" free_energy=-45149.05455392395 pbc="T T T"
In      -4.54586070       3.21440893       6.12023193        0       0.00470757      -0.00332876       0.00576557
In       7.72686375       1.28420873       1.67160241        1      -0.00470757       0.00332876      -0.00576557
In       1.36485765      -0.96510010       5.56751958        2      -0.00470757       0.00332876      -0.00576557
In      -1.59050153      -2.24930883       3.89591717        3      -0.00000000       0.00000000      -0.00000000
In      -1.36485765       4.33906334       3.61956099        4       0.00470757      -0.00332876      -0.00576557
In       4.99714844      -3.05485461       5.84387575        5       0.00470757       0.00665751      -0.00000000
In      -1.36485765       1.44376304       5.84387575        6       0.00470757       0.00665751      -0.00000000
In      -1.81614540       7.55347227       1.94795858        7      -0.00470757      -0.00665751       0.00000000
In       4.54586070       0.15955431       4.17227334        8      -0.00470757       0.00332876       0.00576557
In      -1.59050153       4.49861766      -0.00000000        9      -0.00000000       0.00000000       0.00000000
In       4.54586070       6.90748080       0.27635617       10      -0.00470757       0.00332876       0.00576557
In      -1.36485765      -2.40886314       7.51547816       11       0.00470757      -0.00332876      -0.00576557
In       4.54586070       3.05485462       1.94795858       12      -0.00470757      -0.00665751      -0.00000000
In       1.81614539       5.46371776       2.22431476       13       0.00470757      -0.00332876       0.00576557
In       4.77150457       0.00000000      -0.00000000       14       0.00000000       0.00000000      -0.00000000
In       1.59050152       2.24930883       3.89591717       15      -0.00000000       0.00000000      -0.00000000
O        0.92519351       4.50231079       4.19148546       16      -0.00211076      -0.00475941       0.00592808
O       -2.25580954       3.62808632       5.69289326       17      -0.00211076       0.00751357       0.00115773
O       -0.50886505       2.39281003       0.04062021       18       0.00189306       0.00468245       0.00606139
O       -0.92519352      -0.86683820       2.09254438       19       0.00211076       0.00275416       0.00708581
O        4.17252909       5.38890795       2.05192416       20       0.00778745       0.00074539       0.00102442
O        2.18947700       3.16674435       1.79697609       21      -0.00778745      -0.00051448       0.00115773
O        2.18947700       6.72078125       0.25494807       22      -0.00778745       0.00125987      -0.00013331
O       -2.42558462       6.43008571       3.93653738       23      -0.00378363      -0.00334561       0.00606139
O        3.68986810       2.10580763       7.75121412       24      -0.00189306      -0.00468245      -0.00606139
O        5.60658766      -1.93146805       3.85529695       25       0.00378363       0.00334561      -0.00606139
O        6.87087115       3.48089198       1.84399300       26      -0.00189306       0.00759054      -0.00102442
O        3.93642148       2.44340735       4.15086524       27      -0.00378363       0.00692212      -0.00013331
O        0.75541843       4.62235991       7.49626605       28      -0.00378363      -0.00357651      -0.00592808
O        2.42558461      -0.12374225       0.29556829       29       0.00378363       0.00357651       0.00592808
O       -3.68986810       1.01772568       5.94784133       30       0.00189306      -0.00759054       0.00102442
O        5.43681258       0.87053134       2.09894108       31       0.00211076      -0.00751357      -0.00115773
O        0.99152605       1.33187331       5.99485825       32       0.00778745       0.00051448      -0.00115773
O        3.68986810      -1.08808195       5.98846155       33      -0.00189306      -0.00290809       0.00708581
O        2.25580953      -0.00369314       3.60034888       34       0.00211076       0.00475941      -0.00592808
O        0.99152605      -2.22216359       7.53688626       35       0.00778745      -0.00125987       0.00013331
O       -0.75541844       2.05521031       3.64096909       36       0.00378363      -0.00692212       0.00013331
O       -0.99152605      -0.89029029       5.73991017       37      -0.00778745      -0.00074539      -0.00102442
O       -0.50886505       5.58669961       1.80337279       38       0.00189306       0.00290809      -0.00708581
O        4.10619656       5.36545585       5.69928996       39      -0.00211076      -0.00275416      -0.00708581
