40
Lattice="9.275930471918569 7.270203377252412e-10 1.4241931217062383e-14 -3.091976824658304 8.745431117769066 -1.2592474041186786e-09 -3.091976823630153 -4.372715558157504 7.57376551587444" Properties=species:S:1:pos:R:3:spacegroup_kinds:I:1:forces:R:3 spacegroup="P 1" unit_cell=conventional occupancy="_JSON {\"0\": {\"In\": 1}, \"1\": {\"In\": 1}, \"2\": {\"In\": 1}, \"3\": {\"In\": 1}, \"4\": {\"In\": 1}, \"5\": {\"In\": 1}, \"6\": {\"In\": 1}, \"7\": {\"In\": 1}, \"8\": {\"In\": 1}, \"9\": {\"In\": 1}, \"10\": {\"In\": 1}, \"11\": {\"In\": 1}, \"12\": {\"In\": 1}, \"13\": {\"In\": 1}, \"14\": {\"In\": 1}, \"15\": {\"In\": 1}, \"16\": {\"O\": 1}, \"17\": {\"O\": 1}, \"18\": {\"O\": 1}, \"19\": {\"O\": 1}, \"20\": {\"O\": 1}, \"21\": {\"O\": 1}, \"22\": {\"O\": 1}, \"23\": {\"O\": 1}, \"24\": {\"O\": 1}, \"25\": {\"O\": 1}, \"26\": {\"O\": 1}, \"27\": {\"O\": 1}, \"28\": {\"O\": 1}, \"29\": {\"O\": 1}, \"30\": {\"O\": 1}, \"31\": {\"O\": 1}, \"32\": {\"O\": 1}, \"33\": {\"O\": 1}, \"34\": {\"O\": 1}, \"35\": {\"O\": 1}, \"36\": {\"O\": 1}, \"37\": {\"O\": 1}, \"38\": {\"O\": 1}, \"39\": {\"O\": 1}}" n_minim_iter=9 energy=-45150.65601497843 stress="0.0146450069835764 1.3358781956351884e-12 -1.4082258489263157e-12 1.3358781956351884e-12 0.01464500697926095 2.3593549984943585e-12 -1.4082258489263157e-12 2.3593549984943585e-12 0.014645006982629641" free_energy=-45150.65601497843 pbc="T T T"
In      -4.44510142       3.14316136       5.91653311        0       0.00001384      -0.00000978       0.00001695
In       7.53707824       1.22955421       1.65723240        1      -0.00001384       0.00000978      -0.00001695
In       1.35312459      -0.95680357       5.44411516        2      -0.00001384       0.00000978      -0.00001695
In      -1.54598841      -2.18635778       3.78688276        3       0.00000000      -0.00000000       0.00000000
In      -1.35312460       4.23634025       3.55067378        4       0.00001384      -0.00000978      -0.00001695
In       4.83082905      -3.00678604       5.68032413        5       0.00001384       0.00001957      -0.00000000
In      -1.35312460       1.36592952       5.68032413        6       0.00001384       0.00001957      -0.00000000
In      -1.73885223       7.37950160       1.89344138        7      -0.00001384      -0.00001957      -0.00000000
In       4.44510142       0.13637532       4.02309173        8      -0.00001384       0.00000978       0.00001695
In      -1.54598841       4.37271556      -0.00000000        9      -0.00000000      -0.00000000       0.00000000
In       4.44510142       6.69544865       0.23620897       10      -0.00001384       0.00000978       0.00001695
In      -1.35312460      -2.32273309       7.33755654       11       0.00001384      -0.00000978      -0.00001695
In       4.44510142       3.00678604       1.89344138       12      -0.00001384      -0.00001957      -0.00000000
In       1.73885223       5.32951914       2.12965035       13       0.00001384      -0.00000978       0.00001695
In       4.63796523       0.00000000      -0.00000000       14      -0.00000000       0.00000000      -0.00000000
In       1.54598841       2.18635778       3.78688275       15       0.00000000      -0.00000000      -0.00000000
O        0.84219517       4.37697516       4.12452508       16       0.00002498       0.00000000      -0.00000276
O       -2.24978165       3.56981370       5.50781405       17       0.00002498      -0.00000239       0.00000138
O       -0.47223542       2.31289871       0.11108917       18       0.00000607       0.00001098      -0.00002178
O       -0.84219518      -0.79864226       2.05857362       19      -0.00002498      -0.00000239      -0.00000138
O        4.11557985       5.23549518       1.94748445       20      -0.00001058      -0.00001018       0.00002039
O        2.06837379       3.11753436       1.72093130       21       0.00001058      -0.00002275       0.00000138
O        2.06837379       6.49067638       0.22655315       22       0.00001058       0.00001257       0.00001901
O       -2.33803362       6.23333493       3.89797192       23      -0.00000833      -0.00000938      -0.00002178
O        3.56421224       2.05981685       7.46267634       24      -0.00000607      -0.00001098       0.00002178
O        5.43001044      -1.86061936       3.67579359       25       0.00000833       0.00000938       0.00002178
O        6.65618907       3.43901318       1.83939830       26      -0.00000607      -0.00001337      -0.00002039
O        3.84592002       2.44543303       4.01343591       27      -0.00000833      -0.00001417       0.00001901
O        0.75394320       4.43937873       7.23612319       28      -0.00000833       0.00002355       0.00000276
O        2.33803362      -0.06666316       0.33764232       29       0.00000833      -0.00002355      -0.00000276
O       -3.56421225       0.93370238       5.73436721       30       0.00000607       0.00001337       0.00002039
O        5.34175847       0.80290186       2.06595146       31      -0.00002498       0.00000239      -0.00000138
O        1.02360303       1.25518120       5.85283421       32      -0.00001058       0.00002275      -0.00000138
O        3.56421224      -1.12611446       5.84545638       33      -0.00000607       0.00002435      -0.00000138
O        2.24978165      -0.00425959       3.44924043       34      -0.00002498      -0.00000000       0.00000276
O        1.02360303      -2.11796082       7.34721236       35      -0.00001058      -0.00001257      -0.00001901
O       -0.75394320       1.92728253       3.56032960       36       0.00000833       0.00001417      -0.00001901
O       -1.02360303      -0.86277962       5.62628106       37       0.00001058       0.00001018      -0.00002039
O       -0.47223542       5.49883003       1.72830913       38       0.00000607      -0.00002435       0.00000138
O        3.93417200       5.17135782       5.51519189       39       0.00002498       0.00000239       0.00000138
