40
Lattice="8.279484667431356 6.489257584556889e-10 2.4110223000781867e-14 -2.7598282230889324 7.805973003878039 -1.1239806698564333e-09 -2.759828222171233 -3.9029865012900915 6.760170923363213" Properties=species:S:1:pos:R:3:spacegroup_kinds:I:1:forces:R:3 spacegroup="P 1" unit_cell=conventional occupancy="_JSON {\"0\": {\"In\": 1}, \"1\": {\"In\": 1}, \"2\": {\"In\": 1}, \"3\": {\"In\": 1}, \"4\": {\"In\": 1}, \"5\": {\"In\": 1}, \"6\": {\"In\": 1}, \"7\": {\"In\": 1}, \"8\": {\"In\": 1}, \"9\": {\"In\": 1}, \"10\": {\"In\": 1}, \"11\": {\"In\": 1}, \"12\": {\"In\": 1}, \"13\": {\"In\": 1}, \"14\": {\"In\": 1}, \"15\": {\"In\": 1}, \"16\": {\"O\": 1}, \"17\": {\"O\": 1}, \"18\": {\"O\": 1}, \"19\": {\"O\": 1}, \"20\": {\"O\": 1}, \"21\": {\"O\": 1}, \"22\": {\"O\": 1}, \"23\": {\"O\": 1}, \"24\": {\"O\": 1}, \"25\": {\"O\": 1}, \"26\": {\"O\": 1}, \"27\": {\"O\": 1}, \"28\": {\"O\": 1}, \"29\": {\"O\": 1}, \"30\": {\"O\": 1}, \"31\": {\"O\": 1}, \"32\": {\"O\": 1}, \"33\": {\"O\": 1}, \"34\": {\"O\": 1}, \"35\": {\"O\": 1}, \"36\": {\"O\": 1}, \"37\": {\"O\": 1}, \"38\": {\"O\": 1}, \"39\": {\"O\": 1}}" n_minim_iter=6 energy=-45145.11177997369 stress="-0.0690327739867787 7.249491301069939e-13 1.4993183860619338e-12 7.249491301069939e-13 -0.06903277398404785 3.7429399561331717e-13 1.4993183860619338e-12 3.7429399561331717e-13 -0.06903277399028389" free_energy=-45145.11177997369 pbc="T T T"
In      -3.96155848       2.80124487       5.28835795        0       0.00306194      -0.00216512       0.00375010
In       6.72138670       1.10174164       1.47181296        1      -0.00306194       0.00216512      -0.00375010
In       1.20173025      -0.84975161       4.85189843        2      -0.00306194       0.00216512      -0.00375010
In      -1.37991411      -1.95149325       3.38008546        3       0.00000000      -0.00000000      -0.00000000
In      -1.20173026       3.77699149       3.16185569        4       0.00306194      -0.00216512      -0.00375010
In       4.31792619      -2.67524985       5.07012819        5       0.00306194       0.00433024      -0.00000000
In      -1.20173026       1.22773665       5.07012819        6       0.00306194       0.00433024      -0.00000000
In      -1.55809797       6.57823635       1.69004273        7      -0.00306194      -0.00433024       0.00000000
In       3.96155848       0.12599502       3.59831522        8      -0.00306194       0.00216512       0.00375010
In      -1.37991411       3.90298650      -0.00000000        9       0.00000000      -0.00000000      -0.00000000
In       3.96155848       5.98047477       0.21822976       10      -0.00306194       0.00216512       0.00375010
In      -1.20173026      -2.07748826       6.54194116       11       0.00306194      -0.00216512      -0.00375010
In       3.96155848       2.67524985       1.69004273       12      -0.00306194      -0.00433024       0.00000000
In       1.55809797       4.75273812       1.90827249       13       0.00306194      -0.00216512       0.00375010
In       4.13974233       0.00000000      -0.00000000       14       0.00000000      -0.00000000       0.00000000
In       1.37991411       1.95149325       3.38008546       15       0.00000000      -0.00000000       0.00000000
O        0.80178946       3.89512145       3.68486921       16       0.00036569       0.00067708      -0.00229193
O       -1.95803876       3.19512287       4.92454765       17       0.00036569      -0.00232340       0.00055960
O       -0.40753232       2.09874925       0.06335154       18      -0.00143028      -0.00105346      -0.00164000
O       -0.80178946      -0.71572868       1.84924594       19      -0.00036569      -0.00164633      -0.00173233
O        3.66507032       4.65529122       1.78589439       20      -0.00231242       0.00069947      -0.00009232
O        1.85458612       2.73250894       1.54446219       21       0.00231242       0.00042969       0.00055960
O        1.85458612       5.82576878       0.24143220       22       0.00231242       0.00026978      -0.00065192
O       -2.11456388       5.53912183       3.44343700       23       0.00051646       0.00169963      -0.00164000
O        3.16736054       1.80423725       6.69681938       24       0.00143028       0.00105346       0.00164000
O        4.87439210      -1.63613532       3.31673392       25      -0.00051646      -0.00169963       0.00164000
O        5.92718876       3.05573192       1.59419106       26       0.00143028      -0.00194702       0.00009232
O        3.40509257       2.16403626       3.62151767       27       0.00051646      -0.00227010      -0.00065192
O        0.64526434       4.00580142       6.45538717       28       0.00051646       0.00057047       0.00229193
O        2.11456387      -0.10281492       0.30478375       29      -0.00051646      -0.00057047      -0.00229193
O       -3.16736054       0.84725458       5.16597986       30      -0.00143028       0.00194702      -0.00009232
O        4.71786698       0.70786363       1.83562327       31      -0.00036569       0.00232340      -0.00055960
O        0.90524209       1.17047756       5.21570873       32      -0.00231242      -0.00042969      -0.00055960
O        3.16736054      -0.95698267       5.22933140       33       0.00143028       0.00089355      -0.00173233
O        1.95803876       0.00786505       3.07530171       34      -0.00036569      -0.00067708       0.00229193
O        0.90524209      -1.92278227       6.51873871       35      -0.00231242      -0.00026978       0.00065192
O       -0.64526435       1.73895024       3.13865325       36      -0.00051646       0.00227010       0.00065192
O       -0.90524210      -0.75230471       4.97427652       37       0.00231242      -0.00069947       0.00009232
O       -0.40753232       4.85996917       1.53083952       38      -0.00143028      -0.00089355       0.00173233
O        3.56161768       4.61871519       4.91092498       39       0.00036569       0.00164633       0.00173233
