40
Lattice="9.136421602126326 7.160885824067441e-10 1.33081955876265e-16 -3.0454738680505833 8.613900893951683 -1.2403035280415103e-09 -3.0454738670378783 -4.306950446259754 7.459857000670521" Properties=species:S:1:pos:R:3:spacegroup_kinds:I:1:forces:R:3 spacegroup="P 1" unit_cell=conventional occupancy="_JSON {\"0\": {\"In\": 1}, \"1\": {\"In\": 1}, \"2\": {\"In\": 1}, \"3\": {\"In\": 1}, \"4\": {\"In\": 1}, \"5\": {\"In\": 1}, \"6\": {\"In\": 1}, \"7\": {\"In\": 1}, \"8\": {\"In\": 1}, \"9\": {\"In\": 1}, \"10\": {\"In\": 1}, \"11\": {\"In\": 1}, \"12\": {\"In\": 1}, \"13\": {\"In\": 1}, \"14\": {\"In\": 1}, \"15\": {\"In\": 1}, \"16\": {\"O\": 1}, \"17\": {\"O\": 1}, \"18\": {\"O\": 1}, \"19\": {\"O\": 1}, \"20\": {\"O\": 1}, \"21\": {\"O\": 1}, \"22\": {\"O\": 1}, \"23\": {\"O\": 1}, \"24\": {\"O\": 1}, \"25\": {\"O\": 1}, \"26\": {\"O\": 1}, \"27\": {\"O\": 1}, \"28\": {\"O\": 1}, \"29\": {\"O\": 1}, \"30\": {\"O\": 1}, \"31\": {\"O\": 1}, \"32\": {\"O\": 1}, \"33\": {\"O\": 1}, \"34\": {\"O\": 1}, \"35\": {\"O\": 1}, \"36\": {\"O\": 1}, \"37\": {\"O\": 1}, \"38\": {\"O\": 1}, \"39\": {\"O\": 1}}" n_minim_iter=5 energy=-45151.19631356104 stress="0.01303882659054229 3.144237425970031e-13 1.2916526199726605e-12 3.144237425970031e-13 0.013038826585587323 -1.5249552677601557e-12 1.2916526199726605e-12 -1.5249552677601557e-12 0.013038826586470709" free_energy=-45151.19631356104 pbc="T T T"
In      -4.37820141       3.09585590       5.82760578        0      -0.00544065       0.00384712      -0.00666341
In       7.42367527       1.21109455       1.63225121        1       0.00544065      -0.00384712       0.00666341
In       1.33272754      -0.94238068       5.36217971        2       0.00544065      -0.00384712       0.00666341
In      -1.52273694      -2.15347522       3.72992850        3      -0.00000000       0.00000000       0.00000000
In      -1.33272754       4.17259352       3.49721546        4      -0.00544065       0.00384712       0.00666341
In       4.75822020      -2.96149897       5.59489275        5      -0.00544065      -0.00769425      -0.00000000
In      -1.33272754       1.34545148       5.59489275        6      -0.00544065      -0.00769425       0.00000000
In      -1.71274633       7.26844942       1.86496425        7       0.00544065       0.00769425       0.00000000
In       4.37820140       0.13435693       3.96264153        8       0.00544065      -0.00384712      -0.00666341
In      -1.52273694       4.30695045      -0.00000000        9      -0.00000000      -0.00000000       0.00000000
In       4.37820140       6.59478260       0.23271303       10       0.00544065      -0.00384712      -0.00666341
In      -1.33272754      -2.28783215       7.22714396       11      -0.00544065       0.00384712       0.00666341
In       4.37820140       2.96149897       1.86496425       12       0.00544065       0.00769425       0.00000000
In       1.71274633       5.24933113       2.09767728       13      -0.00544065       0.00384712      -0.00666341
In       4.56821080       0.00000000      -0.00000000       14       0.00000000       0.00000000       0.00000000
In       1.52273693       2.15347523       3.72992850       15      -0.00000000      -0.00000000       0.00000000
O        0.84988181       4.30368867       4.06845764       16       0.00437839      -0.00261558      -0.00248361
O       -2.19559206       3.52501856       5.42845296       17       0.00437839      -0.00084308       0.00350697
O       -0.45699376       2.29564391       0.09793532       18      -0.00180139       0.00352669      -0.00406169
O       -0.84988181      -0.78519367       2.03705361       19      -0.00437839      -0.00345866       0.00102336
O        4.05528339       5.14868710       1.93911828       20      -0.00225433       0.00111364       0.00508505
O        2.03566434       3.04849308       1.69852446       21       0.00225433      -0.00384696       0.00350697
O        2.03566434       6.40714447       0.24059381       22       0.00225433       0.00496060       0.00157808
O       -2.31668509       6.12606888       3.82786382       23      -0.00392546       0.00052281      -0.00406169
O        3.50246762       2.01130654       7.36192167       24       0.00180139      -0.00352669       0.00406169
O        5.36215895      -1.81911843       3.63199317       25       0.00392546      -0.00052281       0.00406169
O        6.54794149       3.38611166       1.79081021       26       0.00180139      -0.00175418      -0.00508505
O        3.77426265       2.40546810       3.97052231       27      -0.00392546      -0.00377893       0.00157808
O        0.72878878       4.38931437       7.12132786       28      -0.00392546       0.00325613       0.00248361
O        2.31668509      -0.08236392       0.33852914       29       0.00392546      -0.00325613      -0.00248361
O       -3.50246762       0.92083879       5.66904678       30      -0.00180139       0.00175418       0.00508505
O        5.24106592       0.78193189       2.03140403       31      -0.00437839       0.00084308      -0.00350697
O        1.00980952       1.25845737       5.76133253       32      -0.00225433       0.00384696      -0.00350697
O        3.50246762      -1.09046774       5.76698211       33       0.00180139       0.00528088       0.00102336
O        2.19559206       0.00326179       3.39139936       34      -0.00437839       0.00261558       0.00248361
O        1.00980952      -2.10019402       7.21926318       35      -0.00225433      -0.00496060      -0.00157808
O       -0.72878878       1.90148235       3.48933468       36       0.00392546       0.00377893      -0.00157808
O       -1.00980953      -0.84173665       5.52073872       37       0.00225433      -0.00111364      -0.00508505
O       -0.45699376       5.39741820       1.69287489       38      -0.00180139      -0.00528088      -0.00102336
O        3.89535567       5.09214412       5.42280339       39       0.00437839       0.00345866      -0.00102336
