40
Lattice="9.607490895104402 7.53007993877289e-10 2.573851697901084e-14 -3.202496965744741 9.05802928257077 -1.304263886906639e-09 -3.2024969646798502 -4.5290146405323695 7.844483467799121" Properties=species:S:1:pos:R:3:spacegroup_kinds:I:1:forces:R:3 spacegroup="P 1" unit_cell=conventional occupancy="_JSON {\"0\": {\"In\": 1}, \"1\": {\"In\": 1}, \"2\": {\"In\": 1}, \"3\": {\"In\": 1}, \"4\": {\"In\": 1}, \"5\": {\"In\": 1}, \"6\": {\"In\": 1}, \"7\": {\"In\": 1}, \"8\": {\"In\": 1}, \"9\": {\"In\": 1}, \"10\": {\"In\": 1}, \"11\": {\"In\": 1}, \"12\": {\"In\": 1}, \"13\": {\"In\": 1}, \"14\": {\"In\": 1}, \"15\": {\"In\": 1}, \"16\": {\"O\": 1}, \"17\": {\"O\": 1}, \"18\": {\"O\": 1}, \"19\": {\"O\": 1}, \"20\": {\"O\": 1}, \"21\": {\"O\": 1}, \"22\": {\"O\": 1}, \"23\": {\"O\": 1}, \"24\": {\"O\": 1}, \"25\": {\"O\": 1}, \"26\": {\"O\": 1}, \"27\": {\"O\": 1}, \"28\": {\"O\": 1}, \"29\": {\"O\": 1}, \"30\": {\"O\": 1}, \"31\": {\"O\": 1}, \"32\": {\"O\": 1}, \"33\": {\"O\": 1}, \"34\": {\"O\": 1}, \"35\": {\"O\": 1}, \"36\": {\"O\": 1}, \"37\": {\"O\": 1}, \"38\": {\"O\": 1}, \"39\": {\"O\": 1}}" n_minim_iter=5 energy=-45149.05455392395 stress="0.047584763161646934 4.107561887724298e-13 -1.630793028038816e-12 4.107561887724298e-13 0.047584763159928656 -1.0665885933117068e-12 -1.630793028038816e-12 -1.0665885933117068e-12 0.04758476316525113" free_energy=-45149.05455392395 pbc="T T T"
In      -4.57657691       3.23612857       6.16158610        0       0.00470757      -0.00332876       0.00576557
In       7.77907387       1.29288608       1.68289736        1      -0.00470757       0.00332876      -0.00576557
In       1.37407994      -0.97162124       5.60513909        2      -0.00470757       0.00332876      -0.00576557
In      -1.60124848      -2.26450732       3.92224173        3      -0.00000000       0.00000000      -0.00000000
In      -1.37407995       4.36838223       3.64401823        4       0.00470757      -0.00332876      -0.00576557
In       5.03091399      -3.07549615       5.88336260        5       0.00470757       0.00665751      -0.00000000
In      -1.37407994       1.45351849       5.88336260        6       0.00470757       0.00665751      -0.00000000
In      -1.82841702       7.60451079       1.96112086        7      -0.00470757      -0.00665751       0.00000000
In       4.57657691       0.16063242       4.20046523        8      -0.00470757       0.00332876       0.00576557
In      -1.60124848       4.52901464      -0.00000000        9      -0.00000000       0.00000000       0.00000000
In       4.57657691       6.95415438       0.27822350       10      -0.00470757       0.00332876       0.00576557
In      -1.37407994      -2.42513973       7.56625996       11       0.00470757      -0.00332876      -0.00576557
In       4.57657691       3.07549615       1.96112086       12      -0.00470757      -0.00665751      -0.00000000
In       1.82841702       5.50063589       2.23934437       13       0.00470757      -0.00332876       0.00576557
In       4.80374545       0.00000000      -0.00000000       14       0.00000000       0.00000000      -0.00000000
In       1.60124848       2.26450732       3.92224173       15      -0.00000000       0.00000000      -0.00000000
O        0.93144501       4.53273274       4.21980716       16      -0.00211076      -0.00475941       0.00592808
O       -2.27105195       3.65260116       5.73135992       17      -0.00211076       0.00751357       0.00115773
O       -0.51230344       2.40897816       0.04089468       18       0.00189306       0.00468245       0.00606139
O       -0.93144501      -0.87269539       2.10668362       19       0.00211076       0.00275416       0.00708581
O        4.20072271       5.42532059       2.06578893       20       0.00778745       0.00074539       0.00102442
O        2.20427121       3.18814192       1.80911818       21      -0.00778745      -0.00051448       0.00115773
O        2.20427121       6.76619331       0.25667075       22      -0.00778745       0.00125987      -0.00013331
O       -2.44197420       6.47353356       3.96313641       23      -0.00378363      -0.00334561       0.00606139
O        3.71480040       2.12003649       7.80358878       24      -0.00189306      -0.00468245      -0.00606139
O        5.64447116      -1.94451891       3.88134705       25       0.00378363       0.00334561      -0.00606139
O        6.91729736       3.50441223       1.85645279       26      -0.00189306       0.00759054      -0.00102442
O        3.96301973       2.45991736       4.17891248       27      -0.00378363       0.00692212      -0.00013331
O        0.76052277       4.65359301       7.54691803       28      -0.00378363      -0.00357651      -0.00592808
O        2.44197419      -0.12457837       0.29756543       29       0.00378363       0.00357651       0.00592808
O       -3.71480040       1.02460241       5.98803067       30       0.00189306      -0.00759054       0.00102442
O        5.47354892       0.87641348       2.11312354       31       0.00211076      -0.00751357      -0.00115773
O        0.99822575       1.34087273       6.03536528       32       0.00778745       0.00051448      -0.00115773
O        3.71480040      -1.09543408       6.02892535       33      -0.00189306      -0.00290809       0.00708581
O        2.27105195      -0.00371809       3.62467630       34       0.00211076       0.00475941      -0.00592808
O        0.99822575      -2.23717867       7.58781272       35       0.00778745      -0.00125987       0.00013331
O       -0.76052277       2.06909728       3.66557098       36       0.00378363      -0.00692212       0.00013331
O       -0.99822575      -0.89630594       5.77869453       37      -0.00778745      -0.00074539      -0.00102442
O       -0.51230344       5.62444872       1.81555811       38       0.00189306       0.00290809      -0.00708581
O        4.13394198       5.40171003       5.73779984       39      -0.00211076      -0.00275416      -0.00708581
