40
Lattice="9.34413829257793 7.323662674906048e-10 1.4346655060480268e-14 -3.114712764883132 8.809738067791539 -1.2685069087436771e-09 -3.1147127638474204 -4.404869033163394 7.62945696823997" Properties=species:S:1:pos:R:3:spacegroup_kinds:I:1:forces:R:3 spacegroup="P 1" unit_cell=conventional occupancy="_JSON {\"0\": {\"In\": 1}, \"1\": {\"In\": 1}, \"2\": {\"In\": 1}, \"3\": {\"In\": 1}, \"4\": {\"In\": 1}, \"5\": {\"In\": 1}, \"6\": {\"In\": 1}, \"7\": {\"In\": 1}, \"8\": {\"In\": 1}, \"9\": {\"In\": 1}, \"10\": {\"In\": 1}, \"11\": {\"In\": 1}, \"12\": {\"In\": 1}, \"13\": {\"In\": 1}, \"14\": {\"In\": 1}, \"15\": {\"In\": 1}, \"16\": {\"O\": 1}, \"17\": {\"O\": 1}, \"18\": {\"O\": 1}, \"19\": {\"O\": 1}, \"20\": {\"O\": 1}, \"21\": {\"O\": 1}, \"22\": {\"O\": 1}, \"23\": {\"O\": 1}, \"24\": {\"O\": 1}, \"25\": {\"O\": 1}, \"26\": {\"O\": 1}, \"27\": {\"O\": 1}, \"28\": {\"O\": 1}, \"29\": {\"O\": 1}, \"30\": {\"O\": 1}, \"31\": {\"O\": 1}, \"32\": {\"O\": 1}, \"33\": {\"O\": 1}, \"34\": {\"O\": 1}, \"35\": {\"O\": 1}, \"36\": {\"O\": 1}, \"37\": {\"O\": 1}, \"38\": {\"O\": 1}, \"39\": {\"O\": 1}}" n_minim_iter=9 energy=-45150.65601497843 stress="0.0146450069835764 1.3358781956351884e-12 -1.4082258489263157e-12 1.3358781956351884e-12 0.01464500697926095 2.3593549984943585e-12 -1.4082258489263157e-12 2.3593549984943585e-12 0.014645006982629641" free_energy=-45150.65601497843 pbc="T T T"
In      -4.47778716       3.16627367       5.96003859        0       0.00001384      -0.00000978       0.00001695
In       7.59249992       1.23859537       1.66941837        1      -0.00001384       0.00000978      -0.00001695
In       1.36307440      -0.96383915       5.48414686        2      -0.00001384       0.00000978      -0.00001695
In      -1.55735638      -2.20243452       3.81472848        3       0.00000000      -0.00000000       0.00000000
In      -1.36307440       4.26749093       3.57678262        4       0.00001384      -0.00000978      -0.00001695
In       4.86635113      -3.02889555       5.72209272        5       0.00001384       0.00001957      -0.00000000
In      -1.36307440       1.37597348       5.72209272        6       0.00001384       0.00001957      -0.00000000
In      -1.75163837       7.43376459       1.90736424        7      -0.00001384      -0.00001957      -0.00000000
In       4.47778716       0.13737811       4.05267435        8      -0.00001384       0.00000978       0.00001695
In      -1.55735638       4.40486904      -0.00000000        9      -0.00000000      -0.00000000       0.00000000
In       4.47778716       6.74468166       0.23794586       10      -0.00001384       0.00000978       0.00001695
In      -1.36307440      -2.33981262       7.39151110       11       0.00001384      -0.00000978      -0.00001695
In       4.47778716       3.02889556       1.90736424       12      -0.00001384      -0.00001957      -0.00000000
In       1.75163837       5.36870819       2.14531010       13       0.00001384      -0.00000978       0.00001695
In       4.67206914       0.00000000      -0.00000000       14      -0.00000000       0.00000000      -0.00000000
In       1.55735638       2.20243452       3.81472848       15       0.00000000      -0.00000000      -0.00000000
O        0.84838801       4.40915995       4.15485356       16       0.00002498       0.00000000      -0.00000276
O       -2.26632476       3.59606328       5.54831414       17       0.00002498      -0.00000239       0.00000138
O       -0.47570787       2.32990593       0.11190603       18       0.00000607       0.00001098      -0.00002178
O       -0.84838801      -0.80451484       2.07371074       19      -0.00002498      -0.00000239      -0.00000138
O        4.14584255       5.27399285       1.96180470       20      -0.00001058      -0.00001018       0.00002039
O        2.08358297       3.14045823       1.73358566       21       0.00001058      -0.00002275       0.00000138
O        2.08358297       6.53840366       0.22821904       22       0.00001058       0.00001257       0.00001901
O       -2.35522567       6.27916992       3.92663451       23      -0.00000833      -0.00000938      -0.00002178
O        3.59042063       2.07496311       7.51755093       24      -0.00000607      -0.00001098       0.00002178
O        5.46993843      -1.87430088       3.70282245       25       0.00000833       0.00000938       0.00002178
O        6.70513339       3.46430095       1.85292377       26      -0.00000607      -0.00001337      -0.00002039
O        3.87419986       2.46341480       4.04294753       27      -0.00000833      -0.00001417       0.00001901
O        0.75948710       4.47202239       7.28933189       28      -0.00000833       0.00002355       0.00000276
O        2.35522566      -0.06715335       0.34012508       29       0.00000833      -0.00002355      -0.00000276
O       -3.59042063       0.94056809       5.77653319       30       0.00000607       0.00001337       0.00002039
O        5.38103752       0.80880576       2.08114282       31      -0.00002498       0.00000239      -0.00000138
O        1.03112979       1.26441081       5.89587131       32      -0.00001058       0.00002275      -0.00000138
O        3.59042063      -1.13439502       5.88843922       33      -0.00000607       0.00002435      -0.00000138
O        2.26632475      -0.00429092       3.47460340       34      -0.00002498      -0.00000000       0.00000276
O        1.03112979      -2.13353462       7.40123792       35      -0.00001058      -0.00001257      -0.00001901
O       -0.75948710       1.94145424       3.58650943       36       0.00000833       0.00001417      -0.00001901
O       -1.03112979      -0.86912382       5.66765226       37       0.00001058       0.00001018      -0.00002039
O       -0.47570787       5.53926405       1.74101774       38       0.00000607      -0.00002435       0.00000138
O        3.96310077       5.20938388       5.55574623       39       0.00002498       0.00000239       0.00000138
