40
Lattice="9.065040392355987 7.104927381472517e-10 1.7237108001669005e-15 -3.0216801314551875 8.546602043983007 -1.2306109537037699e-09 -3.0216801304504 -4.273301021281009 7.401574486945699" Properties=species:S:1:pos:R:3:spacegroup_kinds:I:1:forces:R:3 spacegroup="P 1" unit_cell=conventional occupancy="_JSON {\"0\": {\"In\": 1}, \"1\": {\"In\": 1}, \"2\": {\"In\": 1}, \"3\": {\"In\": 1}, \"4\": {\"In\": 1}, \"5\": {\"In\": 1}, \"6\": {\"In\": 1}, \"7\": {\"In\": 1}, \"8\": {\"In\": 1}, \"9\": {\"In\": 1}, \"10\": {\"In\": 1}, \"11\": {\"In\": 1}, \"12\": {\"In\": 1}, \"13\": {\"In\": 1}, \"14\": {\"In\": 1}, \"15\": {\"In\": 1}, \"16\": {\"O\": 1}, \"17\": {\"O\": 1}, \"18\": {\"O\": 1}, \"19\": {\"O\": 1}, \"20\": {\"O\": 1}, \"21\": {\"O\": 1}, \"22\": {\"O\": 1}, \"23\": {\"O\": 1}, \"24\": {\"O\": 1}, \"25\": {\"O\": 1}, \"26\": {\"O\": 1}, \"27\": {\"O\": 1}, \"28\": {\"O\": 1}, \"29\": {\"O\": 1}, \"30\": {\"O\": 1}, \"31\": {\"O\": 1}, \"32\": {\"O\": 1}, \"33\": {\"O\": 1}, \"34\": {\"O\": 1}, \"35\": {\"O\": 1}, \"36\": {\"O\": 1}, \"37\": {\"O\": 1}, \"38\": {\"O\": 1}, \"39\": {\"O\": 1}}" n_minim_iter=6 energy=-45151.36825869441 stress="0.011000391413363168 -1.6775233894401893e-12 -2.9806466209583546e-12 -1.6775233894401893e-12 0.011000391415815698 2.7308588624801966e-12 -2.9806466209583546e-12 2.7308588624801966e-12 0.011000391416040756" free_energy=-45151.36825869441 pbc="T T T"
In      -4.32945708       3.06138846       5.79988137        0      -0.00230659       0.00163101      -0.00282499
In       7.35113721       1.21191256       1.60169311        1       0.00230659      -0.00163101       0.00282499
In       1.30777695      -0.92473795       5.30248036        2       0.00230659      -0.00163101       0.00282499
In      -1.51084007      -2.13665051       3.70078724        3      -0.00000000       0.00000000      -0.00000000
In      -1.30777695       4.12971372       3.45208673        4      -0.00230659       0.00163101       0.00282499
In       4.73558331      -2.91780115       5.55118086        5      -0.00230659      -0.00326202      -0.00000000
In      -1.30777695       1.35549987       5.55118086        6      -0.00230659      -0.00326202       0.00000000
In      -1.71390318       7.19110218       1.85039362        7       0.00230659       0.00326202       0.00000000
In       4.32945708       0.14358731       3.94948775        8       0.00230659      -0.00163101      -0.00282499
In      -1.51084007       4.27330102      -0.00000000        9      -0.00000000       0.00000000      -0.00000000
In       4.32945708       6.55353884       0.24870050       10       0.00230659      -0.00163101      -0.00282499
In      -1.30777695      -2.28023781       7.15287398       11      -0.00230659       0.00163101       0.00282499
In       4.32945708       2.91780116       1.85039362       12       0.00230659       0.00326202       0.00000000
In       1.71390318       5.19803897       2.09909413       13      -0.00230659       0.00163101      -0.00282499
In       4.53252019       0.00000000      -0.00000000       14      -0.00000000       0.00000000       0.00000000
In       1.51084006       2.13665051       3.70078724       15      -0.00000000      -0.00000000      -0.00000000
O        0.87242319       4.27229711       4.03448397       16       0.00205496       0.00056947       0.00014824
O       -2.14925694       3.49446757       5.38520192       17       0.00205496      -0.00015635      -0.00056730
O       -0.44442999       2.28897288       0.07160548       18       0.00107448       0.00053695      -0.00176814
O       -0.87242320      -0.77983737       2.01811140       19      -0.00205496       0.00041312      -0.00041906
O        4.01103459       5.09447984       1.94650591       20      -0.00083240      -0.00143395       0.00134908
O        2.03232566       2.99816686       1.68441467       21       0.00083240      -0.00188531      -0.00056730
O        2.03232566       6.36961401       0.26209124       22       0.00083240       0.00045136       0.00191638
O       -2.30620766       6.06597319       3.77239273       23      -0.00014808      -0.00119201      -0.00176814
O        3.46611012       1.98432815       7.32996900       24      -0.00107448      -0.00053695       0.00176814
O        5.32788778      -1.79267217       3.62918176       25       0.00014808       0.00119201       0.00176814
O        6.48779025       3.34314912       1.75428132       26      -0.00107448      -0.00126278      -0.00134908
O        3.73715260       2.37065185       3.96287848       27      -0.00014808      -0.00093525       0.00191638
O        0.71547247       4.38327803       7.06787776       28      -0.00014808       0.00212726      -0.00014824
O        2.30620765      -0.10997700       0.33369672       29       0.00014808      -0.00212726       0.00014824
O       -3.46611013       0.93015191       5.64729316       30       0.00107448       0.00126278       0.00134908
O        5.17093706       0.77883346       2.01637256       31      -0.00205496       0.00015635       0.00056730
O        0.98935446       1.27513417       5.71715981       32      -0.00083240       0.00188531       0.00056730
O        3.46611012      -1.05417624       5.71889864       33      -0.00107448       0.00179973      -0.00041906
O        2.14925693       0.00100392       3.36709051       34      -0.00205496      -0.00056947      -0.00014824
O        0.98935446      -2.09631298       7.13948324       35      -0.00083240      -0.00045136      -0.00191638
O       -0.71547248       1.90264917       3.43869600       36       0.00014808       0.00093525      -0.00191638
O       -0.98935447      -0.82117882       5.45506857       37       0.00083240       0.00143395      -0.00134908
O       -0.44442999       5.32747727       1.68267584       38       0.00107448      -0.00179973       0.00041906
O        3.89410333       5.05313840       5.38346308       39       0.00205496      -0.00041312       0.00041906
