40
Lattice="8.611011059965119 6.749057068983469e-10 1.2064110238325906e-14 -2.870337020624679 8.118539084273289 -1.1689872593611977e-09 -2.8703370196702274 -4.059269541461728 7.0308610893768435" Properties=species:S:1:pos:R:3:spacegroup_kinds:I:1:forces:R:3 spacegroup="P 1" unit_cell=conventional occupancy="_JSON {\"0\": {\"In\": 1}, \"1\": {\"In\": 1}, \"2\": {\"In\": 1}, \"3\": {\"In\": 1}, \"4\": {\"In\": 1}, \"5\": {\"In\": 1}, \"6\": {\"In\": 1}, \"7\": {\"In\": 1}, \"8\": {\"In\": 1}, \"9\": {\"In\": 1}, \"10\": {\"In\": 1}, \"11\": {\"In\": 1}, \"12\": {\"In\": 1}, \"13\": {\"In\": 1}, \"14\": {\"In\": 1}, \"15\": {\"In\": 1}, \"16\": {\"O\": 1}, \"17\": {\"O\": 1}, \"18\": {\"O\": 1}, \"19\": {\"O\": 1}, \"20\": {\"O\": 1}, \"21\": {\"O\": 1}, \"22\": {\"O\": 1}, \"23\": {\"O\": 1}, \"24\": {\"O\": 1}, \"25\": {\"O\": 1}, \"26\": {\"O\": 1}, \"27\": {\"O\": 1}, \"28\": {\"O\": 1}, \"29\": {\"O\": 1}, \"30\": {\"O\": 1}, \"31\": {\"O\": 1}, \"32\": {\"O\": 1}, \"33\": {\"O\": 1}, \"34\": {\"O\": 1}, \"35\": {\"O\": 1}, \"36\": {\"O\": 1}, \"37\": {\"O\": 1}, \"38\": {\"O\": 1}, \"39\": {\"O\": 1}}" n_minim_iter=3 energy=-45150.198254073264 stress="-0.06460936078606347 -1.8491855864475237e-12 2.832026714917386e-12 -1.8491855864475237e-12 -0.06460936078955011 -1.2908893551634086e-12 2.832026714917386e-12 -1.2908893551634086e-12 -0.06460936078662105" free_energy=-45150.198254073264 pbc="T T T"
In      -4.12673649       2.91804336       5.49209228        0      -0.00313766       0.00221866      -0.00384283
In       6.99707351       1.14122619       1.53876881        1       0.00313766      -0.00221866       0.00384283
In       1.25639947      -0.88840858       5.05419935        2       0.00313766      -0.00221866       0.00384283
In      -1.43516851      -2.02963477       3.51543054        3       0.00000000      -0.00000000      -0.00000000
In      -1.25639947       3.93286075       3.29648408        4      -0.00313766       0.00221866       0.00384283
In       4.48427457      -2.79163456       5.27314581        5      -0.00313766      -0.00443732       0.00000000
In      -1.25639947       1.26763499       5.27314581        6      -0.00313766      -0.00443732      -0.00000000
In      -1.61393755       6.85090410       1.75771527        7       0.00313766       0.00443732       0.00000000
In       4.12673649       0.12640880       3.73437700        8       0.00313766      -0.00221866      -0.00384283
In      -1.43516851       4.05926954      -0.00000000        9      -0.00000000      -0.00000000       0.00000000
In       4.12673649       6.21531311       0.21894646       10       0.00313766      -0.00221866      -0.00384283
In      -1.25639947      -2.15604357       6.81191462       11      -0.00313766       0.00221866       0.00384283
In       4.12673649       2.79163456       1.75771527       12       0.00313766       0.00443732       0.00000000
In       1.61393755       4.94767813       1.97666173       13      -0.00313766       0.00221866      -0.00384283
In       4.30550553       0.00000000      -0.00000000       14       0.00000000       0.00000000      -0.00000000
In       1.43516851       2.02963477       3.51543054       15       0.00000000      -0.00000000       0.00000000
O        0.86044875       4.06311086       3.80079421       16       0.00468402      -0.00460056      -0.00499792
O       -2.00988827       3.28966369       5.12713730       17       0.00468402      -0.00202805       0.00648316
O       -0.43515348       2.17615804       0.02492457       18      -0.00468817       0.00459909      -0.00499538
O       -0.86044875      -0.76576454       1.89707043       19      -0.00468402      -0.00662861       0.00148524
O        3.77148742       4.83942429       1.87214586       20      -0.00347340       0.00374452       0.00648062
O        1.96918661       2.82802104       1.61170676       21       0.00347340      -0.00374012       0.00648316
O        1.96918661       6.07067279       0.26043910       22       0.00347340       0.00748464      -0.00000254
O       -2.19675264       5.77378494       3.54035511       23      -0.00589879       0.00288702      -0.00499538
O        3.30549050       1.88311150       7.00593651       24       0.00468817      -0.00459909       0.00499538
O        5.06708966      -1.71451539       3.49050597       25       0.00589879      -0.00288702       0.00499538
O        6.17582752       3.13929911       1.64328468       26       0.00468817      -0.00202658      -0.00648062
O        3.54392140       2.20877977       3.77586964       27      -0.00589879      -0.00576963      -0.00000254
O        0.67358438       4.19524392       6.74549742       28      -0.00589879       0.00288261       0.00499792
O        2.19675264      -0.13597437       0.28536367       29       0.00589879      -0.00288261      -0.00499792
O       -3.30549050       0.91997044       5.38757640       30      -0.00468817       0.00202658       0.00648062
O        4.88022529       0.76960586       1.90372378       31      -0.00468402       0.00202805      -0.00648316
O        0.90115040       1.23124850       5.41915433       32      -0.00347340       0.00374012      -0.00648316
O        3.30549050      -0.96314106       5.41250097       33       0.00468817       0.00662567       0.00148524
O        2.00988827      -0.00384131       3.23006687       34      -0.00468402       0.00460056       0.00499792
O        0.90115040      -2.01140325       6.77042199       35      -0.00347340      -0.00748464       0.00000254
O       -0.67358438       1.85048977       3.25499144       36       0.00589879       0.00576963       0.00000254
O       -0.90115041      -0.78015475       5.15871523       37       0.00347340      -0.00374452      -0.00648062
O       -0.43515348       5.02241061       1.61836011       38      -0.00468817      -0.00662567      -0.00148524
O        3.73078577       4.82503409       5.13379065       39       0.00468402       0.00662861      -0.00148524
