40
Lattice="9.411364620455503 7.376371590587146e-10 2.2892444400935068e-14 -3.1371215408472857 8.87311965754511 -1.2776353964904008e-09 -3.1371215398041272 -4.436559828034917 7.6843470351048895" Properties=species:S:1:pos:R:3:spacegroup_kinds:I:1:forces:R:3 spacegroup="P 1" unit_cell=conventional occupancy="_JSON {\"0\": {\"In\": 1}, \"1\": {\"In\": 1}, \"2\": {\"In\": 1}, \"3\": {\"In\": 1}, \"4\": {\"In\": 1}, \"5\": {\"In\": 1}, \"6\": {\"In\": 1}, \"7\": {\"In\": 1}, \"8\": {\"In\": 1}, \"9\": {\"In\": 1}, \"10\": {\"In\": 1}, \"11\": {\"In\": 1}, \"12\": {\"In\": 1}, \"13\": {\"In\": 1}, \"14\": {\"In\": 1}, \"15\": {\"In\": 1}, \"16\": {\"O\": 1}, \"17\": {\"O\": 1}, \"18\": {\"O\": 1}, \"19\": {\"O\": 1}, \"20\": {\"O\": 1}, \"21\": {\"O\": 1}, \"22\": {\"O\": 1}, \"23\": {\"O\": 1}, \"24\": {\"O\": 1}, \"25\": {\"O\": 1}, \"26\": {\"O\": 1}, \"27\": {\"O\": 1}, \"28\": {\"O\": 1}, \"29\": {\"O\": 1}, \"30\": {\"O\": 1}, \"31\": {\"O\": 1}, \"32\": {\"O\": 1}, \"33\": {\"O\": 1}, \"34\": {\"O\": 1}, \"35\": {\"O\": 1}, \"36\": {\"O\": 1}, \"37\": {\"O\": 1}, \"38\": {\"O\": 1}, \"39\": {\"O\": 1}}" n_minim_iter=6 energy=-45150.425015972774 stress="0.01913296844779625 1.4970126006038563e-13 4.1362132593037747e-13 1.4970126006038563e-13 0.019132968450496564 -2.2011949121447617e-12 4.1362132593037747e-13 -2.2011949121447617e-12 0.019132968449613295" free_energy=-45150.425015972774 pbc="T T T"
In      -4.51098717       3.18974962       6.00171215        0       0.00256381      -0.00181289       0.00314001
In       7.64810871       1.24681021       1.68263488        1      -0.00256381       0.00181289      -0.00314001
In       1.37386563      -0.97146970       5.52480840        2      -0.00256381       0.00181289      -0.00314001
In      -1.56856077      -2.21827991       3.84217352        3      -0.00000000       0.00000000      -0.00000000
In      -1.37386563       4.29888958       3.60372164        4       0.00256381      -0.00181289      -0.00314001
In       4.90037745      -3.05207936       5.76326027        5       0.00256381       0.00362577       0.00000000
In      -1.37386563       1.38448047       5.76326027        6       0.00256381       0.00362577      -0.00000000
In      -1.76325591       7.48863919       1.92108676        7      -0.00256381      -0.00362577       0.00000000
In       4.51098717       0.13767026       4.08062539        8      -0.00256381       0.00181289       0.00314001
In      -1.56856077       4.43655983      -0.00000000        9       0.00000000      -0.00000000       0.00000000
In       4.51098717       6.79251000       0.23845187       10      -0.00256381       0.00181289       0.00314001
In      -1.37386563      -2.35595017       7.44589516       11       0.00256381      -0.00181289      -0.00314001
In       4.51098717       3.05207937       1.92108676       12      -0.00256381      -0.00362577      -0.00000000
In       1.76325591       5.40802953       2.15953863       13       0.00256381      -0.00181289       0.00314001
In       4.70568231       0.00000000      -0.00000000       14       0.00000000       0.00000000      -0.00000000
In       1.56856077       2.21827992       3.84217351       15       0.00000000      -0.00000000      -0.00000000
O        0.85496383       4.44195679       4.16595694       16       0.00300538      -0.00186376      -0.00068484
O       -2.28215771       3.60512607       5.59669466       17       0.00300538       0.00033879       0.00195649
O       -0.49380703       2.34057117       0.10262095       18      -0.00043597       0.00277219      -0.00225828
O       -0.85496384      -0.82603680       2.07830457       19      -0.00300538      -0.00152497       0.00127164
O        4.15966468       5.32184487       1.97568362       20      -0.00068238       0.00022115       0.00352993
O        2.11457839       3.16821015       1.75452114       21       0.00068238      -0.00294643       0.00195649
O        2.11457839       6.59019455       0.22116247       22       0.00068238       0.00316758       0.00157344
O       -2.37131401       6.34021508       3.94479446       23      -0.00275897      -0.00051303      -0.00225828
O        3.63092856       2.09598866       7.58172608       24       0.00043597      -0.00277219       0.00225828
O        5.50843554      -1.90365525       3.73955257       25       0.00275897       0.00051303       0.00225828
O        6.76805010       3.47743785       1.86648990       26       0.00043597      -0.00056964      -0.00352993
O        3.90292907       2.46446460       4.06333599       27      -0.00275897      -0.00169922       0.00157344
O        0.76580753       4.50499981       7.36056361       28      -0.00275897       0.00221225       0.00068484
O        2.37131400      -0.06843998       0.32378342       29       0.00275897      -0.00221225      -0.00068484
O       -3.63092857       0.95912198       5.81785713       30      -0.00043597       0.00056964       0.00352993
O        5.41927924       0.83143377       2.08765237       31      -0.00300538      -0.00033879      -0.00195649
O        1.02254314       1.26834969       5.92982589       32      -0.00068238       0.00294643      -0.00195649
O        3.63092856      -1.13686667       5.92047808       33       0.00043597       0.00334183       0.00127164
O        2.28215770      -0.00539696       3.51839009       34      -0.00300538       0.00186376       0.00068484
O        1.02254314      -2.15363472       7.46318456       35      -0.00068238      -0.00316758      -0.00157344
O       -0.76580754       1.97209524       3.62101104       36       0.00275897       0.00169922      -0.00157344
O       -1.02254315      -0.88528504       5.70866341       37       0.00068238      -0.00022115      -0.00352993
O       -0.49380703       5.57342651       1.76386895       38      -0.00043597      -0.00334183      -0.00127164
O        3.99208537       5.26259664       5.60604246       39       0.00300538       0.00152497      -0.00127164
