40
Lattice="8.364846197037846 6.556133550411124e-10 1.1872236931621595e-14 -2.788282066297401 7.886452625792084 -1.135576877421951e-09 -2.788282065370231 -3.943226312240415 6.829868320435478" Properties=species:S:1:pos:R:3:spacegroup_kinds:I:1:forces:R:3 spacegroup="P 1" unit_cell=conventional occupancy="_JSON {\"0\": {\"In\": 1}, \"1\": {\"In\": 1}, \"2\": {\"In\": 1}, \"3\": {\"In\": 1}, \"4\": {\"In\": 1}, \"5\": {\"In\": 1}, \"6\": {\"In\": 1}, \"7\": {\"In\": 1}, \"8\": {\"In\": 1}, \"9\": {\"In\": 1}, \"10\": {\"In\": 1}, \"11\": {\"In\": 1}, \"12\": {\"In\": 1}, \"13\": {\"In\": 1}, \"14\": {\"In\": 1}, \"15\": {\"In\": 1}, \"16\": {\"O\": 1}, \"17\": {\"O\": 1}, \"18\": {\"O\": 1}, \"19\": {\"O\": 1}, \"20\": {\"O\": 1}, \"21\": {\"O\": 1}, \"22\": {\"O\": 1}, \"23\": {\"O\": 1}, \"24\": {\"O\": 1}, \"25\": {\"O\": 1}, \"26\": {\"O\": 1}, \"27\": {\"O\": 1}, \"28\": {\"O\": 1}, \"29\": {\"O\": 1}, \"30\": {\"O\": 1}, \"31\": {\"O\": 1}, \"32\": {\"O\": 1}, \"33\": {\"O\": 1}, \"34\": {\"O\": 1}, \"35\": {\"O\": 1}, \"36\": {\"O\": 1}, \"37\": {\"O\": 1}, \"38\": {\"O\": 1}, \"39\": {\"O\": 1}}" n_minim_iter=4 energy=-45147.12272268007 stress="-0.08690909208447616 1.0766110046109087e-12 2.1311051489829704e-12 1.0766110046109087e-12 -0.08690909208439437 -1.5024565132536494e-12 2.1311051489829704e-12 -1.5024565132536494e-12 -0.08690909208168371" free_energy=-45147.12272268007 pbc="T T T"
In      -4.01578135       2.83958622       5.32649487        0      -0.00220920       0.00156214      -0.00270571
In       6.80406341       1.10364009       1.50337345        1       0.00220920      -0.00156214       0.00270571
In       1.22749928      -0.86797306       4.91830761        2       0.00220920      -0.00156214       0.00270571
In      -1.39414103      -1.97161315       3.41493416        3       0.00000000       0.00000000      -0.00000000
In      -1.22749928       3.82539280       3.21084053        4      -0.00220920       0.00156214       0.00270571
In       4.34906485      -2.72175271       5.12240124        5      -0.00220920      -0.00312428       0.00000000
In      -1.22749928       1.22147360       5.12240124        6      -0.00220920      -0.00312428       0.00000000
In      -1.56078279       6.66497903       1.70746708        7       0.00220920       0.00312428       0.00000000
In       4.01578135       0.11783351       3.61902779        8       0.00220920      -0.00156214      -0.00270571
In      -1.39414103       3.94322631      -0.00000000        9      -0.00000000      -0.00000000      -0.00000000
In       4.01578135       6.03267298       0.20409363       10       0.00220920      -0.00156214      -0.00270571
In      -1.22749928      -2.08944667       6.62577469       11      -0.00220920       0.00156214       0.00270571
In       4.01578135       2.72175271       1.70746708       12       0.00220920       0.00312428      -0.00000000
In       1.56078278       4.81119938       1.91156071       13      -0.00220920       0.00156214      -0.00270571
In       4.18242310       0.00000000      -0.00000000       14      -0.00000000      -0.00000000       0.00000000
In       1.39414103       1.97161316       3.41493416       15       0.00000000      -0.00000000      -0.00000000
O        0.79771050       3.94261395       3.70833877       16      -0.00080352       0.00014275      -0.00606146
O       -1.99057157       3.21182177       4.97622926       17      -0.00080352      -0.00532075       0.00290710
O       -0.42424867       2.10426422       0.06470688       18      -0.00514970      -0.00224753      -0.00241587
O       -0.79771050      -0.73201691       1.85469971       19       0.00080352      -0.00517800      -0.00315436
O        3.69165845       4.71260176       1.78999283       20      -0.00474861       0.00378320      -0.00073849
O        1.88490567       2.77773477       1.56129510       21       0.00474861       0.00253115       0.00290710
O        1.88490567       5.87809330       0.22869773       22       0.00474861       0.00125205      -0.00364559
O       -2.12533556       5.61340354       3.47964104       23       0.00040243       0.00560437      -0.00241587
O        3.21253073       1.83896210       6.76516144       24       0.00514970       0.00224753       0.00241587
O        4.91361762      -1.67017723       3.35022728       25      -0.00040243      -0.00560437       0.00241587
O        6.00081280       3.07978307       1.62494133       26       0.00514970      -0.00321597       0.00073849
O        3.45122858       2.17836892       3.64363189       27       0.00040243      -0.00489439      -0.00364559
O        0.66294651       4.03790648       6.53646371       28       0.00040243      -0.00070998       0.00606146
O        2.12533555      -0.09468016       0.29340461       29      -0.00040243       0.00070998      -0.00606146
O       -3.21253073       0.86344325       5.20492699       30      -0.00514970       0.00321597      -0.00073849
O        4.77885363       0.73140455       1.85363906       31       0.00080352       0.00532075      -0.00290710
O        0.90337639       1.16549154       5.26857322       32      -0.00474862      -0.00253115      -0.00290710
O        3.21253073      -0.97551885       5.26963387       33       0.00514970       0.00096844      -0.00315436
O        1.99057157       0.00061237       3.12152955       34       0.00080352      -0.00014275       0.00606146
O        0.90337639      -1.93486699       6.60117059       35      -0.00474861      -0.00125205       0.00364559
O       -0.66294651       1.76485739       3.18623642       36      -0.00040243       0.00489439       0.00364559
O       -0.90337639      -0.76937545       5.03987549       37       0.00474861      -0.00378320       0.00073849
O       -0.42424867       4.91874516       1.56023445       38      -0.00514970      -0.00096844       0.00315436
O        3.58599256       4.67524323       4.97516861       39      -0.00080352       0.00517800       0.00315436
