20
Lattice="5.645166034529802 -1.3670867387890152e-61 2.7530769474350997e-43 -9.53519749646167e-62 5.713112888686967 -3.4689178828985615e-18 2.440475375561033e-43 -6.0905476237503135e-18 8.168398445188506" Properties=species:S:1:pos:R:3:spacegroup_kinds:I:1:forces:R:3 spacegroup="P 1" unit_cell=conventional occupancy="_JSON {\"0\": {\"In\": 1}, \"1\": {\"In\": 1}, \"2\": {\"In\": 1}, \"3\": {\"In\": 1}, \"4\": {\"In\": 1}, \"5\": {\"In\": 1}, \"6\": {\"In\": 1}, \"7\": {\"In\": 1}, \"8\": {\"O\": 1}, \"9\": {\"O\": 1}, \"10\": {\"O\": 1}, \"11\": {\"O\": 1}, \"12\": {\"O\": 1}, \"13\": {\"O\": 1}, \"14\": {\"O\": 1}, \"15\": {\"O\": 1}, \"16\": {\"O\": 1}, \"17\": {\"O\": 1}, \"18\": {\"O\": 1}, \"19\": {\"O\": 1}}" n_minim_iter=5 energy=-22574.917869593908 stress="0.013290311933669611 -5.318470565402267e-13 -2.0234218044621208e-14 -5.318470565402267e-13 0.013302468760597399 7.832550081334261e-13 -2.0234218044621208e-14 7.832550081334261e-13 0.01323608243077213" free_energy=-22574.917869593908 pbc="T T T"
In       1.39901384       3.01114536       0.94045092        0      -0.00364661       0.00006862      -0.00317463
In       1.42356918       0.15458892       3.14374831        1       0.00364661       0.00006862       0.00317463
In       1.42356918       2.70196753       5.02465014        2       0.00364661      -0.00006862      -0.00317463
In       1.39901384       5.55852397       7.22794753        3      -0.00364661      -0.00006862       0.00317463
In       4.24615220       2.70196753       7.22794753        4       0.00364661      -0.00006862       0.00317463
In       4.22159685       5.55852397       5.02465014        5      -0.00364661      -0.00006862      -0.00317463
In       4.22159685       3.01114536       3.14374831        6      -0.00364661       0.00006862       0.00317463
In       4.24615220       0.15458892       0.94045092        7       0.00364661       0.00006862      -0.00317463
O        2.20341888       3.44744769       6.93775312        8      -0.00225309       0.00006889      -0.00101795
O        0.61916414       0.59089125       5.31484455        9       0.00225309       0.00006889       0.00101795
O        0.61916414       2.26566519       2.85355390       10       0.00225309      -0.00006889      -0.00101795
O        2.20341888       5.12222164       1.23064532       11      -0.00225309      -0.00006889       0.00101795
O        3.44174716       2.26566519       1.23064532       12       0.00225309      -0.00006889       0.00101795
O        5.02600189       5.12222164       2.85355390       13      -0.00225309      -0.00006889      -0.00101795
O        5.02600189       3.44744769       5.31484455       14      -0.00225309       0.00006889       0.00101795
O        3.44174716       0.59089125       6.93775312       15       0.00225309       0.00006889      -0.00101795
O        5.40918762       4.28483467      -0.00000000       16       0.00391141       0.00000000      -0.00000000
O        3.05856143       1.42827822       4.08419922       17      -0.00391141      -0.00000000      -0.00000000
O        0.23597842       1.42827822      -0.00000000       18      -0.00391141       0.00000000       0.00000000
O        2.58660460       4.28483467       4.08419922       19       0.00391141       0.00000000       0.00000000
