20
Lattice="5.591080677327922 -1.2910750269336847e-62 9.970087611079426e-44 5.928682243271602e-63 5.684635507075158 4.036591275984004e-19 -1.4420071283090776e-43 -5.742173961361212e-19 8.08656704550776" Properties=species:S:1:pos:R:3:spacegroup_kinds:I:1:forces:R:3 spacegroup="P 1" unit_cell=conventional occupancy="_JSON {\"0\": {\"In\": 1}, \"1\": {\"In\": 1}, \"2\": {\"In\": 1}, \"3\": {\"In\": 1}, \"4\": {\"In\": 1}, \"5\": {\"In\": 1}, \"6\": {\"In\": 1}, \"7\": {\"In\": 1}, \"8\": {\"O\": 1}, \"9\": {\"O\": 1}, \"10\": {\"O\": 1}, \"11\": {\"O\": 1}, \"12\": {\"O\": 1}, \"13\": {\"O\": 1}, \"14\": {\"O\": 1}, \"15\": {\"O\": 1}, \"16\": {\"O\": 1}, \"17\": {\"O\": 1}, \"18\": {\"O\": 1}, \"19\": {\"O\": 1}}" n_minim_iter=1 energy=-22574.95974157222 stress="-0.0002612430000428402 3.606822405334084e-13 1.373154264490075e-13 3.606822405334084e-13 -0.00013470917064890804 1.4154081308401812e-13 1.373154264490075e-13 1.4154081308401812e-13 1.0567836651940122e-05" free_energy=-22574.95974157222 pbc="T T T"
In       1.38690438       3.00345190       0.92703583        0      -0.00262147      -0.00315246      -0.00516029
In       1.40863596       0.16113415       3.11624769        1       0.00262147      -0.00315246       0.00516029
In       1.40863596       2.68118361       4.97031935        2       0.00262147       0.00315246      -0.00516029
In       1.38690438       5.52350136       7.15953121        3      -0.00262147       0.00315246       0.00516029
In       4.20417630       2.68118361       7.15953121        4       0.00262147       0.00315246       0.00516029
In       4.18244472       5.52350136       4.97031935        5      -0.00262147       0.00315246      -0.00516029
In       4.18244472       3.00345190       3.11624769        6      -0.00262147      -0.00315246       0.00516029
In       4.20417630       0.16113415       0.92703583        7       0.00262147      -0.00315246      -0.00516029
O        2.18169815       3.43336714       6.86793173        8      -0.00454604      -0.00024137       0.00214695
O        0.61384219       0.59104939       5.26191884        9       0.00454604      -0.00024137      -0.00214695
O        0.61384219       2.25126837       2.82464821       10       0.00454604       0.00024136       0.00214695
O        2.18169815       5.09358612       1.21863531       11      -0.00454604       0.00024137      -0.00214695
O        3.40938253       2.25126837       1.21863531       12       0.00454604       0.00024137      -0.00214695
O        4.97723849       5.09358612       2.82464821       13      -0.00454604       0.00024137       0.00214695
O        4.97723849       3.43336714       5.26191884       14      -0.00454604      -0.00024137      -0.00214695
O        3.40938253       0.59104939       6.86793173       15       0.00454604      -0.00024137       0.00214695
O        5.35769352       4.26347663      -0.00000000       16       0.00338928       0.00000000       0.00000000
O        3.02892749       1.42115888       4.04328352       17      -0.00338928       0.00000000       0.00000000
O        0.23338715       1.42115888      -0.00000000       18      -0.00338928       0.00000000      -0.00000000
O        2.56215318       4.26347663       4.04328352       19       0.00338928      -0.00000000       0.00000000
