20
Lattice="5.301909054469579 -5.316354700446123e-59 5.008430570647048e-43 -3.1001315768536525e-60 5.711270642431073 3.21830074891933e-16 -2.411997047696726e-43 -1.8001582909014967e-16 7.639062598565257" Properties=species:S:1:pos:R:3:spacegroup_kinds:I:1:forces:R:3 spacegroup="P 1" unit_cell=conventional occupancy="_JSON {\"0\": {\"In\": 1}, \"1\": {\"In\": 1}, \"2\": {\"In\": 1}, \"3\": {\"In\": 1}, \"4\": {\"In\": 1}, \"5\": {\"In\": 1}, \"6\": {\"In\": 1}, \"7\": {\"In\": 1}, \"8\": {\"O\": 1}, \"9\": {\"O\": 1}, \"10\": {\"O\": 1}, \"11\": {\"O\": 1}, \"12\": {\"O\": 1}, \"13\": {\"O\": 1}, \"14\": {\"O\": 1}, \"15\": {\"O\": 1}, \"16\": {\"O\": 1}, \"17\": {\"O\": 1}, \"18\": {\"O\": 1}, \"19\": {\"O\": 1}}" n_minim_iter=11 energy=-22574.457753892362 stress="-0.036677068079925976 -1.6231255999183566e-12 1.1443939341847185e-14 -1.6231255999183566e-12 -0.036600181585775785 -7.119997084256164e-13 1.1443939341847185e-14 -7.119997084256164e-13 -0.036585225417140314" free_energy=-22574.457753892362 pbc="T T T"
In       1.31576955       3.06344270       0.89599179        0       0.00491311      -0.00326467       0.00327433
In       1.33518498       0.20780738       2.92353951        1      -0.00491311      -0.00326467      -0.00327433
In       1.33518498       2.64782794       4.71552309        2      -0.00491311       0.00326467       0.00327433
In       1.31576955       5.50346326       6.74307081        3       0.00491311       0.00326467      -0.00327433
In       3.98613951       2.64782794       6.74307081        4      -0.00491311       0.00326467      -0.00327433
In       3.96672408       5.50346326       4.71552309        5       0.00491311       0.00326467       0.00327433
In       3.96672408       3.06344270       2.92353951        6       0.00491311      -0.00326467      -0.00327433
In       3.98613951       0.20780738       0.89599179        7      -0.00491311      -0.00326467       0.00327433
O        2.05322674       3.44954366       6.51257042        8      -0.00189260      -0.00216289       0.00348134
O        0.59772778       0.59390834       4.94602348        9       0.00189260      -0.00216289      -0.00348134
O        0.59772778       2.26172698       2.69303912       10       0.00189260       0.00216289       0.00348134
O        2.05322674       5.11736230       1.12649218       11      -0.00189260       0.00216289      -0.00348134
O        3.24868231       2.26172698       1.12649218       12       0.00189260       0.00216289      -0.00348134
O        4.70418127       5.11736230       2.69303912       13      -0.00189260       0.00216289       0.00348134
O        4.70418127       3.44954366       4.94602348       14      -0.00189260      -0.00216289      -0.00348134
O        3.24868231       0.59390834       6.51257042       15       0.00189260      -0.00216289       0.00348134
O        5.03579971       4.28345298       0.00000000       16       0.00171049       0.00000000      -0.00000000
O        2.91706387       1.42781766       3.81953130       17      -0.00171049       0.00000000       0.00000000
O        0.26610935       1.42781766       0.00000000       18      -0.00171049       0.00000000      -0.00000000
O        2.38484518       4.28345298       3.81953130       19       0.00171049      -0.00000000       0.00000000
