20
Lattice="5.690693533176459 1.95891773156093e-61 -1.7002105774801074e-43 -6.995207292488653e-62 5.7591883694995625 4.2941846279851165e-18 2.4601574785635722e-43 -6.139667064525237e-18 8.23427547110483" Properties=species:S:1:pos:R:3:spacegroup_kinds:I:1:forces:R:3 spacegroup="P 1" unit_cell=conventional occupancy="_JSON {\"0\": {\"In\": 1}, \"1\": {\"In\": 1}, \"2\": {\"In\": 1}, \"3\": {\"In\": 1}, \"4\": {\"In\": 1}, \"5\": {\"In\": 1}, \"6\": {\"In\": 1}, \"7\": {\"In\": 1}, \"8\": {\"O\": 1}, \"9\": {\"O\": 1}, \"10\": {\"O\": 1}, \"11\": {\"O\": 1}, \"12\": {\"O\": 1}, \"13\": {\"O\": 1}, \"14\": {\"O\": 1}, \"15\": {\"O\": 1}, \"16\": {\"O\": 1}, \"17\": {\"O\": 1}, \"18\": {\"O\": 1}, \"19\": {\"O\": 1}}" n_minim_iter=1 energy=-22574.78409470716 stress="0.02801405849427913 1.0220584826973193e-13 1.9373681740904341e-13 1.0220584826973193e-13 0.02858888822526038 2.226454053627782e-13 1.9373681740904341e-13 2.226454053627782e-13 0.028090976510043907" free_energy=-22574.78409470716 pbc="T T T"
In       1.41029669       3.03542984       0.94803553        0      -0.01765618      -0.06442028       0.03546297
In       1.43505007       0.15583566       3.16910221        1       0.01765618      -0.06442028      -0.03546297
In       1.43505007       2.72375853       5.06517326        2       0.01765618       0.06442028       0.03546297
In       1.41029669       5.60335271       7.28623994        3      -0.01765618       0.06442028      -0.03546297
In       4.28039684       2.72375853       7.28623994        4       0.01765618       0.06442028      -0.03546297
In       4.25564346       5.60335271       5.06517326        5      -0.01765618       0.06442028       0.03546297
In       4.25564346       3.03542984       3.16910221        6      -0.01765618      -0.06442028      -0.03546297
In       4.28039684       0.15583566       0.94803553        7       0.01765618      -0.06442028       0.03546297
O        2.22118915       3.47525089       6.99370516        8       0.01520263      -0.04445622      -0.02949481
O        0.62415762       0.59565671       5.35770805        9      -0.01520263      -0.04445622       0.02949481
O        0.62415762       2.28393748       2.87656742       10      -0.01520263       0.04445622      -0.02949481
O        2.22118915       5.16353166       1.24057031       11       0.01520263       0.04445622       0.02949481
O        3.46950438       2.28393748       1.24057031       12      -0.01520263       0.04445622       0.02949481
O        5.06653592       5.16353166       2.87656742       13       0.01520263       0.04445622      -0.02949481
O        5.06653592       3.47525089       5.35770805       14       0.01520263      -0.04445622       0.02949481
O        3.46950438       0.59565671       6.99370516       15      -0.01520263      -0.04445622      -0.02949481
O        5.45281198       4.31939128      -0.00000000       16      -0.07034642      -0.00000000      -0.00000000
O        3.08322832       1.43979709       4.11713774       17       0.07034642       0.00000000      -0.00000000
O        0.23788155       1.43979709      -0.00000000       18       0.07034642      -0.00000000      -0.00000000
O        2.60746522       4.31939128       4.11713774       19      -0.07034642      -0.00000000      -0.00000000
20
Lattice="5.701027060571723 2.7456208112819856e-61 -2.027929280700676e-43 -6.961686361619108e-62 5.742016486211412 2.250052928323558e-18 2.466197351886107e-43 -9.056822581848844e-18 8.243930761316408" Properties=species:S:1:pos:R:3:spacegroup_kinds:I:1:forces:R:3 spacegroup="P 1" unit_cell=conventional occupancy="_JSON {\"0\": {\"In\": 1}, \"1\": {\"In\": 1}, \"2\": {\"In\": 1}, \"3\": {\"In\": 1}, \"4\": {\"In\": 1}, \"5\": {\"In\": 1}, \"6\": {\"In\": 1}, \"7\": {\"In\": 1}, \"8\": {\"O\": 1}, \"9\": {\"O\": 1}, \"10\": {\"O\": 1}, \"11\": {\"O\": 1}, \"12\": {\"O\": 1}, \"13\": {\"O\": 1}, \"14\": {\"O\": 1}, \"15\": {\"O\": 1}, \"16\": {\"O\": 1}, \"17\": {\"O\": 1}, \"18\": {\"O\": 1}, \"19\": {\"O\": 1}}" n_minim_iter=2 energy=-22574.78570560909 stress="0.028845988023687166 8.216988802737414e-13 -4.674382519225214e-14 8.216988802737414e-13 0.026243291579016215 2.254412415829445e-13 -4.674382519225214e-14 2.254412415829445e-13 0.02826586672384051" free_energy=-22574.78570560909 pbc="T T T"
In       1.41231025       3.02439176       0.95024583        0      -0.00280114      -0.04863869       0.03252206
In       1.43820328       0.15338352       3.17171955        1       0.00280114      -0.04863869      -0.03252206
In       1.43820328       2.71762472       5.07221121        2       0.00280114       0.04863869       0.03252206
In       1.41231025       5.58863297       7.29368493        3      -0.00280114       0.04863869      -0.03252206
In       4.28871681       2.71762472       7.29368493        4       0.00280114       0.04863869      -0.03252206
In       4.26282378       5.58863297       5.07221121        5      -0.00280114       0.04863869       0.03252206
In       4.26282378       3.02439176       3.17171955        6      -0.00280114      -0.04863869      -0.03252206
In       4.28871681       0.15338352       0.95024583        7       0.00280114      -0.04863869       0.03252206
O        2.22569382       3.46351735       7.00099203        8       0.00783781      -0.03346391      -0.01385026
O        0.62481971       0.59250911       5.36490412        9      -0.00783781      -0.03346391       0.01385026
O        0.62481971       2.27849913       2.87902665       10      -0.00783781       0.03346391      -0.01385026
O        2.22569382       5.14950738       1.24293874       11       0.00783781       0.03346391       0.01385026
O        3.47533324       2.27849913       1.24293874       12      -0.00783781       0.03346391       0.01385026
O        5.07620735       5.14950738       2.87902665       13       0.00783781       0.03346391      -0.01385026
O        5.07620735       3.46351735       5.36490412       14       0.00783781      -0.03346391       0.01385026
O        3.47533324       0.59250911       7.00099203       15      -0.00783781      -0.03346391      -0.01385026
O        5.46053278       4.30651236      -0.00000000       16      -0.03961162       0.00000000       0.00000000
O        3.09100781       1.43550412       4.12196538       17       0.03961162       0.00000000      -0.00000000
O        0.24049428       1.43550412      -0.00000000       18       0.03961162       0.00000000       0.00000000
O        2.61001925       4.30651236       4.12196538       19      -0.03961162       0.00000000      -0.00000000
20
Lattice="5.692202478489992 2.1975420818436696e-61 -2.0255816646748866e-43 -6.958421773430738e-62 5.752137656153097 3.816652295424703e-18 2.4650799889493648e-43 -6.832238544388352e-18 8.242183179324819" Properties=species:S:1:pos:R:3:spacegroup_kinds:I:1:forces:R:3 spacegroup="P 1" unit_cell=conventional occupancy="_JSON {\"0\": {\"In\": 1}, \"1\": {\"In\": 1}, \"2\": {\"In\": 1}, \"3\": {\"In\": 1}, \"4\": {\"In\": 1}, \"5\": {\"In\": 1}, \"6\": {\"In\": 1}, \"7\": {\"In\": 1}, \"8\": {\"O\": 1}, \"9\": {\"O\": 1}, \"10\": {\"O\": 1}, \"11\": {\"O\": 1}, \"12\": {\"O\": 1}, \"13\": {\"O\": 1}, \"14\": {\"O\": 1}, \"15\": {\"O\": 1}, \"16\": {\"O\": 1}, \"17\": {\"O\": 1}, \"18\": {\"O\": 1}, \"19\": {\"O\": 1}}" n_minim_iter=3 energy=-22574.787639848073 stress="0.02683701965625078 4.226315084705342e-13 -2.1842933042857646e-13 4.226315084705342e-13 0.027232189368997576 -1.791811775086272e-13 -2.1842933042857646e-13 -1.791811775086272e-13 0.02698954896252109" free_energy=-22574.787639848073 pbc="T T T"
In       1.40931817       3.02624040       0.95204946        0       0.00296234       0.01073549       0.00276517
In       1.43678307       0.15017157       3.16904213        1      -0.00296234       0.01073549      -0.00276517
In       1.43678307       2.72589726       5.07314105        2      -0.00296234      -0.01073549       0.00276517
In       1.40931817       5.60196608       7.29013372        3       0.00296234      -0.01073549      -0.00276517
In       4.28288431       2.72589726       7.29013372        4      -0.00296234      -0.01073549      -0.00276517
In       4.25541941       5.60196608       5.07314105        5       0.00296234      -0.01073549       0.00276517
In       4.25541941       3.02624040       3.16904213        6       0.00296234       0.01073549      -0.00276517
In       4.28288431       0.15017157       0.95204946        7      -0.00296234       0.01073549       0.00276517
O        2.22302036       3.46722064       6.99802931        8       0.00016744      -0.00118077       0.01189280
O        0.62308088       0.59115181       5.36524546        9      -0.00016744      -0.00118077      -0.01189280
O        0.62308088       2.28491702       2.87693772       10      -0.00016744       0.00118077       0.01189280
O        2.22302036       5.16098585       1.24415387       11       0.00016744       0.00118077      -0.01189280
O        3.46918212       2.28491702       1.24415387       12      -0.00016744       0.00118077      -0.01189280
O        5.06912159       5.16098585       2.87693772       13       0.00016744       0.00118077       0.01189280
O        5.06912159       3.46722064       5.36524546       14       0.00016744      -0.00118077      -0.01189280
O        3.46918212       0.59115181       6.99802931       15      -0.00016744      -0.00118077       0.01189280
O        5.44846184       4.31410324      -0.00000000       16       0.00520510       0.00000000       0.00000000
O        3.08984188       1.43803441       4.12109159       17      -0.00520510       0.00000000      -0.00000000
O        0.24374064       1.43803441      -0.00000000       18      -0.00520510      -0.00000000      -0.00000000
O        2.60236060       4.31410324       4.12109159       19       0.00520510      -0.00000000      -0.00000000
20
Lattice="5.693902103661752 1.646952601323315e-61 -2.02583803446396e-43 -6.954997573420297e-62 5.7510064388112765 5.3831802573137305e-18 2.4648369994161386e-43 -4.590787487967479e-18 8.24134363974801" Properties=species:S:1:pos:R:3:spacegroup_kinds:I:1:forces:R:3 spacegroup="P 1" unit_cell=conventional occupancy="_JSON {\"0\": {\"In\": 1}, \"1\": {\"In\": 1}, \"2\": {\"In\": 1}, \"3\": {\"In\": 1}, \"4\": {\"In\": 1}, \"5\": {\"In\": 1}, \"6\": {\"In\": 1}, \"7\": {\"In\": 1}, \"8\": {\"O\": 1}, \"9\": {\"O\": 1}, \"10\": {\"O\": 1}, \"11\": {\"O\": 1}, \"12\": {\"O\": 1}, \"13\": {\"O\": 1}, \"14\": {\"O\": 1}, \"15\": {\"O\": 1}, \"16\": {\"O\": 1}, \"17\": {\"O\": 1}, \"18\": {\"O\": 1}, \"19\": {\"O\": 1}}" n_minim_iter=4 energy=-22574.787697199827 stress="0.027169170025193336 3.8609994413808984e-13 -1.2057884839199572e-13 3.8609994413808984e-13 0.02713727501486271 -4.032718113354204e-13 -1.2057884839199572e-13 -4.032718113354204e-13 0.027041746944881526" free_energy=-22574.787697199827 pbc="T T T"
In       1.40986872       3.02611531       0.95180183        0       0.00211749       0.00360632       0.00538097
In       1.43708233       0.15061209       3.16886999        1      -0.00211749       0.00360632      -0.00538097
In       1.43708233       2.72489113       5.07247365        2      -0.00211749      -0.00360632       0.00538097
In       1.40986872       5.60039435       7.28954181        3       0.00211749      -0.00360632      -0.00538097
In       4.28403339       2.72489113       7.28954181        4      -0.00211749      -0.00360632      -0.00538097
In       4.25681977       5.60039435       5.07247365        5       0.00211749      -0.00360632       0.00538097
In       4.25681977       3.02611531       3.16886999        6       0.00211749       0.00360632      -0.00538097
In       4.28403339       0.15061209       0.95180183        7      -0.00211749       0.00360632       0.00538097
O        2.22360660       3.46675605       6.99762001        8       0.00126727      -0.00503738       0.00837870
O        0.62334445       0.59125283       5.36439545        9      -0.00126727      -0.00503738      -0.00837870
O        0.62334445       2.28425039       2.87694819       10      -0.00126727       0.00503738       0.00837870
O        2.22360660       5.15975361       1.24372363       11       0.00126727       0.00503738      -0.00837870
O        3.47029550       2.28425039       1.24372363       12      -0.00126727       0.00503738      -0.00837870
O        5.07055766       5.15975361       2.87694819       13       0.00126727       0.00503738       0.00837870
O        5.07055766       3.46675605       5.36439545       14       0.00126727      -0.00503738      -0.00837870
O        3.47029550       0.59125283       6.99762001       15      -0.00126727      -0.00503738       0.00837870
O        5.45052210       4.31325483      -0.00000000       16      -0.00071536      -0.00000000       0.00000000
O        3.09033106       1.43775161       4.12067182       17       0.00071536       0.00000000      -0.00000000
O        0.24338000       1.43775161      -0.00000000       18       0.00071536       0.00000000       0.00000000
O        2.60357105       4.31325483       4.12067182       19      -0.00071536      -0.00000000      -0.00000000
