20
Lattice="5.489491086492544 1.4789597865310825e-60 2.5375562627227995e-43 -1.1987464995412475e-59 5.6689954318031575 8.880750559317606e-17 -2.726959563407351e-43 -2.466322927074385e-16 7.845994296183807" Properties=species:S:1:pos:R:3:spacegroup_kinds:I:1:forces:R:3 spacegroup="P 1" unit_cell=conventional occupancy="_JSON {\"0\": {\"In\": 1}, \"1\": {\"In\": 1}, \"2\": {\"In\": 1}, \"3\": {\"In\": 1}, \"4\": {\"In\": 1}, \"5\": {\"In\": 1}, \"6\": {\"In\": 1}, \"7\": {\"In\": 1}, \"8\": {\"O\": 1}, \"9\": {\"O\": 1}, \"10\": {\"O\": 1}, \"11\": {\"O\": 1}, \"12\": {\"O\": 1}, \"13\": {\"O\": 1}, \"14\": {\"O\": 1}, \"15\": {\"O\": 1}, \"16\": {\"O\": 1}, \"17\": {\"O\": 1}, \"18\": {\"O\": 1}, \"19\": {\"O\": 1}}" n_minim_iter=9 energy=-22574.826802063486 stress="-0.01941028745125011 8.345612571107126e-13 -1.6980692190667568e-13 8.345612571107126e-13 -0.019412301607185507 2.1688417348004873e-13 -1.6980692190667568e-13 2.1688417348004873e-13 -0.019413468562460394" free_energy=-22574.826802063486 pbc="T T T"
In       1.36499708       3.01233111       0.89589965        0      -0.00206118       0.00153440       0.00478259
In       1.37974847       0.17783339       3.02709750        1       0.00206118       0.00153440      -0.00478259
In       1.37974847       2.65666433       4.81889679        2       0.00206118      -0.00153440       0.00478259
In       1.36499708       5.49116204       6.95009465        3      -0.00206118      -0.00153440      -0.00478259
In       4.12449401       2.65666433       6.95009465        4       0.00206118      -0.00153440      -0.00478259
In       4.10974262       5.49116204       4.81889679        5      -0.00206118      -0.00153440       0.00478259
In       4.10974262       3.01233111       3.02709750        6      -0.00206118       0.00153440      -0.00478259
In       4.12449401       0.17783339       0.89589965        7       0.00206118       0.00153440       0.00478259
O        2.14064807       3.42609770       6.66757081        8      -0.00135441      -0.00292163       0.00102019
O        0.60409747       0.59159998       5.10142063        9       0.00135441      -0.00292163      -0.00102019
O        0.60409747       2.24289773       2.74457367       10       0.00135441       0.00292163       0.00102019
O        2.14064807       5.07739545       1.17842348       11      -0.00135441       0.00292163      -0.00102019
O        3.34884301       2.24289773       1.17842348       12       0.00135441       0.00292163      -0.00102019
O        4.88539361       5.07739545       2.74457367       13      -0.00135441       0.00292163       0.00102019
O        4.88539361       3.42609770       5.10142063       14      -0.00135441      -0.00292163      -0.00102019
O        3.34884301       0.59159998       6.66757081       15       0.00135441      -0.00292163       0.00102019
O        5.25000491       4.25174657      -0.00000000       16       0.00398485       0.00000000       0.00000000
O        2.98423172       1.41724886       3.92299715       17      -0.00398485       0.00000000       0.00000000
O        0.23948617       1.41724886      -0.00000000       18      -0.00398485      -0.00000000      -0.00000000
O        2.50525937       4.25174657       3.92299715       19       0.00398485      -0.00000000       0.00000000
