20
Lattice="5.364803544749531 -5.347041477101634e-59 4.793686728526169e-43 3.587310695688171e-59 5.621262201877849 2.255446720458277e-16 -6.8538286600773344e-43 -3.077628154278736e-16 7.670389487882464" Properties=species:S:1:pos:R:3:spacegroup_kinds:I:1:forces:R:3 spacegroup="P 1" unit_cell=conventional occupancy="_JSON {\"0\": {\"In\": 1}, \"1\": {\"In\": 1}, \"2\": {\"In\": 1}, \"3\": {\"In\": 1}, \"4\": {\"In\": 1}, \"5\": {\"In\": 1}, \"6\": {\"In\": 1}, \"7\": {\"In\": 1}, \"8\": {\"O\": 1}, \"9\": {\"O\": 1}, \"10\": {\"O\": 1}, \"11\": {\"O\": 1}, \"12\": {\"O\": 1}, \"13\": {\"O\": 1}, \"14\": {\"O\": 1}, \"15\": {\"O\": 1}, \"16\": {\"O\": 1}, \"17\": {\"O\": 1}, \"18\": {\"O\": 1}, \"19\": {\"O\": 1}}" n_minim_iter=1 energy=-22574.43775536932 stress="-0.04356863896204042 -6.577443695265601e-13 -5.798992221472337e-14 -6.577443695265601e-13 -0.04889737871882268 -1.5818429390794133e-13 -5.798992221472337e-14 -1.5818429390794133e-13 -0.04139158717409874" free_energy=-22574.43775536932 pbc="T T T"
In       1.33195313       2.99835384       0.88487615        0       0.04118721       0.00648856       0.10666555
In       1.35044864       0.18772273       2.95031860        1      -0.04118721       0.00648856      -0.10666555
In       1.35044864       2.62290837       4.72007089        2      -0.04118721      -0.00648856       0.10666555
In       1.33195313       5.43353947       6.78551334        3       0.04118721      -0.00648856      -0.10666555
In       4.03285041       2.62290837       6.78551334        4      -0.04118721      -0.00648856      -0.10666555
In       4.01435490       5.43353947       4.72007089        5       0.04118721      -0.00648856       0.10666555
In       4.01435490       2.99835384       2.95031860        6       0.04118721       0.00648856      -0.10666555
In       4.03285041       0.18772273       0.88487615        7      -0.04118721       0.00648856       0.10666555
O        2.08954919       3.39749273       6.52706179        8      -0.04259833       0.00612439       0.03913764
O        0.59285258       0.58686163       4.97852244        9       0.04259833       0.00612439      -0.03913764
O        0.59285258       2.22376947       2.69186705       10       0.04259833      -0.00612439       0.03913764
O        2.08954919       5.03440057       1.14332769       11      -0.04259833      -0.00612439      -0.03913764
O        3.27525435       2.22376947       1.14332769       12       0.04259833      -0.00612439      -0.03913764
O        4.77195096       5.03440057       2.69186705       13      -0.04259833      -0.00612439       0.03913764
O        4.77195096       3.39749273       4.97852244       14      -0.04259833       0.00612439      -0.03913764
O        3.27525435       0.58686163       6.52706179       15       0.04259833       0.00612439       0.03913764
O        5.12039883       4.21594665       0.00000000       16       0.01395081       0.00000000       0.00000000
O        2.92680649       1.40531555       3.83519474       17      -0.01395081       0.00000000      -0.00000000
O        0.24440472       1.40531555       0.00000000       18      -0.01395081      -0.00000000       0.00000000
O        2.43799706       4.21594665       3.83519474       19       0.01395081      -0.00000000       0.00000000
20
Lattice="5.3554398350537005 -5.237956782780187e-59 4.804212007662362e-43 3.7898338806170933e-59 5.661394102934401 2.2448375233688764e-16 -6.737737251313173e-43 -3.097585584415552e-16 7.629332640524348" Properties=species:S:1:pos:R:3:spacegroup_kinds:I:1:forces:R:3 spacegroup="P 1" unit_cell=conventional occupancy="_JSON {\"0\": {\"In\": 1}, \"1\": {\"In\": 1}, \"2\": {\"In\": 1}, \"3\": {\"In\": 1}, \"4\": {\"In\": 1}, \"5\": {\"In\": 1}, \"6\": {\"In\": 1}, \"7\": {\"In\": 1}, \"8\": {\"O\": 1}, \"9\": {\"O\": 1}, \"10\": {\"O\": 1}, \"11\": {\"O\": 1}, \"12\": {\"O\": 1}, \"13\": {\"O\": 1}, \"14\": {\"O\": 1}, \"15\": {\"O\": 1}, \"16\": {\"O\": 1}, \"17\": {\"O\": 1}, \"18\": {\"O\": 1}, \"19\": {\"O\": 1}}" n_minim_iter=2 energy=-22574.444099327404 stress="-0.04082928547032136 3.4063328914674806e-15 -2.9660649539065174e-13 3.4063328914674806e-15 -0.042409853344392734 6.583132900986478e-15 -2.9660649539065174e-13 6.583132900986478e-15 -0.043351092826640535" free_energy=-22574.444099327404 pbc="T T T"
In       1.32992391       3.01980697       0.88090240        0       0.04329023       0.07988499       0.04260665
In       1.34779601       0.18910992       2.93376392        1      -0.04329023       0.07988499      -0.04260665
In       1.34779601       2.64158713       4.69556872        2      -0.04329023      -0.07988499       0.04260665
In       1.32992391       5.47228418       6.74843024        3       0.04329023      -0.07988499      -0.04260665
In       4.02551593       2.64158713       6.74843024        4      -0.04329023      -0.07988499      -0.04260665
In       4.00764382       5.47228418       4.69556872        5       0.04329023      -0.07988499       0.04260665
In       4.00764382       3.01980697       2.93376392        6       0.04329023       0.07988499      -0.04260665
In       4.02551593       0.18910992       0.88090240        7      -0.04329023       0.07988499       0.04260665
O        2.08559641       3.42179280       6.49240461        8      -0.03385023       0.04713432       0.06008821
O        0.59212351       0.59109575       4.95159435        9       0.03385023       0.04713432      -0.06008821
O        0.59212351       2.23960130       2.67773829       10       0.03385023      -0.04713432       0.06008821
O        2.08559641       5.07029835       1.13692803       11      -0.03385023      -0.04713432      -0.06008821
O        3.26984342       2.23960130       1.13692803       12       0.03385023      -0.04713432      -0.06008821
O        4.76331633       5.07029835       2.67773829       13      -0.03385023      -0.04713432       0.06008821
O        4.76331633       3.42179280       4.95159435       14      -0.03385023       0.04713432      -0.06008821
O        3.26984342       0.59109575       6.49240461       15       0.03385023       0.04713432       0.06008821
O        5.11156181       4.24604558       0.00000000       16      -0.01389346      -0.00000000       0.00000000
O        2.92159794       1.41534853       3.81466632       17       0.01389346      -0.00000000      -0.00000000
O        0.24387802       1.41534853       0.00000000       18       0.01389346       0.00000000      -0.00000000
O        2.43384190       4.24604558       3.81466632       19      -0.01389346       0.00000000      -0.00000000
20
Lattice="5.337693662671487 -5.430545304964114e-59 4.782688399753485e-43 3.729030015634557e-59 5.67317843429225 2.0745453908011104e-16 -6.753935516816214e-43 -3.340119684322265e-16 7.638797455056447" Properties=species:S:1:pos:R:3:spacegroup_kinds:I:1:forces:R:3 spacegroup="P 1" unit_cell=conventional occupancy="_JSON {\"0\": {\"In\": 1}, \"1\": {\"In\": 1}, \"2\": {\"In\": 1}, \"3\": {\"In\": 1}, \"4\": {\"In\": 1}, \"5\": {\"In\": 1}, \"6\": {\"In\": 1}, \"7\": {\"In\": 1}, \"8\": {\"O\": 1}, \"9\": {\"O\": 1}, \"10\": {\"O\": 1}, \"11\": {\"O\": 1}, \"12\": {\"O\": 1}, \"13\": {\"O\": 1}, \"14\": {\"O\": 1}, \"15\": {\"O\": 1}, \"16\": {\"O\": 1}, \"17\": {\"O\": 1}, \"18\": {\"O\": 1}, \"19\": {\"O\": 1}}" n_minim_iter=3 energy=-22574.44553873671 stress="-0.04304697778070843 -1.2680164481707535e-13 9.883167164416427e-14 -1.2680164481707535e-13 -0.04136611849520119 3.3053893017289034e-13 9.883167164416427e-14 3.3053893017289034e-13 -0.04116649543792815" free_energy=-22574.44553873671 pbc="T T T"
In       1.32598119       3.02685317       0.88255922        0       0.00285397       0.08921776       0.03742026
In       1.34286564       0.19026396       2.93683951        1      -0.00285397       0.08921776      -0.03742026
In       1.34286564       2.64632526       4.70195795        2      -0.00285397      -0.08921776       0.03742026
In       1.32598119       5.48291448       6.75623823        3       0.00285397      -0.08921776      -0.03742026
In       4.01171247       2.64632526       6.75623823        4      -0.00285397      -0.08921776      -0.03742026
In       3.99482802       5.48291448       4.70195795        5       0.00285397      -0.08921777       0.03742026
In       3.99482802       3.02685317       2.93683951        6       0.00285397       0.08921776      -0.03742026
In       4.01171247       0.19026396       0.88255922        7      -0.00285397       0.08921776       0.03742026
O        2.07830547       3.42936781       6.50107246        8      -0.07006909       0.05074664       0.03971190
O        0.59054136       0.59277859       4.95712373        9       0.07006909       0.05074664      -0.03971190
O        0.59054136       2.24381063       2.68167373       10       0.07006909      -0.05074664       0.03971190
O        2.07830547       5.08039984       1.13772500       11      -0.07006909      -0.05074664      -0.03971190
O        3.25938819       2.24381063       1.13772500       12       0.07006909      -0.05074664      -0.03971190
O        4.74715230       5.08039984       2.68167373       13      -0.07006909      -0.05074664       0.03971190
O        4.74715230       3.42936781       4.95712373       14      -0.07006909       0.05074664      -0.03971190
O        3.25938819       0.59277859       6.50107246       15       0.07006909       0.05074664       0.03971190
O        5.09451916       4.25488383       0.00000000       16      -0.03333535      -0.00000000       0.00000000
O        2.91202134       1.41829461       3.81939873       17       0.03333535      -0.00000000      -0.00000000
O        0.24317451       1.41829461       0.00000000       18       0.03333535       0.00000000       0.00000000
O        2.42567233       4.25488383       3.81939873       19      -0.03333535       0.00000000       0.00000000
20
Lattice="5.331048657105231 -4.888918152775912e-59 4.610258943814309e-43 3.367997877133617e-59 5.68934773791719 2.2486419150402944e-16 -6.228957127691118e-43 -3.107239706284125e-16 7.626582245008608" Properties=species:S:1:pos:R:3:spacegroup_kinds:I:1:forces:R:3 spacegroup="P 1" unit_cell=conventional occupancy="_JSON {\"0\": {\"In\": 1}, \"1\": {\"In\": 1}, \"2\": {\"In\": 1}, \"3\": {\"In\": 1}, \"4\": {\"In\": 1}, \"5\": {\"In\": 1}, \"6\": {\"In\": 1}, \"7\": {\"In\": 1}, \"8\": {\"O\": 1}, \"9\": {\"O\": 1}, \"10\": {\"O\": 1}, \"11\": {\"O\": 1}, \"12\": {\"O\": 1}, \"13\": {\"O\": 1}, \"14\": {\"O\": 1}, \"15\": {\"O\": 1}, \"16\": {\"O\": 1}, \"17\": {\"O\": 1}, \"18\": {\"O\": 1}, \"19\": {\"O\": 1}}" n_minim_iter=4 energy=-22574.450772279273 stress="-0.03971148041541591 -5.918584085792682e-13 -2.1798226988878882e-13 -5.918584085792682e-13 -0.039543157994618015 -2.0739844390803958e-13 -2.1798226988878882e-13 -2.0739844390803958e-13 -0.04039497846902786" free_energy=-22574.450772279273 pbc="T T T"
In       1.32613664       3.04189964       0.88466055        0      -0.03052647      -0.01737625       0.05610074
In       1.33938769       0.19722577       2.92863057        1       0.03052647      -0.01737625      -0.05610074
In       1.33938769       2.64744810       4.69795167        2       0.03052647       0.01737625       0.05610074
In       1.32613664       5.49212197       6.74192170        3      -0.03052647       0.01737625      -0.05610074
In       4.00491202       2.64744810       6.74192170        4       0.03052647       0.01737625      -0.05610074
In       3.99166097       5.49212197       4.69795167        5      -0.03052647       0.01737625       0.05610074
In       3.99166097       3.04189964       2.92863057        6      -0.03052647      -0.01737625      -0.05610074
In       4.00491202       0.19722577       0.88466055        7       0.03052647      -0.01737625       0.05610074
O        2.07158476       3.44286627       6.49447935        8      -0.00851687      -0.01549559      -0.01946504
O        0.59393957       0.59819240       4.94539402        9       0.00851687      -0.01549559       0.01946504
O        0.59393957       2.24648147       2.68118823       10       0.00851687       0.01549559      -0.01946504
O        2.07158476       5.09115534       1.13210290       11      -0.00851687       0.01549559       0.01946504
O        3.25946390       2.24648147       1.13210290       12       0.00851687       0.01549559       0.01946504
O        4.73710909       5.09115534       2.68118823       13      -0.00851687       0.01549559      -0.01946504
O        4.73710909       3.44286627       4.94539402       14      -0.00851687      -0.01549559       0.01946504
O        3.25946390       0.59819240       6.49447935       15       0.00851687      -0.01549559      -0.01946504
O        5.08648089       4.26701080       0.00000000       16      -0.11641995       0.00000000      -0.00000000
O        2.91009209       1.42233693       3.81329112       17       0.11641995       0.00000000      -0.00000000
O        0.24456776       1.42233693       0.00000000       18       0.11641995      -0.00000000      -0.00000000
O        2.42095656       4.26701080       3.81329112       19      -0.11641995      -0.00000000      -0.00000000
20
Lattice="5.322797130172608 -3.999419541448058e-59 3.889689219441061e-43 2.6754857386043363e-59 5.682525972481799 2.255422608393701e-16 -6.01368782833572e-43 -3.1027091650614643e-16 7.6475749160832" Properties=species:S:1:pos:R:3:spacegroup_kinds:I:1:forces:R:3 spacegroup="P 1" unit_cell=conventional occupancy="_JSON {\"0\": {\"In\": 1}, \"1\": {\"In\": 1}, \"2\": {\"In\": 1}, \"3\": {\"In\": 1}, \"4\": {\"In\": 1}, \"5\": {\"In\": 1}, \"6\": {\"In\": 1}, \"7\": {\"In\": 1}, \"8\": {\"O\": 1}, \"9\": {\"O\": 1}, \"10\": {\"O\": 1}, \"11\": {\"O\": 1}, \"12\": {\"O\": 1}, \"13\": {\"O\": 1}, \"14\": {\"O\": 1}, \"15\": {\"O\": 1}, \"16\": {\"O\": 1}, \"17\": {\"O\": 1}, \"18\": {\"O\": 1}, \"19\": {\"O\": 1}}" n_minim_iter=5 energy=-22574.454007899225 stress="-0.03961199730892438 1.0021611548322077e-12 -4.830251550393975e-13 1.0021611548322077e-12 -0.040596293626334747 3.8186394474710217e-13 -4.830251550393975e-13 3.8186394474710217e-13 -0.03810105257490716" free_energy=-22574.454007899225 pbc="T T T"
In       1.32316668       3.04065032       0.89266231        0      -0.01194202      -0.01912238      -0.00478077
In       1.33823189       0.19938734       2.93112515        1       0.01194202      -0.01912238       0.00478077
In       1.33823189       2.64187565       4.71644976        2       0.01194202       0.01912238      -0.00478077
In       1.32316668       5.48313864       6.75491261        3      -0.01194202       0.01912238       0.00478077
In       3.99963045       2.64187565       6.75491261        4       0.01194202       0.01912238       0.00478077
In       3.98456524       5.48313864       4.71644976        5      -0.01194202       0.01912238      -0.00478077
In       3.98456524       3.04065032       2.93112515        6      -0.01194202      -0.01912238       0.00478077
In       3.99963045       0.19938734       0.89266231        7       0.01194202      -0.01912238      -0.00478077
O        2.06540428       3.43978947       6.51324628        8       0.00074169      -0.03729740       0.03195526
O        0.59599429       0.59852649       4.95811610        9      -0.00074169      -0.03729740      -0.03195526
O        0.59599429       2.24273650       2.68945882       10      -0.00074169       0.03729740       0.03195526
O        2.06540428       5.08399949       1.13432864       11       0.00074169       0.03729740      -0.03195526
O        3.25739285       2.24273650       1.13432864       12      -0.00074169       0.03729740      -0.03195526
O        4.72680284       5.08399949       2.68945882       13       0.00074169       0.03729740       0.03195526
O        4.72680284       3.43978947       4.95811610       14       0.00074169      -0.03729740      -0.03195526
O        3.25739285       0.59852649       6.51324628       15      -0.00074169      -0.03729740       0.03195526
O        5.07063261       4.26189448       0.00000000       16      -0.05788922       0.00000000      -0.00000000
O        2.91356309       1.42063149       3.82378746       17       0.05788922       0.00000000       0.00000000
O        0.25216452       1.42063149       0.00000000       18       0.05788922      -0.00000000      -0.00000000
O        2.40923404       4.26189448       3.82378746       19      -0.05788922      -0.00000000       0.00000000
20
Lattice="5.314303094766617 -3.599505161994528e-59 4.359016292926869e-43 2.3155373582449793e-59 5.702734395633035 2.3186772692599574e-16 -5.9914653183962775e-43 -3.021179025173547e-16 7.632654752874086" Properties=species:S:1:pos:R:3:spacegroup_kinds:I:1:forces:R:3 spacegroup="P 1" unit_cell=conventional occupancy="_JSON {\"0\": {\"In\": 1}, \"1\": {\"In\": 1}, \"2\": {\"In\": 1}, \"3\": {\"In\": 1}, \"4\": {\"In\": 1}, \"5\": {\"In\": 1}, \"6\": {\"In\": 1}, \"7\": {\"In\": 1}, \"8\": {\"O\": 1}, \"9\": {\"O\": 1}, \"10\": {\"O\": 1}, \"11\": {\"O\": 1}, \"12\": {\"O\": 1}, \"13\": {\"O\": 1}, \"14\": {\"O\": 1}, \"15\": {\"O\": 1}, \"16\": {\"O\": 1}, \"17\": {\"O\": 1}, \"18\": {\"O\": 1}, \"19\": {\"O\": 1}}" n_minim_iter=6 energy=-22574.45550900703 stress="-0.03746973174361955 -1.6616615336950075e-13 2.6328976303333303e-13 -1.6616615336950075e-13 -0.03729935476544047 6.856633371407729e-13 2.6328976303333303e-13 6.856633371407729e-13 -0.038405283511179264" free_energy=-22574.45550900703 pbc="T T T"
In       1.32052307       3.05272883       0.89336156        0       0.00265321       0.02178878      -0.04236796
In       1.33662848       0.20136164       2.92296582        1      -0.00265321       0.02178878       0.04236796
In       1.33662848       2.65000556       4.70968893        2      -0.00265321      -0.02178878      -0.04236796
In       1.32052307       5.50137276       6.73929319        3       0.00265321      -0.02178878       0.04236796
In       3.99378003       2.65000556       6.73929319        4      -0.00265321      -0.02178878       0.04236796
In       3.97767461       5.50137276       4.70968893        5       0.00265321      -0.02178878      -0.04236796
In       3.97767461       3.05272883       2.92296582        6       0.00265321       0.02178878       0.04236796
In       3.99378003       0.20136164       0.89336156        7      -0.00265321       0.02178878      -0.04236796
O        2.06061586       3.45184606       6.50221052        8       0.00940585      -0.02173013       0.04635827
O        0.59653569       0.60047886       4.94677161        9      -0.00940585      -0.02173013      -0.04635827
O        0.59653569       2.25088834       2.68588314       10      -0.00940585       0.02173013       0.04635827
O        2.06061586       5.10225554       1.13044424       11       0.00940585       0.02173013      -0.04635827
O        3.25368723       2.25088834       1.13044424       12      -0.00940585       0.02173013      -0.04635827
O        4.71776741       5.10225554       2.68588314       13       0.00940585       0.02173013       0.04635827
O        4.71776741       3.45184606       4.94677161       14       0.00940585      -0.02173013      -0.04635827
O        3.25368723       0.60047886       6.50221052       15      -0.00940585      -0.02173013       0.04635827
O        5.05704070       4.27705080       0.00000000       16      -0.02914780      -0.00000000      -0.00000000
O        2.91441394       1.42568360       3.81632738       17       0.02914780       0.00000000       0.00000000
O        0.25726240       1.42568360       0.00000000       18       0.02914780      -0.00000000       0.00000000
O        2.39988915       4.27705080       3.81632738       19      -0.02914780      -0.00000000       0.00000000
20
Lattice="5.305231236119627 -3.607713701877313e-59 4.3118212147168086e-43 2.2478740999218147e-59 5.70949613658189 2.401588416321291e-16 -5.957931893369808e-43 -2.9132300176877817e-16 7.636651678023138" Properties=species:S:1:pos:R:3:spacegroup_kinds:I:1:forces:R:3 spacegroup="P 1" unit_cell=conventional occupancy="_JSON {\"0\": {\"In\": 1}, \"1\": {\"In\": 1}, \"2\": {\"In\": 1}, \"3\": {\"In\": 1}, \"4\": {\"In\": 1}, \"5\": {\"In\": 1}, \"6\": {\"In\": 1}, \"7\": {\"In\": 1}, \"8\": {\"O\": 1}, \"9\": {\"O\": 1}, \"10\": {\"O\": 1}, \"11\": {\"O\": 1}, \"12\": {\"O\": 1}, \"13\": {\"O\": 1}, \"14\": {\"O\": 1}, \"15\": {\"O\": 1}, \"16\": {\"O\": 1}, \"17\": {\"O\": 1}, \"18\": {\"O\": 1}, \"19\": {\"O\": 1}}" n_minim_iter=7 energy=-22574.45685073783 stress="-0.03724231919657006 3.519463306775296e-13 -3.55835816886934e-13 3.519463306775296e-13 -0.036896497543380716 4.744856873080938e-13 -3.55835816886934e-13 4.744856873080938e-13 -0.03675689927812645" free_energy=-22574.45685073783 pbc="T T T"
In       1.31782107       3.05866630       0.89426472        0      -0.01353555       0.01022864       0.00536287
In       1.33479455       0.20391823       2.92406112        1       0.01353555       0.01022864      -0.00536287
In       1.33479455       2.65082984       4.71259056        2       0.01353555      -0.01022864       0.00536287
In       1.31782107       5.50557791       6.74238696        3      -0.01353555      -0.01022864      -0.00536287
In       3.98741017       2.65082984       6.74238696        4       0.01353555      -0.01022864      -0.00536287
In       3.97043669       5.50557791       4.71259056        5      -0.01353555      -0.01022864       0.00536287
In       3.97043669       3.05866630       2.92406112        6      -0.01353555       0.01022864      -0.00536287
In       3.98741017       0.20391823       0.89426472        7       0.01353555       0.01022864       0.00536287
O        2.05586565       3.45464834       6.50945887        8      -0.00564829      -0.02728111      -0.01247406
O        0.59674997       0.59990027       4.94551864        9       0.00564829      -0.02728111       0.01247406
O        0.59674997       2.25484780       2.69113304       10       0.00564829       0.02728111      -0.01247406
O        2.05586565       5.10959587       1.12719280       11      -0.00564829       0.02728111       0.01247406
O        3.24936559       2.25484780       1.12719280       12       0.00564829       0.02728111       0.01247406
O        4.70848126       5.10959587       2.69113304       13      -0.00564829       0.02728111      -0.01247406
O        4.70848126       3.45464834       4.94551864       14      -0.00564829      -0.02728111       0.01247406
O        3.24936559       0.59990027       6.50945887       15       0.00564829      -0.02728111      -0.01247406
O        5.04196074       4.28212210       0.00000000       16      -0.00183404      -0.00000000       0.00000000
O        2.91588611       1.42737403       3.81832584       17       0.00183404       0.00000000       0.00000000
O        0.26327049       1.42737403       0.00000000       18       0.00183404      -0.00000000       0.00000000
O        2.38934513       4.28212210       3.81832584       19      -0.00183404       0.00000000       0.00000000
20
Lattice="5.3071395823747425 -4.09290652411215e-59 4.545659690718082e-43 9.005127241400467e-60 5.707503070544494 2.6681417880411865e-16 -5.458467531951657e-43 -2.548423797741015e-16 7.636571451455427" Properties=species:S:1:pos:R:3:spacegroup_kinds:I:1:forces:R:3 spacegroup="P 1" unit_cell=conventional occupancy="_JSON {\"0\": {\"In\": 1}, \"1\": {\"In\": 1}, \"2\": {\"In\": 1}, \"3\": {\"In\": 1}, \"4\": {\"In\": 1}, \"5\": {\"In\": 1}, \"6\": {\"In\": 1}, \"7\": {\"In\": 1}, \"8\": {\"O\": 1}, \"9\": {\"O\": 1}, \"10\": {\"O\": 1}, \"11\": {\"O\": 1}, \"12\": {\"O\": 1}, \"13\": {\"O\": 1}, \"14\": {\"O\": 1}, \"15\": {\"O\": 1}, \"16\": {\"O\": 1}, \"17\": {\"O\": 1}, \"18\": {\"O\": 1}, \"19\": {\"O\": 1}}" n_minim_iter=8 energy=-22574.457140487233 stress="-0.036840362446563496 -3.020107149697239e-13 -3.6985088695763987e-13 -3.020107149697239e-13 -0.037083920815149926 -3.931478069884398e-13 -3.6985088695763987e-13 -3.931478069884398e-13 -0.03703192640456668" free_energy=-22574.457140487233 pbc="T T T"
In       1.31741242       3.05815582       0.89461148        0       0.00435381       0.01980873       0.00643116
In       1.33615737       0.20440429       2.92367425        1      -0.00435381       0.01980873      -0.00643116
In       1.33615737       2.64934725       4.71289720        2      -0.00435381      -0.01980873       0.00643116
In       1.31741242       5.50309879       6.74195997        3       0.00435381      -0.01980873      -0.00643116
In       3.98972716       2.64934725       6.74195997        4      -0.00435381      -0.01980873      -0.00643116
In       3.97098221       5.50309879       4.71289720        5       0.00435381      -0.01980873       0.00643116
In       3.97098221       3.05815582       2.92367425        6       0.00435381       0.01980873      -0.00643116
In       3.98972716       0.20440429       0.89461148        7      -0.00435381       0.01980873       0.00643116
O        2.05633474       3.45151916       6.50997843        8      -0.00497474      -0.01670782      -0.00340061
O        0.59723505       0.59776763       4.94487875        9       0.00497474      -0.01670782       0.00340061
O        0.59723505       2.25598391       2.69169270       10       0.00497474       0.01670782      -0.00340061
O        2.05633474       5.10973544       1.12659303       11      -0.00497474       0.01670782       0.00340061
O        3.25080484       2.25598391       1.12659303       12       0.00497474       0.01670782       0.00340061
O        4.70990453       5.10973544       2.69169270       13      -0.00497474       0.01670782      -0.00340061
O        4.70990453       3.45151916       4.94487875       14      -0.00497474      -0.01670782       0.00340061
O        3.25080484       0.59776763       6.50997843       15       0.00497474      -0.01670782      -0.00340061
O        5.04088228       4.28062730       0.00000000       16       0.02659766       0.00000000       0.00000000
O        2.91982710       1.42687577       3.81828573       17      -0.02659766      -0.00000000      -0.00000000
O        0.26625730       1.42687577       0.00000000       18      -0.02659766       0.00000000       0.00000000
O        2.38731249       4.28062730       3.81828573       19       0.02659766       0.00000000       0.00000000
20
Lattice="5.303092834024405 -4.820344180307026e-59 4.541957816493083e-43 6.55122299515369e-60 5.712820542581248 2.6374871626503996e-16 -2.7837982042117275e-43 -2.5918194260730717e-16 7.635285342618549" Properties=species:S:1:pos:R:3:spacegroup_kinds:I:1:forces:R:3 spacegroup="P 1" unit_cell=conventional occupancy="_JSON {\"0\": {\"In\": 1}, \"1\": {\"In\": 1}, \"2\": {\"In\": 1}, \"3\": {\"In\": 1}, \"4\": {\"In\": 1}, \"5\": {\"In\": 1}, \"6\": {\"In\": 1}, \"7\": {\"In\": 1}, \"8\": {\"O\": 1}, \"9\": {\"O\": 1}, \"10\": {\"O\": 1}, \"11\": {\"O\": 1}, \"12\": {\"O\": 1}, \"13\": {\"O\": 1}, \"14\": {\"O\": 1}, \"15\": {\"O\": 1}, \"16\": {\"O\": 1}, \"17\": {\"O\": 1}, \"18\": {\"O\": 1}, \"19\": {\"O\": 1}}" n_minim_iter=9 energy=-22574.45763189565 stress="-0.03599903182435804 -1.0317122602663578e-13 -6.187580085379797e-16 -1.0317122602663578e-13 -0.036395970199756995 -3.6595806662383733e-13 -6.187580085379797e-16 -3.6595806662383733e-13 -0.036833915902318756" free_energy=-22574.45763189565 pbc="T T T"
In       1.31595979       3.06442648       0.89569028        0       0.01111197      -0.00953710       0.00577939
In       1.33558662       0.20801621       2.92195239        1      -0.01111197      -0.00953710      -0.00577939
In       1.33558662       2.64839406       4.71333295        2      -0.01111197       0.00953710       0.00577939
In       1.31595979       5.50480433       6.73959506        3       0.01111197       0.00953710      -0.00577939
In       3.98713304       2.64839406       6.73959506        4      -0.01111197       0.00953710      -0.00577939
In       3.96750621       5.50480433       4.71333295        5       0.01111197       0.00953710       0.00577939
In       3.96750621       3.06442648       2.92195239        6       0.01111197      -0.00953710      -0.00577939
In       3.98713304       0.20801621       0.89569028        7      -0.01111197      -0.00953710       0.00577939
O        2.05340758       3.45167561       6.50964150        8       0.00947922      -0.01223914      -0.00038926
O        0.59813883       0.59526534       4.94328651        9      -0.00947922      -0.01223914       0.00038926
O        0.59813883       2.26114493       2.69199883       10      -0.00947922       0.01223914      -0.00038926
O        2.05340758       5.11755520       1.12564384       11       0.00947922       0.01223914       0.00038926
O        3.24968525       2.26114493       1.12564384       12      -0.00947922       0.01223914       0.00038926
O        4.70495400       5.11755520       2.69199883       13       0.00947922       0.01223914      -0.00038926
O        4.70495400       3.45167561       4.94328651       14       0.00947922      -0.01223914       0.00038926
O        3.24968525       0.59526534       6.50964150       15      -0.00947922      -0.01223914      -0.00038926
O        5.03618335       4.28461541       0.00000000       16       0.00269858       0.00000000      -0.00000000
O        2.91845590       1.42820514       3.81764267       17      -0.00269858      -0.00000000      -0.00000000
O        0.26690949       1.42820514       0.00000000       18      -0.00269858       0.00000000      -0.00000000
O        2.38463693       4.28461541       3.81764267       19       0.00269858       0.00000000       0.00000000
20