20
Lattice="5.02565966000075 -8.806223164123135e-59 -5.775523724745809e-44 1.0010268633112813e-58 5.706121003199153 1.0185794803665288e-17 8.497296421274645e-44 -1.3198859834014416e-17 7.394051497095742" Properties=species:S:1:pos:R:3:spacegroup_kinds:I:1:forces:R:3 spacegroup="P 1" unit_cell=conventional occupancy="_JSON {\"0\": {\"In\": 1}, \"1\": {\"In\": 1}, \"2\": {\"In\": 1}, \"3\": {\"In\": 1}, \"4\": {\"In\": 1}, \"5\": {\"In\": 1}, \"6\": {\"In\": 1}, \"7\": {\"In\": 1}, \"8\": {\"O\": 1}, \"9\": {\"O\": 1}, \"10\": {\"O\": 1}, \"11\": {\"O\": 1}, \"12\": {\"O\": 1}, \"13\": {\"O\": 1}, \"14\": {\"O\": 1}, \"15\": {\"O\": 1}, \"16\": {\"O\": 1}, \"17\": {\"O\": 1}, \"18\": {\"O\": 1}, \"19\": {\"O\": 1}}" n_minim_iter=1 energy=-22573.19338528523 stress="-0.15254822876146512 -7.137038034464822e-13 2.647214640688332e-13 -7.137038034464822e-13 -0.13336224948909148 -2.369959259926123e-13 2.647214640688332e-13 -2.369959259926123e-13 -0.14422647088286633" free_energy=-22573.19338528523 pbc="T T T"
In       1.24261731       3.10302658       0.90700217        0      -0.04493018       0.06440022       0.10631246
In       1.27021252       0.24996608       2.79002358        1       0.04493018       0.06440022      -0.10631246
In       1.27021252       2.60309443       4.60402792        2       0.04493018      -0.06440022       0.10631246
In       1.24261731       5.45615493       6.48704933        3      -0.04493018      -0.06440022      -0.10631246
In       3.78304235       2.60309443       6.48704933        4       0.04493018      -0.06440022      -0.10631246
In       3.75544714       5.45615493       4.60402792        5      -0.04493018      -0.06440022       0.10631246
In       3.75544714       3.10302658       2.79002358        6      -0.04493018       0.06440022      -0.10631246
In       3.78304235       0.24996608       0.90700217        7       0.04493018       0.06440022       0.10631246
O        1.93604239       3.44965935       6.33725347        8       0.03107709       0.04630713      -0.00386312
O        0.57678744       0.59659885       4.75382377        9      -0.03107709       0.04630713       0.00386312
O        0.57678744       2.25646165       2.64022772       10      -0.03107709      -0.04630713      -0.00386312
O        1.93604239       5.10952215       1.05679803       11       0.03107709      -0.04630713       0.00386312
O        3.08961727       2.25646165       1.05679803       12      -0.03107709      -0.04630713       0.00386312
O        4.44887222       5.10952215       2.64022772       13       0.03107709      -0.04630713      -0.00386312
O        4.44887222       3.44965935       4.75382377       14       0.03107709       0.04630713       0.00386312
O        3.08961727       0.59659885       6.33725347       15      -0.03107709       0.04630713      -0.00386312
O        4.67687900       4.27959075       0.00000000       16      -0.13606052       0.00000000       0.00000000
O        2.86161049       1.42653025       3.69702575       17       0.13606052       0.00000000      -0.00000000
O        0.34878066       1.42653025       0.00000000       18       0.13606052       0.00000000       0.00000000
O        2.16404917       4.27959075       3.69702575       19      -0.13606052      -0.00000000      -0.00000000
20
Lattice="5.05433245912665 -8.956400723077356e-59 -5.185369377987541e-44 9.804920079167919e-59 5.670768049328969 2.7836806001031574e-17 9.623412340043623e-44 9.807476647499528e-18 7.397940493911638" Properties=species:S:1:pos:R:3:spacegroup_kinds:I:1:forces:R:3 spacegroup="P 1" unit_cell=conventional occupancy="_JSON {\"0\": {\"In\": 1}, \"1\": {\"In\": 1}, \"2\": {\"In\": 1}, \"3\": {\"In\": 1}, \"4\": {\"In\": 1}, \"5\": {\"In\": 1}, \"6\": {\"In\": 1}, \"7\": {\"In\": 1}, \"8\": {\"O\": 1}, \"9\": {\"O\": 1}, \"10\": {\"O\": 1}, \"11\": {\"O\": 1}, \"12\": {\"O\": 1}, \"13\": {\"O\": 1}, \"14\": {\"O\": 1}, \"15\": {\"O\": 1}, \"16\": {\"O\": 1}, \"17\": {\"O\": 1}, \"18\": {\"O\": 1}, \"19\": {\"O\": 1}}" n_minim_iter=2 energy=-22573.205892418166 stress="-0.13874334646368958 6.3947699108509754e-15 9.864792043910093e-14 6.3947699108509754e-15 -0.13917197797446162 1.0517535236937221e-12 9.864792043910093e-14 1.0517535236937221e-12 -0.1401708473143325" free_energy=-22573.205892418166 pbc="T T T"
In       1.24957457       3.08398868       0.90779046        0       0.01147745      -0.05158211       0.15861042
In       1.27759166       0.24860466       2.79117978        1      -0.01147745      -0.05158211      -0.15861042
In       1.27759166       2.58677937       4.60676071        2      -0.01147745       0.05158211       0.15861042
In       1.24957457       5.42216339       6.49015003        3       0.01147745       0.05158211      -0.15861042
In       3.80475789       2.58677937       6.49015003        4      -0.01147745       0.05158211      -0.15861042
In       3.77674080       5.42216339       4.60676071        5       0.01147745       0.05158211       0.15861042
In       3.77674080       3.08398868       2.79117978        6       0.01147745      -0.05158211      -0.15861042
In       3.80475789       0.24860466       0.90779046        7      -0.01147745      -0.05158211       0.15861042
O        1.94717951       3.42842124       6.34057532        8       0.11433732      -0.05791133       0.02009409
O        0.57998672       0.59303721       4.75633542        9      -0.11433732      -0.05791133      -0.02009409
O        0.57998672       2.24234681       2.64160507       10      -0.11433732       0.05791133       0.02009409
O        1.94717951       5.07773084       1.05736517       11       0.11433732       0.05791133      -0.02009409
O        3.10715295       2.24234681       1.05736517       12      -0.11433732       0.05791133      -0.02009409
O        4.47434574       5.07773084       2.64160507       13       0.11433732       0.05791133       0.02009409
O        4.47434574       3.42842124       4.75633542       14       0.11433732      -0.05791133      -0.02009409
O        3.10715295       0.59303721       6.34057532       15      -0.11433732      -0.05791133       0.02009409
O        4.70316151       4.25307604       0.00000000       16      -0.07641802       0.00000000       0.00000000
O        2.87833718       1.41769201       3.69897025       17       0.07641802      -0.00000000      -0.00000000
O        0.35117095       1.41769201       0.00000000       18       0.07641802       0.00000000       0.00000000
O        2.17599528       4.25307604       3.69897025       19      -0.07641802      -0.00000000       0.00000000
20
Lattice="5.051747519116954 -8.948248928394809e-59 -5.158651096380873e-44 9.788865819132597e-59 5.659049157616351 2.820469382189918e-17 9.673888778983926e-44 1.0190975016814523e-17 7.417053630372807" Properties=species:S:1:pos:R:3:spacegroup_kinds:I:1:forces:R:3 spacegroup="P 1" unit_cell=conventional occupancy="_JSON {\"0\": {\"In\": 1}, \"1\": {\"In\": 1}, \"2\": {\"In\": 1}, \"3\": {\"In\": 1}, \"4\": {\"In\": 1}, \"5\": {\"In\": 1}, \"6\": {\"In\": 1}, \"7\": {\"In\": 1}, \"8\": {\"O\": 1}, \"9\": {\"O\": 1}, \"10\": {\"O\": 1}, \"11\": {\"O\": 1}, \"12\": {\"O\": 1}, \"13\": {\"O\": 1}, \"14\": {\"O\": 1}, \"15\": {\"O\": 1}, \"16\": {\"O\": 1}, \"17\": {\"O\": 1}, \"18\": {\"O\": 1}, \"19\": {\"O\": 1}}" n_minim_iter=3 energy=-22573.208772644655 stress="-0.14071086921219866 -6.510521366053814e-13 -4.209689216009368e-13 -6.510521366053814e-13 -0.1402905716565317 7.180321961795289e-13 -4.209689216009368e-13 7.180321961795289e-13 -0.13404327745905953" free_energy=-22573.208772644655 pbc="T T T"
In       1.24906980       3.07693286       0.91248861        0      -0.02949741      -0.01495577       0.09737077
In       1.27680396       0.24740828       2.79603820        1       0.02949741      -0.01495577      -0.09737077
In       1.27680396       2.58211630       4.62101543        2       0.02949741       0.01495577       0.09737077
In       1.24906980       5.41164088       6.50456502        3      -0.02949741       0.01495577      -0.09737077
In       3.80267772       2.58211630       6.50456502        4       0.02949741       0.01495577      -0.09737077
In       3.77494356       5.41164088       4.62101543        5      -0.02949741       0.01495577       0.09737077
In       3.77494356       3.07693286       2.79603820        6      -0.02949741      -0.01495577      -0.09737077
In       3.80267772       0.24740828       0.91248861        7       0.02949741      -0.01495577       0.09737077
O        1.94785959       3.42055176       6.35724254        8       0.04093638      -0.04933887       0.06774705
O        0.57801417       0.59102718       4.76833791        9      -0.04093638      -0.04933887      -0.06774705
O        0.57801417       2.23849740       2.64871572       10      -0.04093638       0.04933887       0.06774705
O        1.94785959       5.06802198       1.05981109       11       0.04093638       0.04933887      -0.06774705
O        3.10388793       2.23849740       1.05981109       12      -0.04093638       0.04933887      -0.06774705
O        4.47373335       5.06802198       2.64871572       13       0.04093638       0.04933887       0.06774705
O        4.47373335       3.42055176       4.76833791       14       0.04093638      -0.04933887      -0.06774705
O        3.10388793       0.59102718       6.35724254       15      -0.04093638      -0.04933887       0.06774705
O        4.69955464       4.24428687       0.00000000       16      -0.03566037       0.00000000      -0.00000000
O        2.87806664       1.41476229       3.70852682       17       0.03566037      -0.00000000      -0.00000000
O        0.35219288       1.41476229       0.00000000       18       0.03566037      -0.00000000      -0.00000000
O        2.17368088       4.24428687       3.70852682       19      -0.03566037       0.00000000      -0.00000000
20
Lattice="5.064591198085991 -8.924378427089893e-59 -5.195648992278154e-44 9.804430291463352e-59 5.6583042012562865 -6.315953787326793e-18 9.620525887589404e-44 -3.439431045929656e-17 7.399218196360657" Properties=species:S:1:pos:R:3:spacegroup_kinds:I:1:forces:R:3 spacegroup="P 1" unit_cell=conventional occupancy="_JSON {\"0\": {\"In\": 1}, \"1\": {\"In\": 1}, \"2\": {\"In\": 1}, \"3\": {\"In\": 1}, \"4\": {\"In\": 1}, \"5\": {\"In\": 1}, \"6\": {\"In\": 1}, \"7\": {\"In\": 1}, \"8\": {\"O\": 1}, \"9\": {\"O\": 1}, \"10\": {\"O\": 1}, \"11\": {\"O\": 1}, \"12\": {\"O\": 1}, \"13\": {\"O\": 1}, \"14\": {\"O\": 1}, \"15\": {\"O\": 1}, \"16\": {\"O\": 1}, \"17\": {\"O\": 1}, \"18\": {\"O\": 1}, \"19\": {\"O\": 1}}" n_minim_iter=4 energy=-22573.213216319702 stress="-0.1370451580125993 5.509181812437158e-13 1.2008237487055093e-12 5.509181812437158e-13 -0.1368390275234095 1.2969394890434673e-13 1.2008237487055093e-12 1.2969394890434673e-13 -0.13709916825001217" free_energy=-22573.213216319702 pbc="T T T"
In       1.25224116       3.07544257       0.91432883        0      -0.01818012       0.07298433      -0.02315849
In       1.28005444       0.24629047       2.78528027        1       0.01818012       0.07298433       0.02315849
In       1.28005444       2.58286163       4.61393793        2       0.01818012      -0.07298433      -0.02315849
In       1.25224116       5.41201373       6.48488936        3      -0.01818012      -0.07298433       0.02315849
In       3.81235004       2.58286163       6.48488936        4       0.01818012      -0.07298433       0.02315849
In       3.78453676       5.41201373       4.61393793        5      -0.01818012      -0.07298433      -0.02315849
In       3.78453676       3.07544257       2.78528027        6      -0.01818012       0.07298433       0.02315849
In       3.81235004       0.24629047       0.91432883        7       0.01818012       0.07298433      -0.02315849
O        1.95551072       3.41864347       6.34282276        8       0.02918082       0.01106827       0.15529127
O        0.57678488       0.58949137       4.75600453        9      -0.02918082       0.01106827      -0.15529127
O        0.57678488       2.23966073       2.64321366       10      -0.02918082      -0.01106827       0.15529127
O        1.95551072       5.06881283       1.05639543       11       0.02918082      -0.01106827      -0.15529127
O        3.10908048       2.23966073       1.05639543       12      -0.02918082      -0.01106827      -0.15529127
O        4.48780631       5.06881283       2.64321366       13       0.02918082      -0.01106827       0.15529127
O        4.48780631       3.41864347       4.75600453       14       0.02918082       0.01106827      -0.15529127
O        3.10908048       0.58949137       6.34282276       15      -0.02918082       0.01106827       0.15529127
O        4.70952998       4.24372815       0.00000000       16       0.02218684      -0.00000000      -0.00000000
O        2.88735681       1.41457605       3.69960910       17      -0.02218684       0.00000000       0.00000000
O        0.35506121       1.41457605       0.00000000       18      -0.02218684      -0.00000000      -0.00000000
O        2.17723439       4.24372815       3.69960910       19       0.02218684       0.00000000      -0.00000000
20
Lattice="5.076218128266275 -8.923923675595104e-59 -5.211746894872045e-44 9.819718377851203e-59 5.651947103411066 -1.8241571199447076e-18 9.582311566749418e-44 -2.8544702564695513e-17 7.390573802619977" Properties=species:S:1:pos:R:3:spacegroup_kinds:I:1:forces:R:3 spacegroup="P 1" unit_cell=conventional occupancy="_JSON {\"0\": {\"In\": 1}, \"1\": {\"In\": 1}, \"2\": {\"In\": 1}, \"3\": {\"In\": 1}, \"4\": {\"In\": 1}, \"5\": {\"In\": 1}, \"6\": {\"In\": 1}, \"7\": {\"In\": 1}, \"8\": {\"O\": 1}, \"9\": {\"O\": 1}, \"10\": {\"O\": 1}, \"11\": {\"O\": 1}, \"12\": {\"O\": 1}, \"13\": {\"O\": 1}, \"14\": {\"O\": 1}, \"15\": {\"O\": 1}, \"16\": {\"O\": 1}, \"17\": {\"O\": 1}, \"18\": {\"O\": 1}, \"19\": {\"O\": 1}}" n_minim_iter=5 energy=-22573.219519000144 stress="-0.1343934088069226 -7.629471423904196e-13 -1.751909079252913e-13 -7.629471423904196e-13 -0.13501600240175143 -1.0272891713779906e-14 -1.751909079252913e-13 -1.0272891713779906e-14 -0.13577056866942674" free_energy=-22573.219519000144 pbc="T T T"
In       1.25424770       3.07401123       0.91773582        0      -0.10238371       0.03513015       0.05410143
In       1.28386136       0.24803768       2.77755108        1       0.10238371       0.03513015      -0.05410143
In       1.28386136       2.57793587       4.61302272        2       0.10238371      -0.03513015       0.05410143
In       1.25424770       5.40390942       6.47283798        3      -0.10238371      -0.03513015      -0.05410143
In       3.82197043       2.57793587       6.47283798        4       0.10238371      -0.03513015      -0.05410143
In       3.79235677       5.40390942       4.61302272        5      -0.10238371      -0.03513015       0.05410143
In       3.79235677       3.07401123       2.77755108        6      -0.10238371       0.03513015      -0.05410143
In       3.82197043       0.24803768       0.91773582        7       0.10238371       0.03513015       0.05410143
O        1.96534654       3.41327787       6.34441051        8      -0.01991007      -0.00824498      -0.02719268
O        0.57276252       0.58730432       4.74145020        9       0.01991007      -0.00824498       0.02719268
O        0.57276252       2.23866924       2.64912360       10       0.01991007       0.00824498      -0.02719268
O        1.96534654       5.06464279       1.04616330       11      -0.01991007       0.00824498       0.02719268
O        3.11087159       2.23866924       1.04616330       12       0.01991007       0.00824498       0.02719268
O        4.50345561       5.06464279       2.64912360       13      -0.01991007       0.00824498      -0.02719268
O        4.50345561       3.41327787       4.74145020       14      -0.01991007      -0.00824498       0.02719268
O        3.11087159       0.58730432       6.34441051       15       0.01991007      -0.00824498      -0.02719268
O        4.71874791       4.23896033       0.00000000       16       0.02302155       0.00000000      -0.00000000
O        2.89557928       1.41298678       3.69528690       17      -0.02302155       0.00000000       0.00000000
O        0.35747022       1.41298678       0.00000000       18      -0.02302155       0.00000000       0.00000000
O        2.18063884       4.23896033       3.69528690       19       0.02302155      -0.00000000      -0.00000000
20
Lattice="5.07295138826168 -8.947810372506928e-59 -5.499308122530048e-44 9.849008356317023e-59 5.648760965731511 1.1951985278126933e-17 1.005454617166909e-43 -1.0684649993599734e-17 7.399504258917955" Properties=species:S:1:pos:R:3:spacegroup_kinds:I:1:forces:R:3 spacegroup="P 1" unit_cell=conventional occupancy="_JSON {\"0\": {\"In\": 1}, \"1\": {\"In\": 1}, \"2\": {\"In\": 1}, \"3\": {\"In\": 1}, \"4\": {\"In\": 1}, \"5\": {\"In\": 1}, \"6\": {\"In\": 1}, \"7\": {\"In\": 1}, \"8\": {\"O\": 1}, \"9\": {\"O\": 1}, \"10\": {\"O\": 1}, \"11\": {\"O\": 1}, \"12\": {\"O\": 1}, \"13\": {\"O\": 1}, \"14\": {\"O\": 1}, \"15\": {\"O\": 1}, \"16\": {\"O\": 1}, \"17\": {\"O\": 1}, \"18\": {\"O\": 1}, \"19\": {\"O\": 1}}" n_minim_iter=6 energy=-22573.222441898703 stress="-0.13471206588309861 3.7652747995777927e-13 4.648901006820269e-13 3.7652747995777927e-13 -0.1338152457867273 9.583634086255957e-14 4.648901006820269e-13 9.583634086255957e-14 -0.13331827123529688" free_energy=-22573.222441898703 pbc="T T T"
In       1.24870243       3.07456294       0.92346963        0      -0.01359843       0.02147997      -0.02141900
In       1.28777326       0.25018246       2.77628250        1       0.01359843       0.02147997       0.02141900
In       1.28777326       2.57419803       4.62322176        2       0.01359843      -0.02147997      -0.02141900
In       1.24870243       5.39857851       6.47603463        3      -0.01359843      -0.02147997       0.02141900
In       3.82424896       2.57419803       6.47603463        4       0.01359843      -0.02147997       0.02141900
In       3.78517813       5.39857851       4.62322176        5      -0.01359843      -0.02147997      -0.02141900
In       3.78517813       3.07456294       2.77628250        6      -0.01359843       0.02147997       0.02141900
In       3.82424896       0.25018246       0.92346963        7       0.01359843       0.02147997      -0.02141900
O        1.96581734       3.41018650       6.35532113        8      -0.00327149      -0.02178723      -0.00095228
O        0.57065836       0.58580602       4.74393525        9       0.00327149      -0.02178723       0.00095228
O        0.57065836       2.23857447       2.65556900       10       0.00327149       0.02178723      -0.00095228
O        1.96581734       5.06295495       1.04418312       11      -0.00327149       0.02178723       0.00095228
O        3.10713405       2.23857447       1.04418312       12       0.00327149       0.02178723       0.00095228
O        4.50229303       5.06295495       2.65556900       13      -0.00327149       0.02178723      -0.00095228
O        4.50229303       3.41018650       4.74393525       14      -0.00327149      -0.02178723       0.00095228
O        3.10713405       0.58580602       6.35532113       15       0.00327149      -0.02178723      -0.00095228
O        4.71569808       4.23657072       0.00000000       16       0.00350952       0.00000000       0.00000000
O        2.89372900       1.41219024       3.69975213       17      -0.00350952       0.00000000      -0.00000000
O        0.35725330       1.41219024       0.00000000       18      -0.00350952       0.00000000      -0.00000000
O        2.17922239       4.23657072       3.69975213       19       0.00350952      -0.00000000       0.00000000
20
Lattice="5.07588438760184 -8.960580294250957e-59 -5.469051687403496e-44 9.826109359215812e-59 5.648053812383099 4.973407329433535e-18 1.021285140425687e-43 -1.9720413291174584e-17 7.396154506714544" Properties=species:S:1:pos:R:3:spacegroup_kinds:I:1:forces:R:3 spacegroup="P 1" unit_cell=conventional occupancy="_JSON {\"0\": {\"In\": 1}, \"1\": {\"In\": 1}, \"2\": {\"In\": 1}, \"3\": {\"In\": 1}, \"4\": {\"In\": 1}, \"5\": {\"In\": 1}, \"6\": {\"In\": 1}, \"7\": {\"In\": 1}, \"8\": {\"O\": 1}, \"9\": {\"O\": 1}, \"10\": {\"O\": 1}, \"11\": {\"O\": 1}, \"12\": {\"O\": 1}, \"13\": {\"O\": 1}, \"14\": {\"O\": 1}, \"15\": {\"O\": 1}, \"16\": {\"O\": 1}, \"17\": {\"O\": 1}, \"18\": {\"O\": 1}, \"19\": {\"O\": 1}}" n_minim_iter=7 energy=-22573.222702612988 stress="-0.13321829046452718 1.832346163556904e-13 8.241635814175042e-13 1.832346163556904e-13 -0.1338210445436204 -4.956644072256317e-13 8.241635814175042e-13 -4.956644072256317e-13 -0.1341598152777217" free_energy=-22573.222702612988 pbc="T T T"
In       1.24870735       3.07494352       0.92281509        0       0.00842383       0.00202300      -0.00216665
In       1.28923485       0.25091661       2.77526216        1      -0.00842383       0.00202300       0.00216665
In       1.28923485       2.57311029       4.62089235        2      -0.00842383      -0.00202300      -0.00216665
In       1.24870735       5.39713720       6.47333941        3       0.00842383      -0.00202300       0.00216665
In       3.82717704       2.57311029       6.47333941        4      -0.00842383      -0.00202300       0.00216665
In       3.78664954       5.39713720       4.62089235        5       0.00842383      -0.00202300      -0.00216665
In       3.78664954       3.07494352       2.77526216        6       0.00842383       0.00202300       0.00216665
In       3.82717704       0.25091661       0.92281509        7      -0.00842383       0.00202300      -0.00216665
O        1.96713263       3.40908309       6.35275879        8       0.01597811      -0.02598633      -0.00989940
O        0.57080957       0.58505619       4.74147297        9      -0.01597811      -0.02598633       0.00989940
O        0.57080957       2.23897072       2.65468153       10      -0.01597811       0.02598633      -0.00989940
O        1.96713263       5.06299762       1.04339572       11       0.01597811       0.02598633       0.00989940
O        3.10875176       2.23897072       1.04339572       12      -0.01597811       0.02598633       0.00989940
O        4.50507482       5.06299762       2.65468153       13       0.01597811       0.02598633      -0.00989940
O        4.50507482       3.40908309       4.74147297       14       0.01597811      -0.02598633       0.00989940
O        3.10875176       0.58505619       6.35275879       15      -0.01597811      -0.02598633      -0.00989940
O        4.71864620       4.23604036       0.00000000       16      -0.00032653       0.00000000       0.00000000
O        2.89518038       1.41201345       3.69807725       17       0.00032653       0.00000000       0.00000000
O        0.35723818       1.41201345       0.00000000       18       0.00032653       0.00000000       0.00000000
O        2.18070401       4.23604036       3.69807725       19      -0.00032653      -0.00000000       0.00000000
20
Lattice="5.075790684944039 -7.898792608334986e-59 -1.7595605813535967e-43 1.1819734296136702e-58 5.6466809801368125 -2.054707021203708e-17 -4.0568633822423107e-44 -5.277971875519148e-17 7.398089245821846" Properties=species:S:1:pos:R:3:spacegroup_kinds:I:1:forces:R:3 spacegroup="P 1" unit_cell=conventional occupancy="_JSON {\"0\": {\"In\": 1}, \"1\": {\"In\": 1}, \"2\": {\"In\": 1}, \"3\": {\"In\": 1}, \"4\": {\"In\": 1}, \"5\": {\"In\": 1}, \"6\": {\"In\": 1}, \"7\": {\"In\": 1}, \"8\": {\"O\": 1}, \"9\": {\"O\": 1}, \"10\": {\"O\": 1}, \"11\": {\"O\": 1}, \"12\": {\"O\": 1}, \"13\": {\"O\": 1}, \"14\": {\"O\": 1}, \"15\": {\"O\": 1}, \"16\": {\"O\": 1}, \"17\": {\"O\": 1}, \"18\": {\"O\": 1}, \"19\": {\"O\": 1}}" n_minim_iter=8 energy=-22573.22301415386 stress="-0.13360209497867961 2.3205388184639164e-13 2.0561412703031227e-13 2.3205388184639164e-13 -0.1335380166847261 -1.0836905931623112e-13 2.0561412703031227e-13 -1.0836905931623112e-13 -0.13357040352591387" free_energy=-22573.22301415386 pbc="T T T"
In       1.24818373       3.07524655       0.92276828        0       0.00648741       0.00456226       0.00442655
In       1.28971161       0.25190606       2.77627634        1      -0.00648741       0.00456226      -0.00442655
In       1.28971161       2.57143443       4.62181290        2      -0.00648741      -0.00456226       0.00442655
In       1.24818373       5.39477492       6.47532097        3       0.00648741      -0.00456226      -0.00442655
In       3.82760695       2.57143443       6.47532097        4      -0.00648741      -0.00456226      -0.00442655
In       3.78607907       5.39477492       4.62181290        5       0.00648741      -0.00456226       0.00442655
In       3.78607907       3.07524655       2.77627634        6       0.00648741       0.00456226      -0.00442655
In       3.82760695       0.25190606       0.92276828        7      -0.00648741       0.00456226       0.00442655
O        1.96807545       3.40599710       6.35416783        8      -0.00540001      -0.00217535       0.00116348
O        0.56981989       0.58265661       4.74296604        9       0.00540001      -0.00217535      -0.00116348
O        0.56981989       2.24068388       2.65512320       10       0.00540001       0.00217535       0.00116348
O        1.96807545       5.06402437       1.04392142       11      -0.00540001       0.00217535      -0.00116348
O        3.10771523       2.24068388       1.04392142       12       0.00540001       0.00217535      -0.00116348
O        4.50597079       5.06402437       2.65512320       13      -0.00540001       0.00217535       0.00116348
O        4.50597079       3.40599710       4.74296604       14      -0.00540001      -0.00217535      -0.00116348
O        3.10771523       0.58265661       6.35416783       15       0.00540001      -0.00217535       0.00116348
O        4.71861776       4.23501074       0.00000000       16       0.00548027       0.00000000       0.00000000
O        2.89506827       1.41167025       3.69904462       17      -0.00548027      -0.00000000       0.00000000
O        0.35717292       1.41167025       0.00000000       18      -0.00548027      -0.00000000      -0.00000000
O        2.18072242       4.23501074       3.69904462       19       0.00548027      -0.00000000      -0.00000000
