20
Lattice="5.637290051185145 -1.3017455523723941e-62 1.005248876613302e-43 5.97768183924791e-63 5.731618096407787 4.069953047374129e-19 -1.4539250830556469e-43 -5.789632096674788e-19 8.153401208953591" Properties=species:S:1:pos:R:3:spacegroup_kinds:I:1:forces:R:3 spacegroup="P 1" unit_cell=conventional occupancy="_JSON {\"0\": {\"In\": 1}, \"1\": {\"In\": 1}, \"2\": {\"In\": 1}, \"3\": {\"In\": 1}, \"4\": {\"In\": 1}, \"5\": {\"In\": 1}, \"6\": {\"In\": 1}, \"7\": {\"In\": 1}, \"8\": {\"O\": 1}, \"9\": {\"O\": 1}, \"10\": {\"O\": 1}, \"11\": {\"O\": 1}, \"12\": {\"O\": 1}, \"13\": {\"O\": 1}, \"14\": {\"O\": 1}, \"15\": {\"O\": 1}, \"16\": {\"O\": 1}, \"17\": {\"O\": 1}, \"18\": {\"O\": 1}, \"19\": {\"O\": 1}}" n_minim_iter=1 energy=-22574.913724076338 stress="0.014083868540598576 1.559165880422999e-13 -2.0166101509240068e-13 1.559165880422999e-13 0.015586437337801427 -1.3567802773233443e-13 -2.0166101509240068e-13 -1.3567802773233443e-13 0.01379476443935021" free_energy=-22574.913724076338 pbc="T T T"
In       1.39836692       3.02827494       0.93469763        0      -0.02229139      -0.07746666       0.03575016
In       1.42027811       0.16246589       3.14200297        1       0.02229139      -0.07746666      -0.03575016
In       1.42027811       2.70334315       5.01139824        2       0.02229139       0.07746666       0.03575016
In       1.39836692       5.56915220       7.21870358        3      -0.02229139       0.07746666      -0.03575016
In       4.23892313       2.70334315       7.21870358        4       0.02229139       0.07746666      -0.03575016
In       4.21701194       5.56915220       5.01139824        5      -0.02229139       0.07746666       0.03575016
In       4.21701194       3.02827494       3.14200297        6      -0.02229139      -0.07746666      -0.03575016
In       4.23892313       0.16246589       0.93469763        7       0.02229139      -0.07746666       0.03575016
O        2.19972953       3.46174336       6.92469407        8       0.01316027      -0.03692806      -0.02098469
O        0.61891549       0.59593431       5.30540774        9      -0.01316027      -0.03692806       0.02098469
O        0.61891549       2.26987473       2.84799347       10      -0.01316027       0.03692806      -0.02098469
O        2.19972953       5.13568378       1.22870714       11       0.01316027       0.03692806       0.02098469
O        3.43756052       2.26987473       1.22870714       12      -0.01316027       0.03692806       0.02098469
O        5.01837456       5.13568378       2.84799347       13       0.01316027       0.03692806      -0.02098469
O        5.01837456       3.46174336       5.30540774       14       0.01316027      -0.03692806       0.02098469
O        3.43756052       0.59593431       6.92469407       15      -0.01316027      -0.03692806      -0.02098469
O        5.40197399       4.29871357      -0.00000000       16      -0.04688913       0.00000000      -0.00000000
O        3.05396109       1.43290452       4.07670060       17       0.04688913       0.00000000       0.00000000
O        0.23531606       1.43290452      -0.00000000       18       0.04688913       0.00000000       0.00000000
O        2.58332896       4.29871357       4.07670060       19      -0.04688913       0.00000000       0.00000000
20
Lattice="5.642857413332132 -1.3005962144100244e-62 1.0044610227993888e-43 5.94187046532788e-63 5.71627939770569 4.076847822732232e-19 -1.4589634888918931e-43 -5.774138143513025e-19 8.167213621304759" Properties=species:S:1:pos:R:3:spacegroup_kinds:I:1:forces:R:3 spacegroup="P 1" unit_cell=conventional occupancy="_JSON {\"0\": {\"In\": 1}, \"1\": {\"In\": 1}, \"2\": {\"In\": 1}, \"3\": {\"In\": 1}, \"4\": {\"In\": 1}, \"5\": {\"In\": 1}, \"6\": {\"In\": 1}, \"7\": {\"In\": 1}, \"8\": {\"O\": 1}, \"9\": {\"O\": 1}, \"10\": {\"O\": 1}, \"11\": {\"O\": 1}, \"12\": {\"O\": 1}, \"13\": {\"O\": 1}, \"14\": {\"O\": 1}, \"15\": {\"O\": 1}, \"16\": {\"O\": 1}, \"17\": {\"O\": 1}, \"18\": {\"O\": 1}, \"19\": {\"O\": 1}}" n_minim_iter=2 energy=-22574.914718535754 stress="0.014330071120831804 5.957464660590791e-13 -2.4339989015297057e-13 5.957464660590791e-13 0.01352344353151772 5.621264740611888e-13 -2.4339989015297057e-13 5.621264740611888e-13 0.014860478930199553" free_energy=-22574.914718535754 pbc="T T T"
In       1.39954124       3.01945512       0.93661280        0      -0.01824692      -0.08111773       0.04394971
In       1.42188747       0.16131542       3.14699401        1       0.01824692      -0.08111773      -0.04394971
In       1.42188747       2.69682428       5.02021961        2       0.01824692       0.08111773       0.04394971
In       1.39954124       5.55496397       7.23060082        3      -0.01824692       0.08111773      -0.04394971
In       4.24331617       2.69682428       7.23060082        4       0.01824692       0.08111773      -0.04394971
In       4.22096995       5.55496397       5.02021961        5      -0.01824692       0.08111773       0.04394971
In       4.22096995       3.01945512       3.14699401        6      -0.01824692      -0.08111773      -0.04394971
In       4.24331617       0.16131542       0.93661280        7       0.01824692      -0.08111773       0.04394971
O        2.20202400       3.45213804       6.93623025        8       0.00732111      -0.03723027      -0.02053905
O        0.61940470       0.59399834       5.31459018        9      -0.00732111      -0.03723027       0.02053905
O        0.61940470       2.26414136       2.85262344       10      -0.00732111       0.03723027      -0.02053905
O        2.20202400       5.12228106       1.23098337       11       0.00732111       0.03723027       0.02053905
O        3.44083341       2.26414136       1.23098337       12      -0.00732111       0.03723027       0.02053905
O        5.02345271       5.12228106       2.85262344       13       0.00732111       0.03723027      -0.02053905
O        5.02345271       3.45213804       5.31459018       14       0.00732111      -0.03723027       0.02053905
O        3.44083341       0.59399834       6.93623025       15      -0.00732111      -0.03723027      -0.02053905
O        5.40687417       4.28720955      -0.00000000       16      -0.03148551       0.00000000      -0.00000000
O        3.05741195       1.42906985       4.08360681       17       0.03148551       0.00000000      -0.00000000
O        0.23598324       1.42906985      -0.00000000       18       0.03148551       0.00000000      -0.00000000
O        2.58544546       4.28720955       4.08360681       19      -0.03148551       0.00000000       0.00000000
20
Lattice="5.651741211120901 -1.301285676098513e-62 1.0621910109200606e-43 1.0730089400775816e-62 5.71338971137754 4.072498275488061e-19 -5.011686377767737e-44 -5.771219208504907e-19 8.158500104626258" Properties=species:S:1:pos:R:3:spacegroup_kinds:I:1:forces:R:3 spacegroup="P 1" unit_cell=conventional occupancy="_JSON {\"0\": {\"In\": 1}, \"1\": {\"In\": 1}, \"2\": {\"In\": 1}, \"3\": {\"In\": 1}, \"4\": {\"In\": 1}, \"5\": {\"In\": 1}, \"6\": {\"In\": 1}, \"7\": {\"In\": 1}, \"8\": {\"O\": 1}, \"9\": {\"O\": 1}, \"10\": {\"O\": 1}, \"11\": {\"O\": 1}, \"12\": {\"O\": 1}, \"13\": {\"O\": 1}, \"14\": {\"O\": 1}, \"15\": {\"O\": 1}, \"16\": {\"O\": 1}, \"17\": {\"O\": 1}, \"18\": {\"O\": 1}, \"19\": {\"O\": 1}}" n_minim_iter=3 energy=-22574.917058260122 stress="0.014813283464359905 2.3505336714543134e-13 -1.2235723604069398e-13 2.3505336714543134e-13 0.013169828800449639 1.2970723028395235e-13 -1.2235723604069398e-13 1.2970723028395235e-13 0.0125154626768998" free_energy=-22574.917058260122 pbc="T T T"
In       1.40069492       3.01376744       0.93774716        0       0.00994278      -0.02246523       0.01102930
In       1.42517569       0.15707258       3.14150289        1      -0.00994278      -0.02246523      -0.01102930
In       1.42517569       2.69962227       5.01699722        2      -0.00994278       0.02246523       0.01102930
In       1.40069492       5.55631713       7.22075294        3       0.00994278       0.02246523      -0.01102930
In       4.25104630       2.69962227       7.22075294        4      -0.00994278       0.02246523      -0.01102930
In       4.22656552       5.55631713       5.01699722        5       0.00994278       0.02246523       0.01102930
In       4.22656552       3.01376744       3.14150289        6       0.00994278      -0.02246523      -0.01102930
In       4.25104630       0.15707258       0.93774716        7      -0.00994278      -0.02246523       0.01102930
O        2.20600391       3.44845323       6.92773979        8       0.00622939      -0.01072785       0.01454934
O        0.61986670       0.59175837       5.31001036        9      -0.00622939      -0.01072785      -0.01454934
O        0.61986670       2.26493649       2.84848974       10      -0.00622939       0.01072785       0.01454934
O        2.20600391       5.12163134       1.23076031       11       0.00622939       0.01072785      -0.01454934
O        3.44573730       2.26493649       1.23076031       12      -0.00622939       0.01072785      -0.01454934
O        5.03187452       5.12163134       2.84848974       13       0.00622939       0.01072785       0.01454934
O        5.03187452       3.44845323       5.31001036       14       0.00622939      -0.01072785      -0.01454934
O        3.44573730       0.59175837       6.92773979       15      -0.00622939      -0.01072785       0.01454934
O        5.41339136       4.28504228      -0.00000000       16       0.00867911      -0.00000000      -0.00000000
O        3.06422046       1.42834743       4.07925005       17      -0.00867911       0.00000000      -0.00000000
O        0.23834985       1.42834743      -0.00000000       18      -0.00867911      -0.00000000      -0.00000000
O        2.58752076       4.28504228       4.07925005       19       0.00867911       0.00000000      -0.00000000
20
Lattice="5.643169106787354 5.170998011672184e-62 9.930857703551085e-44 1.1118097182740763e-62 5.715452316880682 3.997245385354152e-18 -4.230411213439919e-44 4.528877066366386e-18 8.167944324323459" Properties=species:S:1:pos:R:3:spacegroup_kinds:I:1:forces:R:3 spacegroup="P 1" unit_cell=conventional occupancy="_JSON {\"0\": {\"In\": 1}, \"1\": {\"In\": 1}, \"2\": {\"In\": 1}, \"3\": {\"In\": 1}, \"4\": {\"In\": 1}, \"5\": {\"In\": 1}, \"6\": {\"In\": 1}, \"7\": {\"In\": 1}, \"8\": {\"O\": 1}, \"9\": {\"O\": 1}, \"10\": {\"O\": 1}, \"11\": {\"O\": 1}, \"12\": {\"O\": 1}, \"13\": {\"O\": 1}, \"14\": {\"O\": 1}, \"15\": {\"O\": 1}, \"16\": {\"O\": 1}, \"17\": {\"O\": 1}, \"18\": {\"O\": 1}, \"19\": {\"O\": 1}}" n_minim_iter=4 energy=-22574.917611171637 stress="0.013293340410140322 7.365313279206572e-14 5.004297043535348e-13 7.365313279206572e-14 0.01333858974840436 3.597312748404108e-13 5.004297043535348e-13 3.597312748404108e-13 0.013341636046390012" free_energy=-22574.917611171637 pbc="T T T"
In       1.39837861       3.01375561       0.93939495        0       0.00177978      -0.00594987       0.00522440
In       1.42320594       0.15602945       3.14457721        1      -0.00177978      -0.00594987      -0.00522440
In       1.42320594       2.70169670       5.02336712        2      -0.00177978       0.00594987       0.00522440
In       1.39837861       5.55942286       7.22854937        3       0.00177978       0.00594987      -0.00522440
In       4.24479050       2.70169670       7.22854937        4      -0.00177978       0.00594987      -0.00522440
In       4.21996316       5.55942286       5.02336712        5       0.00177978       0.00594987       0.00522440
In       4.21996316       3.01375561       3.14457721        6       0.00177978      -0.00594987      -0.00522440
In       4.24479050       0.15602945       0.93939495        7      -0.00177978      -0.00594987       0.00522440
O        2.20281240       3.44918413       6.93558229        8      -0.00187487      -0.00041396       0.01380034
O        0.61877216       0.59145797       5.31633420        9       0.00187487      -0.00041396      -0.01380034
O        0.61877216       2.26626819       2.85161013       10       0.00187487       0.00041396       0.01380034
O        2.20281240       5.12399435       1.23236204       11      -0.00187487       0.00041396      -0.01380034
O        3.44035671       2.26626819       1.23236204       12       0.00187487       0.00041396      -0.01380034
O        5.02439695       5.12399435       2.85161013       13      -0.00187487       0.00041396       0.01380034
O        5.02439695       3.44918413       5.31633420       14      -0.00187487      -0.00041396      -0.01380034
O        3.44035671       0.59145797       6.93558229       15       0.00187487      -0.00041396       0.01380034
O        5.40476037       4.28658924      -0.00000000       16       0.02014094      -0.00000000      -0.00000000
O        3.05999329       1.42886308       4.08397216       17      -0.02014094       0.00000000      -0.00000000
O        0.23840874       1.42886308      -0.00000000       18      -0.02014094      -0.00000000       0.00000000
O        2.58317581       4.28658924       4.08397216       19       0.02014094      -0.00000000       0.00000000
20
Lattice="5.645166034529802 -1.3670867387890152e-61 2.7530769474350997e-43 -9.53519749646167e-62 5.713112888686967 -3.4689178828985615e-18 2.440475375561033e-43 -6.0905476237503135e-18 8.168398445188506" Properties=species:S:1:pos:R:3:spacegroup_kinds:I:1:forces:R:3 spacegroup="P 1" unit_cell=conventional occupancy="_JSON {\"0\": {\"In\": 1}, \"1\": {\"In\": 1}, \"2\": {\"In\": 1}, \"3\": {\"In\": 1}, \"4\": {\"In\": 1}, \"5\": {\"In\": 1}, \"6\": {\"In\": 1}, \"7\": {\"In\": 1}, \"8\": {\"O\": 1}, \"9\": {\"O\": 1}, \"10\": {\"O\": 1}, \"11\": {\"O\": 1}, \"12\": {\"O\": 1}, \"13\": {\"O\": 1}, \"14\": {\"O\": 1}, \"15\": {\"O\": 1}, \"16\": {\"O\": 1}, \"17\": {\"O\": 1}, \"18\": {\"O\": 1}, \"19\": {\"O\": 1}}" n_minim_iter=5 energy=-22574.917869593908 stress="0.013290311933669611 -5.318470565402267e-13 -2.0234218044621208e-14 -5.318470565402267e-13 0.013302468760597399 7.832550081334261e-13 -2.0234218044621208e-14 7.832550081334261e-13 0.01323608243077213" free_energy=-22574.917869593908 pbc="T T T"
In       1.39901384       3.01114536       0.94045092        0      -0.00364661       0.00006862      -0.00317463
In       1.42356918       0.15458892       3.14374831        1       0.00364661       0.00006862       0.00317463
In       1.42356918       2.70196753       5.02465014        2       0.00364661      -0.00006862      -0.00317463
In       1.39901384       5.55852397       7.22794753        3      -0.00364661      -0.00006862       0.00317463
In       4.24615220       2.70196753       7.22794753        4       0.00364661      -0.00006862       0.00317463
In       4.22159685       5.55852397       5.02465014        5      -0.00364661      -0.00006862      -0.00317463
In       4.22159685       3.01114536       3.14374831        6      -0.00364661       0.00006862       0.00317463
In       4.24615220       0.15458892       0.94045092        7       0.00364661       0.00006862      -0.00317463
O        2.20341888       3.44744769       6.93775312        8      -0.00225309       0.00006889      -0.00101795
O        0.61916414       0.59089125       5.31484455        9       0.00225309       0.00006889       0.00101795
O        0.61916414       2.26566519       2.85355390       10       0.00225309      -0.00006889      -0.00101795
O        2.20341888       5.12222164       1.23064532       11      -0.00225309      -0.00006889       0.00101795
O        3.44174716       2.26566519       1.23064532       12       0.00225309      -0.00006889       0.00101795
O        5.02600189       5.12222164       2.85355390       13      -0.00225309      -0.00006889      -0.00101795
O        5.02600189       3.44744769       5.31484455       14      -0.00225309       0.00006889       0.00101795
O        3.44174716       0.59089125       6.93775312       15       0.00225309       0.00006889      -0.00101795
O        5.40918762       4.28483467      -0.00000000       16       0.00391141       0.00000000      -0.00000000
O        3.05856143       1.42827822       4.08419922       17      -0.00391141      -0.00000000      -0.00000000
O        0.23597842       1.42827822      -0.00000000       18      -0.00391141       0.00000000       0.00000000
O        2.58660460       4.28483467       4.08419922       19       0.00391141       0.00000000       0.00000000
