20
Lattice="5.67764298467469 -1.897686223387237e-58 -1.0681657437933597e-43 2.2820278092963064e-58 6.046279512922883 1.60276198455231e-15 -9.416525054707927e-44 -2.864647473374061e-16 5.615229835498144" Properties=species:S:1:pos:R:3:spacegroup_kinds:I:1:forces:R:3 spacegroup="P 1" unit_cell=conventional occupancy="_JSON {\"0\": {\"In\": 1}, \"1\": {\"In\": 1}, \"2\": {\"In\": 1}, \"3\": {\"In\": 1}, \"4\": {\"In\": 1}, \"5\": {\"In\": 1}, \"6\": {\"In\": 1}, \"7\": {\"In\": 1}, \"8\": {\"O\": 1}, \"9\": {\"O\": 1}, \"10\": {\"O\": 1}, \"11\": {\"O\": 1}, \"12\": {\"O\": 1}, \"13\": {\"O\": 1}, \"14\": {\"O\": 1}, \"15\": {\"O\": 1}, \"16\": {\"O\": 1}, \"17\": {\"O\": 1}, \"18\": {\"O\": 1}, \"19\": {\"O\": 1}}" n_minim_iter=12 energy=-22579.29905756301 stress="-0.04220594778039866 -1.2649081773461238e-12 -2.6492814975565255e-13 -1.2649081773461238e-12 -0.042244236764231724 -6.028528432044068e-13 -2.6492814975565255e-13 -6.028528432044068e-13 -0.04212140557982916" free_energy=-22579.29905756301 pbc="T T T"
In       1.46646964       3.34309828       0.66278214        0       0.00415320      -0.00528619      -0.00526956
In       1.37235185       0.31995852       2.14483277        1      -0.00415320      -0.00528619       0.00526956
In       1.37235185       2.70318124       3.47039706        2      -0.00415320       0.00528619      -0.00526956
In       1.46646964       5.72632099       4.95244769        3       0.00415320       0.00528619       0.00526956
In       4.21117334       2.70318124       4.95244769        4      -0.00415320       0.00528619       0.00526956
In       4.30529114       5.72632099       3.47039706        5       0.00415320       0.00528619      -0.00526956
In       4.30529114       3.34309828       2.14483277        6       0.00415320      -0.00528619       0.00526956
In       4.21117334       0.31995852       0.66278214        7      -0.00415320      -0.00528619      -0.00526956
O        2.74190397       4.05243895       4.37852920        8      -0.00608221      -0.00354306      -0.00164697
O        0.09691753       1.02929919       4.04431556        9       0.00608221      -0.00354306       0.00164697
O        0.09691753       1.99384057       1.57091428       10       0.00608221       0.00354306      -0.00164697
O        2.74190397       5.01698032       1.23670064       11      -0.00608221       0.00354306       0.00164697
O        2.93573902       1.99384057       1.23670064       12       0.00608221       0.00354306       0.00164697
O        5.58072546       5.01698032       1.57091428       13      -0.00608221       0.00354306      -0.00164697
O        5.58072546       4.05243895       4.04431556       14      -0.00608221      -0.00354306       0.00164697
O        2.93573902       1.02929919       4.37852920       15       0.00608221      -0.00354306      -0.00164697
O        5.41051851       4.53470963      -0.00000000       16       0.00039697      -0.00000000       0.00000000
O        3.10594596       1.51156988       2.80761492       17      -0.00039697      -0.00000000       0.00000000
O        0.26712447       1.51156988      -0.00000000       18      -0.00039697       0.00000000      -0.00000000
O        2.57169702       4.53470963       2.80761492       19       0.00039697      -0.00000000       0.00000000
