20
Lattice="5.027554584422595 -7.801378516846906e-59 4.575667751381753e-44 8.919234386605087e-59 5.821796932201959 1.25905948095894e-16 -6.793058268946213e-44 -1.614198157222337e-16 7.463931626586532" Properties=species:S:1:pos:R:3:spacegroup_kinds:I:1:forces:R:3 spacegroup="P 1" unit_cell=conventional occupancy="_JSON {\"0\": {\"In\": 1}, \"1\": {\"In\": 1}, \"2\": {\"In\": 1}, \"3\": {\"In\": 1}, \"4\": {\"In\": 1}, \"5\": {\"In\": 1}, \"6\": {\"In\": 1}, \"7\": {\"In\": 1}, \"8\": {\"O\": 1}, \"9\": {\"O\": 1}, \"10\": {\"O\": 1}, \"11\": {\"O\": 1}, \"12\": {\"O\": 1}, \"13\": {\"O\": 1}, \"14\": {\"O\": 1}, \"15\": {\"O\": 1}, \"16\": {\"O\": 1}, \"17\": {\"O\": 1}, \"18\": {\"O\": 1}, \"19\": {\"O\": 1}}" n_minim_iter=1 energy=-22573.858105665426 stress="-0.09492334546286418 -3.1914869607776093e-13 3.2749420088408215e-13 -3.1914869607776093e-13 -0.07955654228701951 4.299892628829139e-13 3.2749420088408215e-13 4.299892628829139e-13 -0.08522105385169093" free_energy=-22573.858105665426 pbc="T T T"
In       1.24545800       3.16295535       0.89850712        0       0.00519953       0.04787507       0.12081391
In       1.26831929       0.25205688       2.83345870        1      -0.00519953       0.04787507      -0.12081391
In       1.26831929       2.65884158       4.63047293        2      -0.00519953      -0.04787507       0.12081391
In       1.24545800       5.56974005       6.56542451        3       0.00519953      -0.04787507      -0.12081391
In       3.78209658       2.65884158       6.56542451        4      -0.00519953      -0.04787507      -0.12081391
In       3.75923529       5.56974005       4.63047293        5       0.00519953      -0.04787507       0.12081391
In       3.75923529       3.16295535       2.83345870        6       0.00519953       0.04787507      -0.12081391
In       3.78209658       0.25205688       0.89850712        7      -0.00519953       0.04787507       0.12081391
O        1.93300759       3.52975588       6.37925103        8      -0.00970797       0.04067314       0.05289385
O        0.58076970       0.61885742       4.81664641        9       0.00970797       0.04067314      -0.05289385
O        0.58076970       2.29204105       2.64728522       10       0.00970797      -0.04067314       0.05289385
O        1.93300759       5.20293951       1.08468059       11      -0.00970797      -0.04067314      -0.05289385
O        3.09454699       2.29204105       1.08468059       12       0.00970797      -0.04067314      -0.05289385
O        4.44678488       5.20293951       2.64728522       13      -0.00970797      -0.04067314       0.05289385
O        4.44678488       3.52975588       4.81664641       14      -0.00970797       0.04067314      -0.05289385
O        3.09454699       0.61885742       6.37925103       15       0.00970797       0.04067314       0.05289385
O        4.68564299       4.36634770       0.00000000       16      -0.10809194      -0.00000000       0.00000000
O        2.85568888       1.45544923       3.73196581       17       0.10809194       0.00000000       0.00000000
O        0.34191159       1.45544923       0.00000000       18       0.10809194       0.00000000      -0.00000000
O        2.17186570       4.36634770       3.73196581       19      -0.10809194      -0.00000000       0.00000000
20
Lattice="5.060532386199103 -7.923570832315925e-59 5.941412036312151e-44 8.670737766877134e-59 5.789952115355108 1.126431793252146e-16 -8.340418267372651e-44 -1.7772009005887115e-16 7.456075880473913" Properties=species:S:1:pos:R:3:spacegroup_kinds:I:1:forces:R:3 spacegroup="P 1" unit_cell=conventional occupancy="_JSON {\"0\": {\"In\": 1}, \"1\": {\"In\": 1}, \"2\": {\"In\": 1}, \"3\": {\"In\": 1}, \"4\": {\"In\": 1}, \"5\": {\"In\": 1}, \"6\": {\"In\": 1}, \"7\": {\"In\": 1}, \"8\": {\"O\": 1}, \"9\": {\"O\": 1}, \"10\": {\"O\": 1}, \"11\": {\"O\": 1}, \"12\": {\"O\": 1}, \"13\": {\"O\": 1}, \"14\": {\"O\": 1}, \"15\": {\"O\": 1}, \"16\": {\"O\": 1}, \"17\": {\"O\": 1}, \"18\": {\"O\": 1}, \"19\": {\"O\": 1}}" n_minim_iter=2 energy=-22573.868734002728 stress="-0.08191042016401419 2.4550666878225946e-13 -5.071461474857243e-13 2.4550666878225946e-13 -0.08193735589540167 -7.639889877953222e-13 -5.071461474857243e-13 -7.639889877953222e-13 -0.08438766540880942" free_energy=-22573.868734002728 pbc="T T T"
In       1.25364622       3.14582473       0.89799366        0       0.06653372      -0.04196525       0.14090620
In       1.27661998       0.25084867       2.83004428        1      -0.06653372      -0.04196525      -0.14090620
In       1.27661998       2.64412739       4.62603160        2      -0.06653372       0.04196525       0.14090620
In       1.25364622       5.53910345       6.55808222        3       0.06653372       0.04196525      -0.14090620
In       3.80688617       2.64412739       6.55808222        4      -0.06653372       0.04196525      -0.14090620
In       3.78391241       5.53910345       4.62603160        5       0.06653372       0.04196525       0.14090620
In       3.78391241       3.14582473       2.83004428        6       0.06653372      -0.04196525      -0.14090620
In       3.80688617       0.25084867       0.89799366        7      -0.06653372      -0.04196525       0.14090620
O        1.94565199       3.51059324       6.37272614        8       0.07230732      -0.03331585       0.07383107
O        0.58461420       0.61561718       4.81138768        9      -0.07230732      -0.03331585      -0.07383107
O        0.58461420       2.27935888       2.64468820       10      -0.07230732       0.03331585       0.07383107
O        1.94565199       5.17433494       1.08334974       11       0.07230732       0.03331585      -0.07383107
O        3.11488040       2.27935888       1.08334974       12      -0.07230732       0.03331586      -0.07383107
O        4.47591818       5.17433494       2.64468820       13       0.07230732       0.03331585       0.07383107
O        4.47591818       3.51059324       4.81138768       14       0.07230732      -0.03331585      -0.07383107
O        3.11488040       0.61561718       6.37272614       15      -0.07230732      -0.03331585       0.07383107
O        4.71598840       4.34246409       0.00000000       16      -0.05485764      -0.00000000      -0.00000000
O        2.87481018       1.44748803       3.72803794       17       0.05485764       0.00000000      -0.00000000
O        0.34454398       1.44748803       0.00000000       18       0.05485764       0.00000000      -0.00000000
O        2.18572221       4.34246409       3.72803794       19      -0.05485764      -0.00000000       0.00000000
20
Lattice="5.059586117690557 -7.9498898859428305e-59 5.926307520063359e-44 8.637565213019867e-59 5.777105437078159 9.636461247859209e-17 -8.383661359142881e-44 -1.9861746755109553e-16 7.474053695439384" Properties=species:S:1:pos:R:3:spacegroup_kinds:I:1:forces:R:3 spacegroup="P 1" unit_cell=conventional occupancy="_JSON {\"0\": {\"In\": 1}, \"1\": {\"In\": 1}, \"2\": {\"In\": 1}, \"3\": {\"In\": 1}, \"4\": {\"In\": 1}, \"5\": {\"In\": 1}, \"6\": {\"In\": 1}, \"7\": {\"In\": 1}, \"8\": {\"O\": 1}, \"9\": {\"O\": 1}, \"10\": {\"O\": 1}, \"11\": {\"O\": 1}, \"12\": {\"O\": 1}, \"13\": {\"O\": 1}, \"14\": {\"O\": 1}, \"15\": {\"O\": 1}, \"16\": {\"O\": 1}, \"17\": {\"O\": 1}, \"18\": {\"O\": 1}, \"19\": {\"O\": 1}}" n_minim_iter=3 energy=-22573.87056324772 stress="-0.08267352118319436 -1.4321408385122838e-13 2.2528837822940375e-13 -1.4321408385122838e-13 -0.08367039567359952 2.7604233917627256e-13 2.2528837822940375e-13 2.7604233917627256e-13 -0.07981249890276167" free_energy=-22573.87056324772 pbc="T T T"
In       1.25390152       3.13857525       0.90125112        0       0.03326236      -0.04933304       0.13042605
In       1.27589154       0.25002253       2.83577573        1      -0.03326236      -0.04933304      -0.13042605
In       1.27589154       2.63853019       4.63827797        2      -0.03326236       0.04933304       0.13042605
In       1.25390152       5.52708291       6.57280258        3       0.03326236       0.04933304      -0.13042605
In       3.80568460       2.63853019       6.57280258        4      -0.03326236       0.04933304      -0.13042605
In       3.78369458       5.52708291       4.63827797        5       0.03326236       0.04933304       0.13042605
In       3.78369458       3.13857525       2.83577573        6       0.03326236      -0.04933304      -0.13042605
In       3.80568460       0.25002253       0.90125112        7      -0.03326236      -0.04933304       0.13042605
O        1.94581083       3.50259161       6.38865768        8       0.02932531      -0.04818727       0.07464031
O        0.58398223       0.61403889       4.82242286        9      -0.02932531      -0.04818727      -0.07464031
O        0.58398223       2.27451383       2.65163083       10      -0.02932531       0.04818727       0.07464031
O        1.94581083       5.16306655       1.08539601       11       0.02932531       0.04818727      -0.07464031
O        3.11377528       2.27451383       1.08539601       12      -0.02932531       0.04818727      -0.07464031
O        4.47560389       5.16306655       2.65163083       13       0.02932531       0.04818727       0.07464031
O        4.47560389       3.50259161       4.82242286       14       0.02932531      -0.04818727      -0.07464031
O        3.11377528       0.61403889       6.38865768       15      -0.02932531      -0.04818727       0.07464031
O        4.71463815       4.33282908       0.00000000       16      -0.03750037      -0.00000000      -0.00000000
O        2.87474102       1.44427636       3.73702685       17       0.03750037       0.00000000      -0.00000000
O        0.34494796       1.44427636       0.00000000       18       0.03750037      -0.00000000      -0.00000000
O        2.18484509       4.33282908       3.73702685       19      -0.03750037       0.00000000      -0.00000000
20
Lattice="5.067308206933943 -8.01253190863298e-59 5.945797185574889e-44 8.584456589975163e-59 5.774977280596891 9.033227671829108e-17 -8.366138479399325e-44 -2.0613358257936146e-16 7.465414049697895" Properties=species:S:1:pos:R:3:spacegroup_kinds:I:1:forces:R:3 spacegroup="P 1" unit_cell=conventional occupancy="_JSON {\"0\": {\"In\": 1}, \"1\": {\"In\": 1}, \"2\": {\"In\": 1}, \"3\": {\"In\": 1}, \"4\": {\"In\": 1}, \"5\": {\"In\": 1}, \"6\": {\"In\": 1}, \"7\": {\"In\": 1}, \"8\": {\"O\": 1}, \"9\": {\"O\": 1}, \"10\": {\"O\": 1}, \"11\": {\"O\": 1}, \"12\": {\"O\": 1}, \"13\": {\"O\": 1}, \"14\": {\"O\": 1}, \"15\": {\"O\": 1}, \"16\": {\"O\": 1}, \"17\": {\"O\": 1}, \"18\": {\"O\": 1}, \"19\": {\"O\": 1}}" n_minim_iter=4 energy=-22573.876692835627 stress="-0.0810756305243473 -5.162785152809876e-13 -6.085613467218801e-13 -5.162785152809876e-13 -0.08126456432147744 5.511902585667079e-13 -6.085613467218801e-13 5.511902585667079e-13 -0.07993911454682452" free_energy=-22573.876692835627 pbc="T T T"
In       1.25748664       3.13607299       0.90472341        0      -0.02331555       0.01353666       0.04174883
In       1.27616746       0.24858435       2.82798362        1       0.02331555       0.01353666      -0.04174883
In       1.27616746       2.63890429       4.63743043        2       0.02331555      -0.01353666       0.04174883
In       1.25748664       5.52639293       6.56069064        3      -0.02331555      -0.01353666      -0.04174883
In       3.80982157       2.63890429       6.56069064        4       0.02331555      -0.01353666      -0.04174883
In       3.79114075       5.52639293       4.63743043        5      -0.02331555      -0.01353666       0.04174883
In       3.79114075       3.13607299       2.82798362        6      -0.02331555       0.01353666      -0.04174883
In       3.80982157       0.24858435       0.90472341        7       0.02331555       0.01353666       0.04174883
O        1.95047457       3.50010985       6.38371227        8      -0.00565450      -0.01107973       0.10331036
O        0.58317953       0.61262121       4.81440880        9       0.00565450      -0.01107973      -0.10331036
O        0.58317953       2.27486743       2.65100525       10       0.00565450       0.01107973       0.10331036
O        1.95047457       5.16235607       1.08170178       11      -0.00565450       0.01107973      -0.10331036
O        3.11683363       2.27486743       1.08170178       12       0.00565450       0.01107973      -0.10331036
O        4.48412868       5.16235607       2.65100525       13      -0.00565450       0.01107973       0.10331036
O        4.48412868       3.50010985       4.81440880       14      -0.00565450      -0.01107973      -0.10331036
O        3.11683363       0.61262121       6.38371227       15       0.00565450      -0.01107973       0.10331036
O        4.72015053       4.33123296       0.00000000       16      -0.00200223      -0.00000000      -0.00000000
O        2.88081178       1.44374432       3.73270702       17       0.00200223      -0.00000000       0.00000000
O        0.34715768       1.44374432       0.00000000       18       0.00200223       0.00000000       0.00000000
O        2.18649643       4.33123296       3.73270702       19      -0.00200223      -0.00000000       0.00000000
20
Lattice="5.073422307850429 -9.229768987861118e-59 5.957779577968845e-44 8.55524610441259e-59 5.772311680218351 8.241164506664963e-17 -1.1919662242730918e-43 -2.161062370074369e-16 7.459860607947713" Properties=species:S:1:pos:R:3:spacegroup_kinds:I:1:forces:R:3 spacegroup="P 1" unit_cell=conventional occupancy="_JSON {\"0\": {\"In\": 1}, \"1\": {\"In\": 1}, \"2\": {\"In\": 1}, \"3\": {\"In\": 1}, \"4\": {\"In\": 1}, \"5\": {\"In\": 1}, \"6\": {\"In\": 1}, \"7\": {\"In\": 1}, \"8\": {\"O\": 1}, \"9\": {\"O\": 1}, \"10\": {\"O\": 1}, \"11\": {\"O\": 1}, \"12\": {\"O\": 1}, \"13\": {\"O\": 1}, \"14\": {\"O\": 1}, \"15\": {\"O\": 1}, \"16\": {\"O\": 1}, \"17\": {\"O\": 1}, \"18\": {\"O\": 1}, \"19\": {\"O\": 1}}" n_minim_iter=5 energy=-22573.879935096014 stress="-0.07956794845926982 -1.073457382376465e-13 -3.094814434549813e-13 -1.073457382376465e-13 -0.07949990612846475 -1.3503502716678384e-13 -3.094814434549813e-13 -1.3503502716678384e-13 -0.07966764506443764" free_energy=-22573.879935096014 pbc="T T T"
In       1.25967960       3.13412357       0.90792186        0      -0.06189788       0.03887569       0.00314512
In       1.27703155       0.24796773       2.82200845        1       0.06189788       0.03887569      -0.00314512
In       1.27703155       2.63818811       4.63785216        2       0.06189788      -0.03887569       0.00314512
In       1.25967960       5.52434395       6.55193875        3      -0.06189788      -0.03887569      -0.00314512
In       3.81374270       2.63818811       6.55193875        4       0.06189788      -0.03887569      -0.00314512
In       3.79639076       5.52434395       4.63785216        5      -0.06189788      -0.03887569       0.00314512
In       3.79639076       3.13412357       2.82200845        6      -0.06189788       0.03887569      -0.00314512
In       3.81374270       0.24796773       0.90792186        7       0.06189788       0.03887569       0.00314512
O        1.95397828       3.49756758       6.38288212        8      -0.02243954       0.00030101       0.08263451
O        0.58273287       0.61141174       4.80690879        9       0.02243954       0.00030101      -0.08263451
O        0.58273287       2.27474410       2.65295182       10       0.02243954      -0.00030101       0.08263451
O        1.95397828       5.16089994       1.07697849       11      -0.02243954      -0.00030101      -0.08263451
O        3.11944403       2.27474410       1.07697849       12       0.02243954      -0.00030101      -0.08263451
O        4.49068944       5.16089994       2.65295182       13      -0.02243954      -0.00030101       0.08263451
O        4.49068944       3.49756758       4.80690879       14      -0.02243954       0.00030101      -0.08263451
O        3.11944403       0.61141174       6.38288212       15       0.02243954       0.00030101       0.08263451
O        4.72463649       4.32923376       0.00000000       16       0.01015085      -0.00000000      -0.00000000
O        2.88549697       1.44307792       3.72993030       17      -0.01015085       0.00000000      -0.00000000
O        0.34878582       1.44307792       0.00000000       18      -0.01015085      -0.00000000       0.00000000
O        2.18792533       4.32923376       3.72993030       19       0.01015085       0.00000000       0.00000000
20
Lattice="5.07714730210019 -9.407767996047503e-59 8.370458584702901e-44 8.207511846994423e-59 5.769493340861771 8.47889831427915e-17 -4.776824675180072e-44 -2.12927147548865e-16 7.458028861129272" Properties=species:S:1:pos:R:3:spacegroup_kinds:I:1:forces:R:3 spacegroup="P 1" unit_cell=conventional occupancy="_JSON {\"0\": {\"In\": 1}, \"1\": {\"In\": 1}, \"2\": {\"In\": 1}, \"3\": {\"In\": 1}, \"4\": {\"In\": 1}, \"5\": {\"In\": 1}, \"6\": {\"In\": 1}, \"7\": {\"In\": 1}, \"8\": {\"O\": 1}, \"9\": {\"O\": 1}, \"10\": {\"O\": 1}, \"11\": {\"O\": 1}, \"12\": {\"O\": 1}, \"13\": {\"O\": 1}, \"14\": {\"O\": 1}, \"15\": {\"O\": 1}, \"16\": {\"O\": 1}, \"17\": {\"O\": 1}, \"18\": {\"O\": 1}, \"19\": {\"O\": 1}}" n_minim_iter=6 energy=-22573.882386786874 stress="-0.07829781824177547 -7.426470714295111e-14 -9.424602552008667e-13 -7.426470714295111e-14 -0.07817082938784208 -4.918089158760735e-14 -9.424602552008667e-13 -4.918089158760735e-14 -0.07904260978012219" free_energy=-22573.882386786874 pbc="T T T"
In       1.25999913       3.13278045       0.91128797        0      -0.07214266       0.04040002      -0.00979740
In       1.27857453       0.24803378       2.81772646        1       0.07214266       0.04040002       0.00979740
In       1.27857453       2.63671289       4.64030240        2       0.07214266      -0.04040002      -0.00979740
In       1.25999913       5.52145956       6.54674089        3      -0.07214266      -0.04040002       0.00979740
In       3.81714818       2.63671289       6.54674089        4       0.07214266      -0.04040002       0.00979740
In       3.79857278       5.52145956       4.64030240        5      -0.07214266      -0.04040002      -0.00979740
In       3.79857278       3.13278045       2.81772646        6      -0.07214266       0.04040002       0.00979740
In       3.81714818       0.24803378       0.91128797        7       0.07214266       0.04040002      -0.00979740
O        1.95603660       3.49497098       6.38610989        8      -0.02277032      -0.00548522       0.03728526
O        0.58253705       0.61022431       4.80093340        9       0.02277032      -0.00548522      -0.03728526
O        0.58253705       2.27452236       2.65709546       10       0.02277032       0.00548522       0.03728526
O        1.95603660       5.15926903       1.07191897       11      -0.02277032       0.00548522      -0.03728526
O        3.12111070       2.27452236       1.07191897       12       0.02277032       0.00548522      -0.03728526
O        4.49461025       5.15926903       2.65709546       13      -0.02277032       0.00548522       0.03728526
O        4.49461025       3.49497098       4.80093340       14      -0.02277032      -0.00548522      -0.03728526
O        3.12111070       0.61022431       6.38610989       15       0.02277032      -0.00548522       0.03728526
O        4.72717143       4.32712001       0.00000000       16       0.00711345      -0.00000000      -0.00000000
O        2.88854952       1.44237334       3.72901443       17      -0.00711345       0.00000000       0.00000000
O        0.34997587       1.44237334       0.00000000       18      -0.00711345      -0.00000000       0.00000000
O        2.18859778       4.32712001       3.72901443       19       0.00711345      -0.00000000       0.00000000
20
Lattice="5.077519752166849 -8.834515583714636e-59 1.0774493255296423e-43 8.194411175204147e-59 5.767194698987496 9.035971474804218e-17 -8.347486788648271e-44 -2.0573561524433398e-16 7.460454137009272" Properties=species:S:1:pos:R:3:spacegroup_kinds:I:1:forces:R:3 spacegroup="P 1" unit_cell=conventional occupancy="_JSON {\"0\": {\"In\": 1}, \"1\": {\"In\": 1}, \"2\": {\"In\": 1}, \"3\": {\"In\": 1}, \"4\": {\"In\": 1}, \"5\": {\"In\": 1}, \"6\": {\"In\": 1}, \"7\": {\"In\": 1}, \"8\": {\"O\": 1}, \"9\": {\"O\": 1}, \"10\": {\"O\": 1}, \"11\": {\"O\": 1}, \"12\": {\"O\": 1}, \"13\": {\"O\": 1}, \"14\": {\"O\": 1}, \"15\": {\"O\": 1}, \"16\": {\"O\": 1}, \"17\": {\"O\": 1}, \"18\": {\"O\": 1}, \"19\": {\"O\": 1}}" n_minim_iter=7 energy=-22573.88392752872 stress="-0.07761388115497052 -8.665263689418698e-13 -8.644729711002124e-14 -8.665263689418698e-13 -0.07753395451897473 7.906467629577524e-13 -8.644729711002124e-14 7.906467629577524e-13 -0.07826298515527223" free_energy=-22573.88392752872 pbc="T T T"
In       1.25832935       3.13227211       0.91407944        0      -0.04876411       0.02665016      -0.00826442
In       1.28043052       0.24867476       2.81614763        1       0.04876411       0.02665016       0.00826442
In       1.28043052       2.63492259       4.64430651        2       0.04876411      -0.02665016      -0.00826442
In       1.25832935       5.51851994       6.54637470        3      -0.04876411      -0.02665016       0.00826442
In       3.81919040       2.63492259       6.54637470        4       0.04876411      -0.02665016       0.00826442
In       3.79708923       5.51851994       4.64430651        5      -0.04876411      -0.02665016      -0.00826442
In       3.79708923       3.13227211       2.81614763        6      -0.04876411       0.02665016       0.00826442
In       3.81919040       0.24867476       0.91407944        7       0.04876411       0.02665016      -0.00826442
O        1.95620275       3.49271177       6.39211405        8      -0.00966337      -0.02004126      -0.00351027
O        0.58255712       0.60911442       4.79856716        9       0.00966337      -0.02004126       0.00351027
O        0.58255712       2.27448293       2.66188698       10       0.00966337       0.02004126      -0.00351027
O        1.95620275       5.15808028       1.06834009       11      -0.00966337       0.02004126       0.00351027
O        3.12131700       2.27448293       1.06834009       12       0.00966337       0.02004126       0.00351027
O        4.49496263       5.15808028       2.66188698       13      -0.00966337       0.02004126      -0.00351027
O        4.49496263       3.49271177       4.79856716       14      -0.00966337      -0.02004126       0.00351027
O        3.12131700       0.60911442       6.39211405       15       0.00966337      -0.02004126      -0.00351027
O        4.72693480       4.32539602       0.00000000       16      -0.00341830      -0.00000000       0.00000000
O        2.88934483       1.44179867       3.73022707       17       0.00341830      -0.00000000       0.00000000
O        0.35058495       1.44179867       0.00000000       18       0.00341830      -0.00000000      -0.00000000
O        2.18817493       4.32539602       3.73022707       19      -0.00341830       0.00000000      -0.00000000
20
Lattice="5.075911941264054 -8.937811237606146e-59 1.0809522838627623e-43 8.103068872597466e-59 5.766188454825621 7.849217509852012e-17 -8.412113056136411e-44 -2.2098695214705522e-16 7.464119577988898" Properties=species:S:1:pos:R:3:spacegroup_kinds:I:1:forces:R:3 spacegroup="P 1" unit_cell=conventional occupancy="_JSON {\"0\": {\"In\": 1}, \"1\": {\"In\": 1}, \"2\": {\"In\": 1}, \"3\": {\"In\": 1}, \"4\": {\"In\": 1}, \"5\": {\"In\": 1}, \"6\": {\"In\": 1}, \"7\": {\"In\": 1}, \"8\": {\"O\": 1}, \"9\": {\"O\": 1}, \"10\": {\"O\": 1}, \"11\": {\"O\": 1}, \"12\": {\"O\": 1}, \"13\": {\"O\": 1}, \"14\": {\"O\": 1}, \"15\": {\"O\": 1}, \"16\": {\"O\": 1}, \"17\": {\"O\": 1}, \"18\": {\"O\": 1}, \"19\": {\"O\": 1}}" n_minim_iter=8 energy=-22573.884541063835 stress="-0.07757200822017009 1.8715999252587473e-13 5.657290961813484e-13 1.8715999252587473e-13 -0.0775489024744076 6.247522204073418e-14 5.657290961813484e-13 6.247522204073418e-14 -0.07775125966180388" free_energy=-22573.884541063835 pbc="T T T"
In       1.25630044       3.13248592       0.91522493        0      -0.01575851       0.01408504      -0.00378300
In       1.28165553       0.24939169       2.81683486        1       0.01575851       0.01408504       0.00378300
In       1.28165553       2.63370254       4.64728472        2       0.01575851      -0.01408504      -0.00378300
In       1.25630044       5.51679677       6.54889465        3      -0.01575851      -0.01408504       0.00378300
In       3.81961150       2.63370254       6.54889465        4       0.01575851      -0.01408504       0.00378300
In       3.79425641       5.51679677       4.64728472        5      -0.01575851      -0.01408504      -0.00378300
In       3.79425641       3.13248592       2.81683486        6      -0.01575851       0.01408504       0.00378300
In       3.81961150       0.24939169       0.91522493        7       0.01575851       0.01408504      -0.00378300
O        1.95533142       3.49137263       6.39661747        8       0.00259927      -0.02848126      -0.01470352
O        0.58262455       0.60827840       4.79956189        9      -0.00259927      -0.02848126       0.01470352
O        0.58262455       2.27481582       2.66455768       10      -0.00259927       0.02848126      -0.01470352
O        1.95533142       5.15791005       1.06750211       11       0.00259927       0.02848126       0.01470352
O        3.12058052       2.27481582       1.06750211       12      -0.00259927       0.02848126       0.01470352
O        4.49328739       5.15791005       2.66455768       13       0.00259927       0.02848126      -0.01470352
O        4.49328739       3.49137263       4.79956189       14       0.00259927      -0.02848126       0.01470352
O        3.12058052       0.60827840       6.39661747       15      -0.00259927      -0.02848126      -0.01470352
O        4.72520177       4.32464134       0.00000000       16      -0.00984786       0.00000000      -0.00000000
O        2.88866614       1.44154711       3.73205979       17       0.00984786       0.00000000       0.00000000
O        0.35071017       1.44154711       0.00000000       18       0.00984786       0.00000000       0.00000000
O        2.18724580       4.32464134       3.73205979       19      -0.00984786      -0.00000000       0.00000000
20
Lattice="5.074723501173327 -8.372651119828606e-59 8.404419129034756e-44 6.883414819283768e-59 5.765835240376829 8.526292389319864e-17 -4.850144979174481e-44 -2.123308144271953e-16 7.466324944566185" Properties=species:S:1:pos:R:3:spacegroup_kinds:I:1:forces:R:3 spacegroup="P 1" unit_cell=conventional occupancy="_JSON {\"0\": {\"In\": 1}, \"1\": {\"In\": 1}, \"2\": {\"In\": 1}, \"3\": {\"In\": 1}, \"4\": {\"In\": 1}, \"5\": {\"In\": 1}, \"6\": {\"In\": 1}, \"7\": {\"In\": 1}, \"8\": {\"O\": 1}, \"9\": {\"O\": 1}, \"10\": {\"O\": 1}, \"11\": {\"O\": 1}, \"12\": {\"O\": 1}, \"13\": {\"O\": 1}, \"14\": {\"O\": 1}, \"15\": {\"O\": 1}, \"16\": {\"O\": 1}, \"17\": {\"O\": 1}, \"18\": {\"O\": 1}, \"19\": {\"O\": 1}}" n_minim_iter=9 energy=-22573.88479935671 stress="-0.07766468150446405 -2.929041238955269e-13 -4.697071598401954e-13 -2.929041238955269e-13 -0.0776634142664334 2.5585487805547604e-13 -4.697071598401954e-13 2.5585487805547604e-13 -0.07755727344683677" free_energy=-22573.88479935671 pbc="T T T"
In       1.25507521       3.13287487       0.91544787        0       0.00594181       0.00868513      -0.00173644
In       1.28228654       0.24995725       2.81771460        1      -0.00594181       0.00868513       0.00173644
In       1.28228654       2.63296037       4.64861034        2      -0.00594181      -0.00868513      -0.00173644
In       1.25507521       5.51587799       6.55087708        3       0.00594181      -0.00868513       0.00173644
In       3.81964829       2.63296037       6.55087708        4      -0.00594181      -0.00868513       0.00173644
In       3.79243696       5.51587799       4.64861034        5       0.00594181      -0.00868513      -0.00173644
In       3.79243696       3.13287487       2.81771460        6       0.00594181       0.00868513       0.00173644
In       3.81964829       0.24995725       0.91544787        7      -0.00594181       0.00868513      -0.00173644
O        1.95475042       3.49040760       6.39858147        8       0.00739679      -0.02806950      -0.01023623
O        0.58261133       0.60748998       4.80090595        9      -0.00739679      -0.02806950       0.01023623
O        0.58261133       2.27542764       2.66541900       10      -0.00739679       0.02806950      -0.01023623
O        1.95475042       5.15834526       1.06774348       11       0.00739679       0.02806950       0.01023623
O        3.11997308       2.27542764       1.06774348       12      -0.00739679       0.02806950       0.01023623
O        4.49211217       5.15834526       2.66541900       13       0.00739679       0.02806950      -0.01023623
O        4.49211217       3.49040760       4.80090595       14       0.00739679      -0.02806950       0.01023623
O        3.11997308       0.60748998       6.39858147       15      -0.00739679      -0.02806950      -0.01023623
O        4.72390309       4.32437643       0.00000000       16      -0.01016434      -0.00000000      -0.00000000
O        2.88818216       1.44145881       3.73316247       17       0.01016434      -0.00000000       0.00000000
O        0.35082041       1.44145881       0.00000000       18       0.01016434       0.00000000      -0.00000000
O        2.18654134       4.32437643       3.73316247       19      -0.01016434       0.00000000       0.00000000
20