20
Lattice="5.830725434861883 1.5716874820137055e-60 4.876700686617755e-44 -1.9279520818781326e-60 6.041831367455493 3.5792406065109304e-17 -7.627547239500348e-44 -5.402610900359888e-17 9.119717725758221" Properties=species:S:1:pos:R:3:spacegroup_kinds:I:1:forces:R:3 spacegroup="P 1" unit_cell=conventional occupancy="_JSON {\"0\": {\"In\": 1}, \"1\": {\"In\": 1}, \"2\": {\"In\": 1}, \"3\": {\"In\": 1}, \"4\": {\"In\": 1}, \"5\": {\"In\": 1}, \"6\": {\"In\": 1}, \"7\": {\"In\": 1}, \"8\": {\"O\": 1}, \"9\": {\"O\": 1}, \"10\": {\"O\": 1}, \"11\": {\"O\": 1}, \"12\": {\"O\": 1}, \"13\": {\"O\": 1}, \"14\": {\"O\": 1}, \"15\": {\"O\": 1}, \"16\": {\"O\": 1}, \"17\": {\"O\": 1}, \"18\": {\"O\": 1}, \"19\": {\"O\": 1}}" n_minim_iter=1 energy=-22571.01553353653 stress="0.13536264783189575 -1.7068544582293395e-13 -1.567878673561347e-14 -1.7068544582293395e-13 0.13277448836009792 2.7954228510914374e-13 -1.567878673561347e-14 2.7954228510914374e-13 0.13277931664103135" free_energy=-22571.01553353653 pbc="T T T"
In       1.38908867       3.27470236       1.12233014        0      -0.05460463       0.03115508      -0.02352996
In       1.52627405       0.25378668       3.43752872        1       0.05460463       0.03115508       0.02352996
In       1.52627405       2.76712900       5.68218900        2       0.05460463      -0.03115508      -0.02352996
In       1.38908867       5.78804469       7.99738759        3      -0.05460463      -0.03115508       0.02352996
In       4.44163677       2.76712900       7.99738759        4       0.05460463      -0.03115508       0.02352996
In       4.30445139       5.78804469       5.68218900        5      -0.05460463      -0.03115508      -0.02352996
In       4.30445139       3.27470236       3.43752872        6      -0.05460463       0.03115508       0.02352996
In       4.44163677       0.25378668       1.12233014        7       0.05460463       0.03115508      -0.02352996
O        2.28585236       3.55208507       7.70301552        8       0.00336419       0.00553849       0.00538659
O        0.62951036       0.53116938       5.97656107        9      -0.00336419       0.00553849      -0.00538659
O        0.62951036       2.48974630       3.14315666       10      -0.00336419      -0.00553849       0.00538659
O        2.28585236       5.51066199       1.41670221       11       0.00336419      -0.00553849      -0.00538659
O        3.54487308       2.48974630       1.41670221       12      -0.00336419      -0.00553849      -0.00538659
O        5.20121507       5.51066199       3.14315666       13       0.00336419      -0.00553849       0.00538659
O        5.20121507       3.55208507       5.97656107       14       0.00336419       0.00553849      -0.00538659
O        3.54487308       0.53116938       7.70301552       15      -0.00336419       0.00553849       0.00538659
O        5.54779641       4.53137353       0.00000000       16       0.04887170      -0.00000000      -0.00000000
O        3.19829174       1.51045784       4.55985886       17      -0.04887170       0.00000000       0.00000000
O        0.28292902       1.51045784       0.00000000       18      -0.04887170      -0.00000000       0.00000000
O        2.63243370       4.53137353       4.55985886       19       0.04887170      -0.00000000       0.00000000
20
Lattice="5.81582931782922 1.524595761384327e-60 4.858330601217511e-44 -1.9313052358898272e-60 6.04958557994881 3.0498861445657113e-17 -7.64649251375201e-44 -6.215450877684884e-17 9.131356737301394" Properties=species:S:1:pos:R:3:spacegroup_kinds:I:1:forces:R:3 spacegroup="P 1" unit_cell=conventional occupancy="_JSON {\"0\": {\"In\": 1}, \"1\": {\"In\": 1}, \"2\": {\"In\": 1}, \"3\": {\"In\": 1}, \"4\": {\"In\": 1}, \"5\": {\"In\": 1}, \"6\": {\"In\": 1}, \"7\": {\"In\": 1}, \"8\": {\"O\": 1}, \"9\": {\"O\": 1}, \"10\": {\"O\": 1}, \"11\": {\"O\": 1}, \"12\": {\"O\": 1}, \"13\": {\"O\": 1}, \"14\": {\"O\": 1}, \"15\": {\"O\": 1}, \"16\": {\"O\": 1}, \"17\": {\"O\": 1}, \"18\": {\"O\": 1}, \"19\": {\"O\": 1}}" n_minim_iter=2 energy=-22571.01670000991 stress="0.1331845599763926 -5.322651907723985e-13 -2.6049171567917727e-13 -5.322651907723985e-13 0.13343676951328373 3.0232372623064674e-13 -2.6049171567917727e-13 3.0232372623064674e-13 0.1334428838275419" free_energy=-22571.01670000991 pbc="T T T"
In       1.38528831       3.27904927       1.12365369        0      -0.05556386       0.03233083      -0.02559996
In       1.52262635       0.25425648       3.44202468        1       0.05556386       0.03233083       0.02559996
In       1.52262635       2.77053631       5.68933206        2       0.05556386      -0.03233083      -0.02559996
In       1.38528831       5.79532910       8.00770305        3      -0.05556386      -0.03233083       0.02559996
In       4.43054101       2.77053631       8.00770305        4       0.05556386      -0.03233083       0.02559996
In       4.29320297       5.79532910       5.68933206        5      -0.05556386      -0.03233083      -0.02559996
In       4.29320297       3.27904927       3.44202468        6      -0.05556386       0.03233083       0.02559996
In       4.43054101       0.25425648       1.12365369        7       0.05556386       0.03233083      -0.02559996
O        2.28002805       3.55666950       7.71287138        8      -0.00280777       0.00450881      -0.00814925
O        0.62788661       0.53187671       5.98416372        9       0.00280777       0.00450881       0.00814925
O        0.62788661       2.49291608       3.14719301       10       0.00280777      -0.00450881      -0.00814925
O        2.28002805       5.51770887       1.41848536       11      -0.00280777      -0.00450881       0.00814925
O        3.53580127       2.49291608       1.41848536       12       0.00280777      -0.00450881       0.00814925
O        5.18794270       5.51770887       3.14719301       13      -0.00280777      -0.00450881      -0.00814925
O        5.18794270       3.55666950       5.98416372       14      -0.00280777       0.00450881       0.00814925
O        3.53580127       0.53187671       7.71287138       15       0.00280777       0.00450881      -0.00814925
O        5.53384827       4.53718918       0.00000000       16       0.04398823       0.00000000      -0.00000000
O        3.18989571       1.51239639       4.56567837       17      -0.04398823       0.00000000       0.00000000
O        0.28198105       1.51239639       0.00000000       18      -0.04398823       0.00000000      -0.00000000
O        2.62593361       4.53718918       4.56567837       19       0.04398823       0.00000000       0.00000000
20
Lattice="5.815302474151284 1.52777588442506e-60 2.891534944346165e-44 -1.2635550139926e-60 6.050317945272515 3.238010308128065e-17 1.234985190913303e-43 -5.932102997270207e-17 9.131078590398786" Properties=species:S:1:pos:R:3:spacegroup_kinds:I:1:forces:R:3 spacegroup="P 1" unit_cell=conventional occupancy="_JSON {\"0\": {\"In\": 1}, \"1\": {\"In\": 1}, \"2\": {\"In\": 1}, \"3\": {\"In\": 1}, \"4\": {\"In\": 1}, \"5\": {\"In\": 1}, \"6\": {\"In\": 1}, \"7\": {\"In\": 1}, \"8\": {\"O\": 1}, \"9\": {\"O\": 1}, \"10\": {\"O\": 1}, \"11\": {\"O\": 1}, \"12\": {\"O\": 1}, \"13\": {\"O\": 1}, \"14\": {\"O\": 1}, \"15\": {\"O\": 1}, \"16\": {\"O\": 1}, \"17\": {\"O\": 1}, \"18\": {\"O\": 1}, \"19\": {\"O\": 1}}" n_minim_iter=3 energy=-22571.01905035901 stress="0.1327331614380949 -1.9074516072789787e-13 1.0227648145290736e-13 -1.9074516072789787e-13 0.13255324739205626 1.4259739727534482e-13 1.0227648145290736e-13 1.4259739727534482e-13 0.1331126187272301" free_energy=-22571.01905035901 pbc="T T T"
In       1.38082133       3.28198708       1.12161615        0      -0.01910769       0.01053387       0.00874128
In       1.52682991       0.25682811       3.44392315        1       0.01910769       0.01053387      -0.00874128
In       1.52682991       2.76833087       5.68715544        2       0.01910769      -0.01053387       0.00874128
In       1.38082133       5.79348984       8.00946244        3      -0.01910769      -0.01053387      -0.00874128
In       4.43448114       2.76833087       8.00946244        4       0.01910769      -0.01053387      -0.00874128
In       4.28847257       5.79348984       5.68715544        5      -0.01910769      -0.01053387       0.00874128
In       4.28847257       3.28198708       3.44392315        6      -0.01910769       0.01053387      -0.00874128
In       4.43448114       0.25682811       1.12161615        7       0.01910769       0.01053387       0.00874128
O        2.27964618       3.55746304       7.71209176        8       0.00451339      -0.00621999      -0.00815727
O        0.62800505       0.53230407       5.98452613        9      -0.00451339      -0.00621999       0.00815727
O        0.62800505       2.49285491       3.14655246       10      -0.00451339       0.00621999      -0.00815727
O        2.27964618       5.51801388       1.41898683       11       0.00451339       0.00621999       0.00815727
O        3.53565629       2.49285491       1.41898683       12      -0.00451339       0.00621999       0.00815727
O        5.18729742       5.51801388       3.14655246       13       0.00451339       0.00621999      -0.00815727
O        5.18729742       3.55746304       5.98452613       14       0.00451339      -0.00621999       0.00815727
O        3.53565629       0.53230407       7.71209176       15      -0.00451339      -0.00621999      -0.00815727
O        5.53682460       4.53773846       0.00000000       16       0.01940202      -0.00000000       0.00000000
O        3.18612911       1.51257949       4.56553930       17      -0.01940202      -0.00000000      -0.00000000
O        0.27847787       1.51257949       0.00000000       18      -0.01940202      -0.00000000       0.00000000
O        2.62917337       4.53773846       4.56553930       19       0.01940202      -0.00000000      -0.00000000
20
Lattice="5.815257402361818 1.5281796627814515e-60 3.8520875619979646e-44 -1.238463540075497e-60 6.0559855820426405 3.2350050129685197e-17 1.3087200193923403e-43 -5.937659896159755e-17 9.12260376058732" Properties=species:S:1:pos:R:3:spacegroup_kinds:I:1:forces:R:3 spacegroup="P 1" unit_cell=conventional occupancy="_JSON {\"0\": {\"In\": 1}, \"1\": {\"In\": 1}, \"2\": {\"In\": 1}, \"3\": {\"In\": 1}, \"4\": {\"In\": 1}, \"5\": {\"In\": 1}, \"6\": {\"In\": 1}, \"7\": {\"In\": 1}, \"8\": {\"O\": 1}, \"9\": {\"O\": 1}, \"10\": {\"O\": 1}, \"11\": {\"O\": 1}, \"12\": {\"O\": 1}, \"13\": {\"O\": 1}, \"14\": {\"O\": 1}, \"15\": {\"O\": 1}, \"16\": {\"O\": 1}, \"17\": {\"O\": 1}, \"18\": {\"O\": 1}, \"19\": {\"O\": 1}}" n_minim_iter=4 energy=-22571.019290601304 stress="0.13259471479164747 -1.212997661678177e-13 3.3298169182277825e-14 -1.212997661678177e-13 0.1329436439040325 4.422788854922946e-13 3.3298169182277825e-14 4.422788854922946e-13 0.13237944194666207" free_energy=-22571.019290601304 pbc="T T T"
In       1.37958056       3.28577610       1.12018691        0      -0.00947989       0.00699916       0.01013270
In       1.52804814       0.25778331       3.44111497        1       0.00947989       0.00699916      -0.01013270
In       1.52804814       2.77020948       5.68148879        2       0.00947989      -0.00699916       0.01013270
In       1.37958056       5.79820227       8.00241685        3      -0.00947989      -0.00699916      -0.01013270
In       4.43567685       2.77020948       8.00241685        4       0.00947989      -0.00699916      -0.01013270
In       4.28720926       5.79820227       5.68148879        5      -0.00947989      -0.00699916       0.01013270
In       4.28720926       3.28577610       3.44111497        6      -0.00947989       0.00699916      -0.01013270
In       4.43567685       0.25778331       1.12018691        7       0.00947989       0.00699916       0.01013270
O        2.27963439       3.56081908       7.70472535        8       0.00851571      -0.00925448      -0.00349275
O        0.62799431       0.53282628       5.97918029        9      -0.00851571      -0.00925448       0.00349275
O        0.62799431       2.49516651       3.14342347       10      -0.00851571       0.00925448      -0.00349275
O        2.27963439       5.52315930       1.41787841       11       0.00851571       0.00925448       0.00349275
O        3.53562301       2.49516651       1.41787841       12      -0.00851571       0.00925448       0.00349275
O        5.18726309       5.52315930       3.14342347       13       0.00851571       0.00925448      -0.00349275
O        5.18726309       3.56081908       5.97918029       14       0.00851571      -0.00925448       0.00349275
O        3.53562301       0.53282628       7.70472535       15      -0.00851571      -0.00925448      -0.00349275
O        5.53781036       4.54198919       0.00000000       16       0.01527901      -0.00000000       0.00000000
O        3.18507574       1.51399640       4.56130188       17      -0.01527901      -0.00000000      -0.00000000
O        0.27744704       1.51399640       0.00000000       18      -0.01527901       0.00000000       0.00000000
O        2.63018166       4.54198919       4.56130188       19       0.01527901      -0.00000000      -0.00000000
20
Lattice="5.815391633345853 1.528142916466781e-60 3.4933410290416694e-44 -1.257795721100479e-60 6.053228873884041 3.236403565992739e-17 1.2523807865732006e-43 -5.93495705031295e-17 9.126547632398017" Properties=species:S:1:pos:R:3:spacegroup_kinds:I:1:forces:R:3 spacegroup="P 1" unit_cell=conventional occupancy="_JSON {\"0\": {\"In\": 1}, \"1\": {\"In\": 1}, \"2\": {\"In\": 1}, \"3\": {\"In\": 1}, \"4\": {\"In\": 1}, \"5\": {\"In\": 1}, \"6\": {\"In\": 1}, \"7\": {\"In\": 1}, \"8\": {\"O\": 1}, \"9\": {\"O\": 1}, \"10\": {\"O\": 1}, \"11\": {\"O\": 1}, \"12\": {\"O\": 1}, \"13\": {\"O\": 1}, \"14\": {\"O\": 1}, \"15\": {\"O\": 1}, \"16\": {\"O\": 1}, \"17\": {\"O\": 1}, \"18\": {\"O\": 1}, \"19\": {\"O\": 1}}" n_minim_iter=5 energy=-22571.019424714967 stress="0.1324793363479026 -4.213896783983578e-14 1.8796279092374852e-14 -4.213896783983578e-14 0.13236394679224142 -3.9924351159773016e-13 1.8796279092374852e-14 -3.9924351159773016e-13 0.13255601393124136" free_energy=-22571.019424714967 pbc="T T T"
In       1.37820130       3.28512255       1.12039068        0       0.00169505      -0.00002814       0.02214223
In       1.52949452       0.25850811       3.44288314        1      -0.00169505      -0.00002814      -0.02214223
In       1.52949452       2.76810633       5.68366449        2      -0.00169505       0.00002814       0.02214223
In       1.37820130       5.79472076       8.00615695        3       0.00169505       0.00002814      -0.02214223
In       4.43719034       2.76810633       8.00615695        4      -0.00169505       0.00002814      -0.02214223
In       4.28589711       5.79472076       5.68366449        5       0.00169505       0.00002814       0.02214223
In       4.28589711       3.28512255       3.44288314        6       0.00169505      -0.00002814      -0.02214223
In       4.43719034       0.25850811       1.12039068        7      -0.00169505      -0.00002814       0.02214223
O        2.27980873       3.55910032       7.70780051        8       0.00936914      -0.01128362      -0.00385846
O        0.62788709       0.53248588       5.98202093        9      -0.00936914      -0.01128362       0.00385846
O        0.62788709       2.49412855       3.14452670       10      -0.00936914       0.01128362      -0.00385846
O        2.27980873       5.52074299       1.41874712       11       0.00936914       0.01128362       0.00385846
O        3.53558291       2.49412855       1.41874712       12      -0.00936914       0.01128362       0.00385846
O        5.18750454       5.52074299       3.14452670       13       0.00936914       0.01128362      -0.00385846
O        5.18750454       3.55910032       5.98202093       14       0.00936914      -0.01128362       0.00385846
O        3.53558291       0.53248588       7.70780051       15      -0.00936914      -0.01128362      -0.00385846
O        5.53921875       4.53992166       0.00000000       16       0.00489719      -0.00000000       0.00000000
O        3.18386870       1.51330722       4.56327382       17      -0.00489719      -0.00000000      -0.00000000
O        0.27617288       1.51330722       0.00000000       18      -0.00489719      -0.00000000      -0.00000000
O        2.63152293       4.53992166       4.56327382       19       0.00489719       0.00000000       0.00000000
20
Lattice="5.815977142799665 1.8542651741736517e-60 3.487509360389437e-44 -1.0295178602181593e-60 6.053819692884869 3.602537241625835e-17 1.0209845683502521e-43 -5.381863544126465e-17 9.12473822883267" Properties=species:S:1:pos:R:3:spacegroup_kinds:I:1:forces:R:3 spacegroup="P 1" unit_cell=conventional occupancy="_JSON {\"0\": {\"In\": 1}, \"1\": {\"In\": 1}, \"2\": {\"In\": 1}, \"3\": {\"In\": 1}, \"4\": {\"In\": 1}, \"5\": {\"In\": 1}, \"6\": {\"In\": 1}, \"7\": {\"In\": 1}, \"8\": {\"O\": 1}, \"9\": {\"O\": 1}, \"10\": {\"O\": 1}, \"11\": {\"O\": 1}, \"12\": {\"O\": 1}, \"13\": {\"O\": 1}, \"14\": {\"O\": 1}, \"15\": {\"O\": 1}, \"16\": {\"O\": 1}, \"17\": {\"O\": 1}, \"18\": {\"O\": 1}, \"19\": {\"O\": 1}}" n_minim_iter=6 energy=-22571.019729307205 stress="0.13257760294557486 1.982825725008777e-13 3.65421015875617e-14 1.982825725008777e-13 0.13267782166221023 -1.2303771720559477e-13 3.65421015875617e-14 -1.2303771720559477e-13 0.1323780505972065" free_energy=-22571.019729307205 pbc="T T T"
In       1.37856479       3.28540126       1.12190046        0      -0.00581513       0.00712223       0.00515659
In       1.52942378       0.25849142       3.44046865        1       0.00581513       0.00712223      -0.00515659
In       1.52942378       2.76841843       5.68426958        2       0.00581513      -0.00712223       0.00515659
In       1.37856479       5.79532828       8.00283777        3      -0.00581513      -0.00712223      -0.00515659
In       4.43741235       2.76841843       8.00283777        4       0.00581513      -0.00712223      -0.00515659
In       4.28655337       5.79532828       5.68426958        5      -0.00581513      -0.00712223       0.00515659
In       4.28655337       3.28540126       3.44046865        6      -0.00581513       0.00712223      -0.00515659
In       4.43741235       0.25849142       1.12190046        7       0.00581513       0.00712223       0.00515659
O        2.28080164       3.55852792       7.70599705        8       0.00719981      -0.00618306       0.00304159
O        0.62718693       0.53161807       5.98111030        9      -0.00719981      -0.00618306      -0.00304159
O        0.62718693       2.49529178       3.14362793       10      -0.00719981       0.00618306       0.00304159
O        2.28080164       5.52220162       1.41874118       11       0.00719981       0.00618306      -0.00304159
O        3.53517550       2.49529178       1.41874118       12      -0.00719981       0.00618306      -0.00304159
O        5.18879022       5.52220162       3.14362793       13       0.00719981       0.00618306       0.00304159
O        5.18879022       3.55852792       5.98111030       14       0.00719981      -0.00618306      -0.00304159
O        3.53517550       0.53161807       7.70599705       15      -0.00719981      -0.00618306       0.00304159
O        5.54013742       4.54036477       0.00000000       16       0.00635960       0.00000000      -0.00000000
O        3.18382829       1.51345492       4.56236911       17      -0.00635960       0.00000000       0.00000000
O        0.27583972       1.51345492       0.00000000       18      -0.00635960       0.00000000      -0.00000000
O        2.63214885       4.54036477       4.56236911       19       0.00635960      -0.00000000      -0.00000000
20
Lattice="5.816042248766432 1.9458562572371301e-60 3.4750719930000774e-44 -9.417097506417029e-61 6.052743431714494 3.714695003787465e-17 1.0189604246952447e-43 -5.212576536486252e-17 9.126258570651537" Properties=species:S:1:pos:R:3:spacegroup_kinds:I:1:forces:R:3 spacegroup="P 1" unit_cell=conventional occupancy="_JSON {\"0\": {\"In\": 1}, \"1\": {\"In\": 1}, \"2\": {\"In\": 1}, \"3\": {\"In\": 1}, \"4\": {\"In\": 1}, \"5\": {\"In\": 1}, \"6\": {\"In\": 1}, \"7\": {\"In\": 1}, \"8\": {\"O\": 1}, \"9\": {\"O\": 1}, \"10\": {\"O\": 1}, \"11\": {\"O\": 1}, \"12\": {\"O\": 1}, \"13\": {\"O\": 1}, \"14\": {\"O\": 1}, \"15\": {\"O\": 1}, \"16\": {\"O\": 1}, \"17\": {\"O\": 1}, \"18\": {\"O\": 1}, \"19\": {\"O\": 1}}" n_minim_iter=7 energy=-22571.019926390414 stress="0.1324710885864483 2.8444271601620216e-13 3.638762730078847e-13 2.8444271601620216e-13 0.13254943524201002 -3.979788934953067e-14 3.638762730078847e-13 -3.979788934953067e-14 0.13234985772636174" free_energy=-22571.019926390414 pbc="T T T"
In       1.37759082       3.28555560       1.12351619        0      -0.00370932       0.00787480      -0.00135388
In       1.53043030       0.25918389       3.43961310        1       0.00370932       0.00787480       0.00135388
In       1.53043030       2.76718783       5.68664548        2       0.00370932      -0.00787480      -0.00135388
In       1.37759082       5.79355954       8.00274238        3      -0.00370932      -0.00787480       0.00135388
In       4.43845143       2.76718783       8.00274238        4       0.00370932      -0.00787480       0.00135388
In       4.28561194       5.79355954       5.68664548        5      -0.00370932      -0.00787480      -0.00135388
In       4.28561194       3.28555560       3.43961310        6      -0.00370932       0.00787480       0.00135388
In       4.43845143       0.25918389       1.12351619        7       0.00370932       0.00787480      -0.00135388
O        2.28171546       3.55690125       7.70689188        8       0.00539493      -0.00314032       0.00852066
O        0.62630567       0.53052954       5.98249597        9      -0.00539493      -0.00314032      -0.00852066
O        0.62630567       2.49584218       3.14376260       10      -0.00539493       0.00314032       0.00852066
O        2.28171546       5.52221390       1.41936669       11       0.00539493       0.00314032      -0.00852066
O        3.53432679       2.49584218       1.41936669       12      -0.00539493       0.00314032      -0.00852066
O        5.18973658       5.52221390       3.14376260       13       0.00539493       0.00314032       0.00852066
O        5.18973658       3.55690125       5.98249597       14       0.00539493      -0.00314032      -0.00852066
O        3.53432679       0.53052954       7.70689188       15      -0.00539493      -0.00314032       0.00852066
O        5.54158845       4.53955757       0.00000000       16      -0.00072197      -0.00000000       0.00000000
O        3.18247492       1.51318586       4.56312929       17       0.00072197       0.00000000      -0.00000000
O        0.27445380       1.51318586       0.00000000       18       0.00072197      -0.00000000       0.00000000
O        2.63356733       4.53955757       4.56312929       19      -0.00072197      -0.00000000      -0.00000000
20
Lattice="5.816052426555073 1.9583037786958303e-60 5.444344801290112e-44 -5.6578657005224766e-61 6.051827198619738 3.9372029369674656e-17 1.9421363212070404e-43 -4.8767665579609396e-17 9.127624292881105" Properties=species:S:1:pos:R:3:spacegroup_kinds:I:1:forces:R:3 spacegroup="P 1" unit_cell=conventional occupancy="_JSON {\"0\": {\"In\": 1}, \"1\": {\"In\": 1}, \"2\": {\"In\": 1}, \"3\": {\"In\": 1}, \"4\": {\"In\": 1}, \"5\": {\"In\": 1}, \"6\": {\"In\": 1}, \"7\": {\"In\": 1}, \"8\": {\"O\": 1}, \"9\": {\"O\": 1}, \"10\": {\"O\": 1}, \"11\": {\"O\": 1}, \"12\": {\"O\": 1}, \"13\": {\"O\": 1}, \"14\": {\"O\": 1}, \"15\": {\"O\": 1}, \"16\": {\"O\": 1}, \"17\": {\"O\": 1}, \"18\": {\"O\": 1}, \"19\": {\"O\": 1}}" n_minim_iter=8 energy=-22571.019988106294 stress="0.13236548317921995 -4.418688968158953e-13 -3.406050625906922e-13 -4.418688968158953e-13 0.13237497512379093 1.4904662130498566e-14 -3.406050625906922e-13 1.4904662130498566e-14 0.13236942039913413" free_energy=-22571.019988106294 pbc="T T T"
In       1.37676079       3.28573179       1.12437464        0      -0.00042623       0.00617098      -0.00182756
In       1.53126542       0.25981819       3.43943751        1       0.00042623       0.00617098       0.00182756
In       1.53126542       2.76609541       5.68818679        2       0.00042623      -0.00617098      -0.00182756
In       1.37676079       5.79200901       8.00324965        3      -0.00042623      -0.00617098       0.00182756
In       4.43929163       2.76609541       8.00324965        4       0.00042623      -0.00617098       0.00182756
In       4.28478701       5.79200901       5.68818679        5      -0.00042623      -0.00617098      -0.00182756
In       4.28478701       3.28573179       3.43943751        6      -0.00042623       0.00617098       0.00182756
In       4.43929163       0.25981819       1.12437464        7       0.00042623       0.00617098      -0.00182756
O        2.28229485       3.55577171       7.70794236        8       0.00406495      -0.00214234       0.01034106
O        0.62573137       0.52985811       5.98349408        9      -0.00406495      -0.00214234      -0.01034106
O        0.62573137       2.49605549       3.14413022       10      -0.00406495       0.00214234       0.01034106
O        2.28229485       5.52196909       1.41968193       11       0.00406495       0.00214234      -0.01034106
O        3.53375758       2.49605549       1.41968193       12      -0.00406495       0.00214234      -0.01034106
O        5.19032106       5.52196909       3.14413022       13       0.00406495       0.00214234       0.01034106
O        5.19032106       3.55577171       5.98349408       14       0.00406495      -0.00214234      -0.01034106
O        3.53375758       0.52985811       7.70794236       15      -0.00406495      -0.00214234       0.01034106
O        5.54252253       4.53887040       0.00000000       16      -0.00609955      -0.00000000      -0.00000000
O        3.18155611       1.51295680       4.56381215       17       0.00609955       0.00000000      -0.00000000
O        0.27352990       1.51295680       0.00000000       18       0.00609955       0.00000000       0.00000000
O        2.63449632       4.53887040       4.56381215       19      -0.00609955      -0.00000000      -0.00000000
20
Lattice="5.816489915660485 2.16811101791244e-60 -3.4056553815683724e-44 -4.892809030960204e-61 6.050934102793166 4.113403727157968e-17 1.6347130624247452e-43 -4.6105726478113365e-17 9.128284858527607" Properties=species:S:1:pos:R:3:spacegroup_kinds:I:1:forces:R:3 spacegroup="P 1" unit_cell=conventional occupancy="_JSON {\"0\": {\"In\": 1}, \"1\": {\"In\": 1}, \"2\": {\"In\": 1}, \"3\": {\"In\": 1}, \"4\": {\"In\": 1}, \"5\": {\"In\": 1}, \"6\": {\"In\": 1}, \"7\": {\"In\": 1}, \"8\": {\"O\": 1}, \"9\": {\"O\": 1}, \"10\": {\"O\": 1}, \"11\": {\"O\": 1}, \"12\": {\"O\": 1}, \"13\": {\"O\": 1}, \"14\": {\"O\": 1}, \"15\": {\"O\": 1}, \"16\": {\"O\": 1}, \"17\": {\"O\": 1}, \"18\": {\"O\": 1}, \"19\": {\"O\": 1}}" n_minim_iter=9 energy=-22571.020046563153 stress="0.1322459586185144 -3.787179698556029e-13 3.707834925943679e-13 -3.787179698556029e-13 0.13216486356727197 3.941791644762623e-13 3.707834925943679e-13 3.941791644762623e-13 0.13239614794361862" free_energy=-22571.020046563153 pbc="T T T"
In       1.37580816       3.28644144       1.12524108        0       0.00299145       0.00156570       0.00018215
In       1.53243680       0.26097439       3.43890135        1      -0.00299145       0.00156570      -0.00018215
In       1.53243680       2.76449266       5.68938351        2      -0.00299145      -0.00156570       0.00018215
In       1.37580816       5.78995971       8.00304378        3       0.00299145      -0.00156570      -0.00018215
In       4.44068175       2.76449266       8.00304378        4      -0.00299145      -0.00156570      -0.00018215
In       4.28405312       5.78995971       5.68938351        5       0.00299145      -0.00156570       0.00018215
In       4.28405312       3.28644144       3.43890135        6       0.00299145       0.00156570      -0.00018215
In       4.44068175       0.26097439       1.12524108        7      -0.00299145       0.00156570       0.00018215
O        2.28342699       3.55437195       7.70896890        8       0.00060270      -0.00165220       0.00895842
O        0.62481797       0.52890490       5.98345839        9      -0.00060270      -0.00165220      -0.00895842
O        0.62481797       2.49656215       3.14482647       10      -0.00060270       0.00165220       0.00895842
O        2.28342699       5.52202920       1.41931596       11       0.00060270       0.00165220      -0.00895842
O        3.53306293       2.49656215       1.41931596       12      -0.00060270       0.00165220      -0.00895842
O        5.19167195       5.52202920       3.14482647       13       0.00060270       0.00165220       0.00895842
O        5.19167195       3.55437195       5.98345839       14       0.00060270      -0.00165220      -0.00895842
O        3.53306293       0.52890490       7.70896890       15      -0.00060270      -0.00165220       0.00895842
O        5.54373827       4.53820058       0.00000000       16      -0.01045450      -0.00000000      -0.00000000
O        3.18099660       1.51273353       4.56414243       17       0.01045450       0.00000000       0.00000000
O        0.27275165       1.51273353       0.00000000       18       0.01045450      -0.00000000      -0.00000000
O        2.63549331       4.53820058       4.56414243       19      -0.01045450       0.00000000       0.00000000
20