20
Lattice="5.804435961392255 1.0291336248285701e-60 2.1092838390895394e-44 -1.307741979865479e-60 6.008482457777947 1.853374526138463e-17 -1.0512907671786908e-43 -2.5330861291008166e-17 9.02763187064551" Properties=species:S:1:pos:R:3:spacegroup_kinds:I:1:forces:R:3 spacegroup="P 1" unit_cell=conventional occupancy="_JSON {\"0\": {\"In\": 1}, \"1\": {\"In\": 1}, \"2\": {\"In\": 1}, \"3\": {\"In\": 1}, \"4\": {\"In\": 1}, \"5\": {\"In\": 1}, \"6\": {\"In\": 1}, \"7\": {\"In\": 1}, \"8\": {\"O\": 1}, \"9\": {\"O\": 1}, \"10\": {\"O\": 1}, \"11\": {\"O\": 1}, \"12\": {\"O\": 1}, \"13\": {\"O\": 1}, \"14\": {\"O\": 1}, \"15\": {\"O\": 1}, \"16\": {\"O\": 1}, \"17\": {\"O\": 1}, \"18\": {\"O\": 1}, \"19\": {\"O\": 1}}" n_minim_iter=8 energy=-22572.484065025757 stress="0.09512763866760734 4.993464962471672e-15 -1.138657845189187e-13 4.993464962471672e-15 0.09513308421144102 -2.6874358574777375e-13 -1.138657845189187e-13 -2.6874358574777375e-13 0.09532551312038055" free_energy=-22572.484065025757 pbc="T T T"
In       1.38999467       3.24953361       1.10604989        0      -0.00382370      -0.00326186       0.00482822
In       1.51222331       0.24529239       3.40776605        1       0.00382370      -0.00326186      -0.00482822
In       1.51222331       2.75894884       5.61986582        2       0.00382370       0.00326186       0.00482822
In       1.38999467       5.76319007       7.92158198        3      -0.00382370       0.00326186      -0.00482822
In       4.41444129       2.75894884       7.92158198        4       0.00382370       0.00326186      -0.00482822
In       4.29221265       5.76319007       5.61986582        5      -0.00382370       0.00326186       0.00482822
In       4.29221265       3.24953361       3.40776605        6      -0.00382370      -0.00326186      -0.00482822
In       4.41444129       0.24529239       1.10604989        7       0.00382370      -0.00326186       0.00482822
O        2.27385622       3.53494678       7.62759507        8       0.00104356      -0.00685500       0.00200992
O        0.62836176       0.53070555       5.91385273        9      -0.00104356      -0.00685500      -0.00200992
O        0.62836176       2.47353568       3.11377914       10      -0.00104356       0.00685500       0.00200992
O        2.27385622       5.47777691       1.40003680       11       0.00104356       0.00685500      -0.00200992
O        3.53057974       2.47353568       1.40003680       12      -0.00104356       0.00685500      -0.00200992
O        5.17607420       5.47777691       3.11377914       13       0.00104356       0.00685500       0.00200992
O        5.17607420       3.53494678       5.91385273       14       0.00104356      -0.00685500      -0.00200992
O        3.53057974       0.53070555       7.62759507       15      -0.00104356      -0.00685500       0.00200992
O        5.51881968       4.50636184       0.00000000       16       0.00020011       0.00000000       0.00000000
O        3.18783427       1.50212061       4.51381594       17      -0.00020011      -0.00000000      -0.00000000
O        0.28561629       1.50212061       0.00000000       18      -0.00020011      -0.00000000       0.00000000
O        2.61660170       4.50636184       4.51381594       19       0.00020011       0.00000000      -0.00000000
