20
Lattice="5.25235560340255 -5.266666235442853e-59 4.961620069626487e-43 -3.07115668935243e-60 5.657891158286265 3.1882214120159336e-16 -2.389453700300735e-43 -1.7833333972896583e-16 7.567665313023955" Properties=species:S:1:pos:R:3:spacegroup_kinds:I:1:forces:R:3 spacegroup="P 1" unit_cell=conventional occupancy="_JSON {\"0\": {\"In\": 1}, \"1\": {\"In\": 1}, \"2\": {\"In\": 1}, \"3\": {\"In\": 1}, \"4\": {\"In\": 1}, \"5\": {\"In\": 1}, \"6\": {\"In\": 1}, \"7\": {\"In\": 1}, \"8\": {\"O\": 1}, \"9\": {\"O\": 1}, \"10\": {\"O\": 1}, \"11\": {\"O\": 1}, \"12\": {\"O\": 1}, \"13\": {\"O\": 1}, \"14\": {\"O\": 1}, \"15\": {\"O\": 1}, \"16\": {\"O\": 1}, \"17\": {\"O\": 1}, \"18\": {\"O\": 1}, \"19\": {\"O\": 1}}" n_minim_iter=11 energy=-22574.457753892362 stress="-0.036677068079925976 -1.6231255999183566e-12 1.1443939341847185e-14 -1.6231255999183566e-12 -0.036600181585775785 -7.119997084256164e-13 1.1443939341847185e-14 -7.119997084256164e-13 -0.036585225417140314" free_energy=-22574.457753892362 pbc="T T T"
In       1.30347192       3.03481072       0.88761755        0       0.00491311      -0.00326467       0.00327433
In       1.32270588       0.20586514       2.89621511        1      -0.00491311      -0.00326467      -0.00327433
In       1.32270588       2.62308044       4.67145020        2      -0.00491311       0.00326467       0.00327433
In       1.30347192       5.45202602       6.68004777        3       0.00491311       0.00326467      -0.00327433
In       3.94888369       2.62308044       6.68004777        4      -0.00491311       0.00326467      -0.00327433
In       3.92964972       5.45202602       4.67145020        5       0.00491311       0.00326467       0.00327433
In       3.92964972       3.03481072       2.89621511        6       0.00491311      -0.00326467      -0.00327433
In       3.94888369       0.20586514       0.88761755        7      -0.00491311      -0.00326467       0.00327433
O        2.03403659       3.41730305       6.45170171        8      -0.00189260      -0.00216289       0.00348134
O        0.59214122       0.58835747       4.89979626        9       0.00189260      -0.00216289      -0.00348134
O        0.59214122       2.24058811       2.66786906       10       0.00189260       0.00216289       0.00348134
O        2.03403659       5.06953369       1.11596360       11      -0.00189260       0.00216289      -0.00348134
O        3.21831902       2.24058811       1.11596360       12       0.00189260       0.00216289      -0.00348134
O        4.66021439       5.06953369       2.66786906       13      -0.00189260       0.00216289       0.00348134
O        4.66021439       3.41730305       4.89979626       14      -0.00189260      -0.00216289      -0.00348134
O        3.21831902       0.58835747       6.45170171       15       0.00189260      -0.00216289       0.00348134
O        4.98873341       4.24341837       0.00000000       16       0.00171049       0.00000000      -0.00000000
O        2.88980000       1.41447279       3.78383266       17      -0.00171049       0.00000000       0.00000000
O        0.26362220       1.41447279       0.00000000       18      -0.00171049       0.00000000      -0.00000000
O        2.36255561       4.24341837       3.78383266       19       0.00171049      -0.00000000       0.00000000
