20
Lattice="5.023993288240841 -7.818187059445075e-59 -1.7416046286532566e-43 1.1699116346291093e-58 5.589057765757205 -2.0337391599792835e-17 -4.015463928438199e-44 -5.224111261480135e-17 7.322593271441311" Properties=species:S:1:pos:R:3:spacegroup_kinds:I:1:forces:R:3 spacegroup="P 1" unit_cell=conventional occupancy="_JSON {\"0\": {\"In\": 1}, \"1\": {\"In\": 1}, \"2\": {\"In\": 1}, \"3\": {\"In\": 1}, \"4\": {\"In\": 1}, \"5\": {\"In\": 1}, \"6\": {\"In\": 1}, \"7\": {\"In\": 1}, \"8\": {\"O\": 1}, \"9\": {\"O\": 1}, \"10\": {\"O\": 1}, \"11\": {\"O\": 1}, \"12\": {\"O\": 1}, \"13\": {\"O\": 1}, \"14\": {\"O\": 1}, \"15\": {\"O\": 1}, \"16\": {\"O\": 1}, \"17\": {\"O\": 1}, \"18\": {\"O\": 1}, \"19\": {\"O\": 1}}" n_minim_iter=8 energy=-22573.22301415386 stress="-0.13360209497867961 2.3205388184639164e-13 2.0561412703031227e-13 2.3205388184639164e-13 -0.1335380166847261 -1.0836905931623112e-13 2.0561412703031227e-13 -1.0836905931623112e-13 -0.13357040352591387" free_energy=-22573.22301415386 pbc="T T T"
In       1.23544627       3.04386429       0.91335162        0       0.00648741       0.00456226       0.00442655
In       1.27655037       0.24933541       2.74794502        1      -0.00648741       0.00456226      -0.00442655
In       1.27655037       2.54519348       4.57464826        2      -0.00648741      -0.00456226       0.00442655
In       1.23544627       5.33972236       6.40924165        3       0.00648741      -0.00456226      -0.00442655
In       3.78854701       2.54519348       6.40924165        4      -0.00648741      -0.00456226      -0.00442655
In       3.74744292       5.33972236       4.57464826        5       0.00648741      -0.00456226       0.00442655
In       3.74744292       3.04386429       2.74794502        6       0.00648741       0.00456226      -0.00442655
In       3.78854701       0.24933541       0.91335162        7      -0.00648741       0.00456226       0.00442655
O        1.94799165       3.37123961       6.28932485        8      -0.00540001      -0.00217535       0.00116348
O        0.56400500       0.57671072       4.69456505        9       0.00540001      -0.00217535      -0.00116348
O        0.56400500       2.21781816       2.62802822       10       0.00540001       0.00217535       0.00116348
O        1.94799165       5.01234704       1.03326842       11      -0.00540001       0.00217535      -0.00116348
O        3.07600164       2.21781816       1.03326842       12       0.00540001       0.00217535      -0.00116348
O        4.45998829       5.01234704       2.62802822       13      -0.00540001       0.00217535       0.00116348
O        4.45998829       3.37123961       4.69456505       14      -0.00540001      -0.00217535      -0.00116348
O        3.07600164       0.57671072       6.28932485       15       0.00540001      -0.00217535       0.00116348
O        4.67046524       4.19179332       0.00000000       16       0.00548027       0.00000000       0.00000000
O        2.86552469       1.39726444       3.66129664       17      -0.00548027      -0.00000000       0.00000000
O        0.35352805       1.39726444       0.00000000       18      -0.00548027      -0.00000000      -0.00000000
O        2.15846860       4.19179332       3.66129664       19       0.00548027      -0.00000000      -0.00000000
