20
Lattice="5.498139022689027 6.933459821359878e-61 5.49407352738675e-44 2.838361893650533e-60 5.623054113869715 -1.2943837524446793e-16 -1.4285052142324063e-43 -1.854227183671126e-16 7.897655749688611" Properties=species:S:1:pos:R:3:spacegroup_kinds:I:1:forces:R:3 spacegroup="P 1" unit_cell=conventional occupancy="_JSON {\"0\": {\"In\": 1}, \"1\": {\"In\": 1}, \"2\": {\"In\": 1}, \"3\": {\"In\": 1}, \"4\": {\"In\": 1}, \"5\": {\"In\": 1}, \"6\": {\"In\": 1}, \"7\": {\"In\": 1}, \"8\": {\"O\": 1}, \"9\": {\"O\": 1}, \"10\": {\"O\": 1}, \"11\": {\"O\": 1}, \"12\": {\"O\": 1}, \"13\": {\"O\": 1}, \"14\": {\"O\": 1}, \"15\": {\"O\": 1}, \"16\": {\"O\": 1}, \"17\": {\"O\": 1}, \"18\": {\"O\": 1}, \"19\": {\"O\": 1}}" n_minim_iter=7 energy=-22574.922554776964 stress="-0.01049369934362932 5.536876548528473e-13 -4.815948587897934e-13 5.536876548528473e-13 -0.010517222823275177 4.2644559358282005e-13 -4.815948587897934e-13 4.2644559358282005e-13 -0.010459885656547386" free_energy=-22574.922554776964 pbc="T T T"
In       1.36618174       2.97851388       0.90172068        0      -0.00224514       0.00236330       0.00300151
In       1.38288777       0.16698682       3.04710719        1       0.00224514       0.00236330      -0.00300151
In       1.38288777       2.64454024       4.85054856        2       0.00224514      -0.00236330       0.00300151
In       1.36618174       5.45606729       6.99593507        3      -0.00224514      -0.00236330      -0.00300151
In       4.13195728       2.64454024       6.99593507        4       0.00224514      -0.00236330      -0.00300151
In       4.11525126       5.45606729       4.85054856        5      -0.00224514      -0.00236330       0.00300151
In       4.11525126       2.97851388       3.04710719        6      -0.00224514       0.00236330      -0.00300151
In       4.13195728       0.16698682       0.90172068        7       0.00224514       0.00236330       0.00300151
O        2.14492617       3.39771042       6.70901910        8      -0.00232765      -0.00221248       0.00000587
O        0.60414335       0.58618336       5.13746452        9       0.00232765      -0.00221248      -0.00000587
O        0.60414335       2.22534369       2.76019122       10       0.00232765       0.00221248       0.00000587
O        2.14492617       5.03687075       1.18863665       11      -0.00232765       0.00221248      -0.00000587
O        3.35321286       2.22534369       1.18863665       12       0.00232765       0.00221248      -0.00000586
O        4.89399568       5.03687075       2.76019122       13      -0.00232765       0.00221248       0.00000587
O        4.89399568       3.39771042       5.13746452       14      -0.00232765      -0.00221248      -0.00000587
O        3.35321286       0.58618336       6.70901910       15       0.00232765      -0.00221248       0.00000587
O        5.26461197       4.21729059      -0.00000000       16       0.00197867      -0.00000000       0.00000000
O        2.98259657       1.40576353       3.94882787       17      -0.00197867       0.00000000      -0.00000000
O        0.23352705       1.40576353      -0.00000000       18      -0.00197867       0.00000000       0.00000000
O        2.51554246       4.21729059       3.94882787       19       0.00197867       0.00000000      -0.00000000
