1
Lattice="3.9916309559011447 0.5122150613228312 -3.6956489322308323e-10 0.7872467626376789 3.9466092398248316 -8.325098612339859e-10 -2.3894388591115003 -2.2294121501099156 2.34857091880668" Properties=species:S:1:pos:R:3:spacegroup_kinds:I:1:forces:R:3 spacegroup="P 1" unit_cell=conventional occupancy="_JSON {\"0\": {\"In\": 1}}" n_minim_iter=1 energy=-1970.9230477225135 stress="0.03871443908560685 -0.0045333933064978515 1.222186968458666e-12 -0.0045333933064978515 0.03934345776062798 1.140363913637388e-12 1.222186968458666e-12 1.140363913637388e-12 0.04357323835632498" free_energy=-1970.9230477225135 pbc="T T T"
In       0.00000000       0.00000000       0.00000000        0      -0.00000000      -0.00000000       0.00000000
