1
Lattice="3.6672203536050674 0.43678438325858204 -3.3285623121522384e-10 0.6895445690680972 3.6281970738401945 -7.630465590200042e-10 -2.178382461189841 -2.0324907281182942 2.182410825726338" Properties=species:S:1:pos:R:3:spacegroup_kinds:I:1:forces:R:3 spacegroup="P 1" unit_cell=conventional occupancy="_JSON {\"0\": {\"In\": 1}}" n_minim_iter=1 energy=-1970.9854796710292 stress="-0.08896150856610666 0.0058066329603048425 -1.6967596756228468e-12 0.0058066329603048425 -0.08976719215115053 -1.4645896748028496e-12 -1.6967596756228468e-12 -1.4645896748028496e-12 -0.09518494034970149" free_energy=-1970.9854796710292 pbc="T T T"
In       0.00000000       0.00000000       0.00000000        0      -0.00000000      -0.00000000      -0.00000000
