1
Lattice="3.4459386861939847 0.24777904096719444 -2.8064158794053165e-10 0.48567758039998166 3.4205270310359737 -7.083148469055422e-10 -1.9658081331510988 -1.834153035573012 2.1696471851170287" Properties=species:S:1:pos:R:3:spacegroup_kinds:I:1:forces:R:3 spacegroup="P 1" unit_cell=conventional occupancy="_JSON {\"0\": {\"In\": 1}}" n_minim_iter=2 energy=-1970.7001887089975 stress="-0.15351978113155346 0.005300883772152676 -1.4572263984550346e-12 0.005300883772152676 -0.15425529086220177 -1.4888310002778333e-12 -1.4572263984550346e-12 -1.4888310002778333e-12 -0.1592011611640613" free_energy=-1970.7001887089975 pbc="T T T"
In       0.00000000       0.00000000       0.00000000        0       0.00000000      -0.00000000       0.00000000
