1
Lattice="3.7827220104432113 0.48540739561154367 -3.5022401823618125e-10 0.74604483470026 3.7400565841472204 -7.889388604686383e-10 -2.264383422422088 -2.1127319894397467 2.225654376821323" Properties=species:S:1:pos:R:3:spacegroup_kinds:I:1:forces:R:3 spacegroup="P 1" unit_cell=conventional occupancy="_JSON {\"0\": {\"In\": 1}}" n_minim_iter=1 energy=-1971.0822916504765 stress="-0.0007414038554200033 -0.0007714463895549952 2.1781335102877208e-13 -0.0007714463895549952 -0.0006343639069583741 2.0318305295144575e-13 2.1781335102877208e-13 2.0318305295144575e-13 8.541678433331268e-05" free_energy=-1971.0822916504765 pbc="T T T"
In       0.00000000       0.00000000       0.00000000        0      -0.00000000      -0.00000000      -0.00000000
