1
Lattice="4.019741959233154 0.5158223284912213 -3.7216750580165384e-10 0.7927909365886565 3.9744031783718894 -8.38373252257727e-10 -2.4062664477518823 -2.245112752964372 2.365110695567964" Properties=species:S:1:pos:R:3:spacegroup_kinds:I:1:forces:R:3 spacegroup="P 1" unit_cell=conventional occupancy="_JSON {\"0\": {\"In\": 1}}" n_minim_iter=1 energy=-1970.8928855797778 stress="0.038399818842799686 0.0002801401702013559 -1.5213739227910996e-13 0.0002801401702013559 0.03836094875451723 1.1656438790974664e-14 -1.5213739227910996e-13 1.1656438790974664e-14 0.038099570273762096" free_energy=-1970.8928855797778 pbc="T T T"
In       0.00000000       0.00000000       0.00000000        0       0.00000000      -0.00000000       0.00000000
