1
Lattice="3.7185956897765875 0.4771785619253781 -3.4428674407079424e-10 0.7333975637219554 3.676653546026997 -7.755648683951024e-10 -2.2259966266021607 -2.0769160535440045 2.187924132339416" Properties=species:S:1:pos:R:3:spacegroup_kinds:I:1:forces:R:3 spacegroup="P 1" unit_cell=conventional occupancy="_JSON {\"0\": {\"In\": 1}}" n_minim_iter=1 energy=-1971.037838462812 stress="-0.05655023645492631 0.010303705606391687 -2.8386157634575333e-12 0.010303705606391687 -0.05797989914078194 -2.648576046701369e-12 -2.8386157634575333e-12 -2.648576046701369e-12 -0.0675935397600005" free_energy=-1971.037838462812 pbc="T T T"
In       0.00000000       0.00000000       0.00000000        0       0.00000000      -0.00000000       0.00000000
1
Lattice="3.6999651250839958 0.4406844501856516 -3.3582528610557973e-10 0.6957015427870269 3.6605934047415056 -7.698578969138649e-10 -2.197833333787459 -2.050638927028636 2.2018976677676907" Properties=species:S:1:pos:R:3:spacegroup_kinds:I:1:forces:R:3 spacegroup="P 1" unit_cell=conventional occupancy="_JSON {\"0\": {\"In\": 1}}" n_minim_iter=2 energy=-1971.0416573859645 stress="-0.05553335670117009 -9.331807716158902e-05 6.854570872633008e-14 -9.331807716158902e-05 -0.055520408604806455 -2.716510594107681e-15 6.854570872633008e-14 -2.716510594107681e-15 -0.05543334027345755" free_energy=-1971.0416573859645 pbc="T T T"
In       0.00000000       0.00000000       0.00000000        0       0.00000000       0.00000000       0.00000000
