1
Lattice="3.3237707711302336 0.1297191860997702 -2.491105882560807e-10 0.35944560261637803 3.3068229564072222 -6.773689789498881e-10 -1.8416081867272205 -1.7182710708243354 2.172625835253168" Properties=species:S:1:pos:R:3:spacegroup_kinds:I:1:forces:R:3 spacegroup="P 1" unit_cell=conventional occupancy="_JSON {\"0\": {\"In\": 1}}" n_minim_iter=1 energy=-1970.4114331604362 stress="-0.27580538793988063 0.009869592756292582 -2.5824652078878122e-12 0.009869592756292582 -0.27717481647634745 -2.5667774990674987e-12 -2.5824652078878122e-12 -2.5667774990674987e-12 -0.2863834178707992" free_energy=-1970.4114331604362 pbc="T T T"
In       0.00000000       0.00000000       0.00000000        0      -0.00000000      -0.00000000      -0.00000000
