1
Lattice="3.8139855935797122 0.48941920891050517 -3.5311823696502525e-10 0.7522107741081301 3.7709675444638635 -7.95459733729723e-10 -2.2830981836930366 -2.1301933762439154 2.2440490488196287" Properties=species:S:1:pos:R:3:spacegroup_kinds:I:1:forces:R:3 spacegroup="P 1" unit_cell=conventional occupancy="_JSON {\"0\": {\"In\": 1}}" n_minim_iter=1 energy=-1971.0740183652242 stress="0.01857118189133926 -0.005605289615348157 1.5189390876380013e-12 -0.005605289615348157 0.01934892862742118 1.4015926536956913e-12 1.5189390876380013e-12 1.4015926536956913e-12 0.02457881794872243" free_energy=-1971.0740183652242 pbc="T T T"
In       0.00000000       0.00000000       0.00000000        0      -0.00000000      -0.00000000      -0.00000000
