1
Lattice="4.047465193632205 0.5193798362780537 -3.7473353288942244e-10 0.7982586330695209 4.001813721642522 -8.441568229376001e-10 -2.4228619131907436 -2.2605967784898824 2.381422319263691" Properties=species:S:1:pos:R:3:spacegroup_kinds:I:1:forces:R:3 spacegroup="P 1" unit_cell=conventional occupancy="_JSON {\"0\": {\"In\": 1}}" n_minim_iter=1 energy=-1970.864481751587 stress="0.03786372147704679 0.005424639388108606 -1.4642438651378618e-12 0.005424639388108606 0.037111040372642984 -1.3183410036773164e-12 -1.4642438651378618e-12 -1.3183410036773164e-12 0.03204970267928358" free_energy=-1970.864481751587 pbc="T T T"
In       0.00000000       0.00000000       0.00000000        0       0.00000000       0.00000000      -0.00000000
