1
Lattice="3.6338801413502413 0.432813396341168 -3.298299393423811e-10 0.6832756350867264 3.595211638311277 -7.561085073421971e-10 -2.1585778880730766 -2.0140125168990473 2.162569629086648" Properties=species:S:1:pos:R:3:spacegroup_kinds:I:1:forces:R:3 spacegroup="P 1" unit_cell=conventional occupancy="_JSON {\"0\": {\"In\": 1}}" n_minim_iter=1 energy=-1970.9014017054196 stress="-0.12329789819662144 0.011341560643466522 -3.0061021356580226e-12 0.011341560643466522 -0.12487156563895607 -2.908107832882069e-12 -3.0061021356580226e-12 -2.908107832882069e-12 -0.13545355354242508" free_energy=-1970.9014017054196 pbc="T T T"
In       0.00000000       0.00000000       0.00000000        0       0.00000000      -0.00000000      -0.00000000
1
Lattice="3.6060376699271597 0.37719001973228167 -3.1697049469816e-10 0.6258586647137973 3.571285611614115 -7.475216902521255e-10 -2.115948167173614 -1.9742378152417421 2.1842454968760916" Properties=species:S:1:pos:R:3:spacegroup_kinds:I:1:forces:R:3 spacegroup="P 1" unit_cell=conventional occupancy="_JSON {\"0\": {\"In\": 1}}" n_minim_iter=2 energy=-1970.9075626090196 stress="-0.11761123933477538 -0.00034434749770942587 1.137391478163391e-13 -0.00034434749770942587 -0.11756346033282392 1.0627625912643773e-13 1.137391478163391e-13 1.0627625912643773e-13 -0.11724217465103974" free_energy=-1970.9075626090196 pbc="T T T"
In       0.00000000       0.00000000       0.00000000        0      -0.00000000      -0.00000000      -0.00000000
