40
Lattice="8.442117718312378 6.616740255622007e-10 1.915360441837967e-14 -2.814039240061291 7.959304914704492 -1.1460573449669991e-09 -2.814039239125559 -3.979652456690574 6.892960253364453" Properties=species:S:1:pos:R:3:spacegroup_kinds:I:1:forces:R:3 spacegroup="P 1" unit_cell=conventional occupancy="_JSON {\"0\": {\"In\": 1}, \"1\": {\"In\": 1}, \"2\": {\"In\": 1}, \"3\": {\"In\": 1}, \"4\": {\"In\": 1}, \"5\": {\"In\": 1}, \"6\": {\"In\": 1}, \"7\": {\"In\": 1}, \"8\": {\"In\": 1}, \"9\": {\"In\": 1}, \"10\": {\"In\": 1}, \"11\": {\"In\": 1}, \"12\": {\"In\": 1}, \"13\": {\"In\": 1}, \"14\": {\"In\": 1}, \"15\": {\"In\": 1}, \"16\": {\"O\": 1}, \"17\": {\"O\": 1}, \"18\": {\"O\": 1}, \"19\": {\"O\": 1}, \"20\": {\"O\": 1}, \"21\": {\"O\": 1}, \"22\": {\"O\": 1}, \"23\": {\"O\": 1}, \"24\": {\"O\": 1}, \"25\": {\"O\": 1}, \"26\": {\"O\": 1}, \"27\": {\"O\": 1}, \"28\": {\"O\": 1}, \"29\": {\"O\": 1}, \"30\": {\"O\": 1}, \"31\": {\"O\": 1}, \"32\": {\"O\": 1}, \"33\": {\"O\": 1}, \"34\": {\"O\": 1}, \"35\": {\"O\": 1}, \"36\": {\"O\": 1}, \"37\": {\"O\": 1}, \"38\": {\"O\": 1}, \"39\": {\"O\": 1}}" n_minim_iter=1 energy=-45144.386730860315 stress="-0.21651703049913826 8.846329652293667e-14 -3.147879094058341e-13 8.846329652293667e-14 -0.21651703049989282 1.19393449628317e-13 -3.147879094058341e-13 1.19393449628317e-13 -0.2165170304997205" free_energy=-45144.386730860315 pbc="T T T"
In      -4.02684270       2.84740778       5.40758544        0      -0.00341497       0.00241475      -0.00418246
In       6.84088193       1.13224468       1.48537481        1       0.00341497      -0.00241475       0.00418246
In       1.21280345      -0.85758155       4.93185494        2       0.00341497      -0.00241475       0.00418246
In      -1.40701962      -1.98982623       3.44648012        3       0.00000000      -0.00000000      -0.00000000
In      -1.21280346       3.84232089       3.20861487        4      -0.00341497       0.00241475       0.00418246
In       4.41527502      -2.71007621       5.16972019        5      -0.00341497      -0.00482949       0.00000000
In      -1.21280346       1.26957625       5.16972019        6      -0.00341497      -0.00482949       0.00000000
In      -1.60123579       6.68972867       1.72324006        7       0.00341497       0.00482949      -0.00000000
In       4.02684269       0.13733157       3.68434537        8       0.00341497      -0.00241475      -0.00418246
In      -1.40701962       3.97965246      -0.00000000        9       0.00000000       0.00000000      -0.00000000
In       4.02684269       6.10681025       0.23786525       10       0.00341497      -0.00241475      -0.00418246
In      -1.21280346      -2.12715779       6.65509500       11      -0.00341497       0.00241475       0.00418246
In       4.02684269       2.71007621       1.72324006       12       0.00341497       0.00482949       0.00000000
In       1.60123578       4.83723401       1.96110531       13      -0.00341497       0.00241475      -0.00418246
In       4.22105886       0.00000000      -0.00000000       14       0.00000000       0.00000000       0.00000000
In       1.40701962       1.98982623       3.44648012       15       0.00000000      -0.00000000       0.00000000
O        0.80583475       3.97264350       3.77985064       16      -0.02785952      -0.00088335       0.07772745
O       -2.00820449       3.27695116       5.00910487       17      -0.02785952       0.06775562      -0.03809872
O       -0.40050967       2.14013925       0.08516061       18       0.05376127       0.01004101       0.06186593
O       -0.80583475      -0.70971026       1.89599526       19       0.02785952       0.06687227       0.03962873
O        3.75894068       4.73853022       1.81083465       20       0.07316712      -0.03115396      -0.02223720
O        1.86913780       2.79086253       1.56262474       21      -0.07316712       0.00368100      -0.03809872
O        1.86913780       5.92732015       0.24820990       22      -0.07316712      -0.03483496       0.01586152
O       -2.15124586       5.63370307       3.53164073       23       0.00845367      -0.05403361       0.06186593
O        3.21454890       1.83951321       6.80779964       24      -0.05376127      -0.01004101      -0.06186593
O        4.96528509      -1.65405061       3.36131952       25      -0.00845367       0.05403361      -0.06186593
O        6.02858814       3.13364710       1.63564547       26      -0.05376127       0.05859797       0.02223720
O        3.47683262       2.23146529       3.69469003       27       0.00845367       0.08059427       0.01586152
O        0.66279338       4.07378902       6.55958973       28       0.00845367      -0.02656066      -0.07772745
O        2.15124585      -0.09413655       0.33337051       29      -0.00845367       0.02656066       0.07772745
O       -3.21454891       0.84600536       5.25731477       30       0.05376127      -0.05859797      -0.02223720
O        4.82224373       0.70270130       1.88385538       31       0.02785952      -0.06775562       0.03809872
O        0.94490144       1.18878993       5.33033551       32       0.07316712      -0.00368100       0.03809872
O        3.21454891      -0.99350785       5.34247538       33      -0.05376127      -0.04855696       0.03962873
O        2.00820449       0.00700896       3.11310961       34       0.02785952       0.00088335      -0.07772745
O        0.94490144      -1.94766769       6.64475034       35       0.07316712       0.03483496      -0.01586152
O       -0.66279339       1.74818717       3.19827022       36      -0.00845367      -0.08059427      -0.01586152
O       -0.94490144      -0.75887776       5.08212560       37      -0.07316712       0.03115396       0.02223720
O       -0.40050967       4.97316032       1.55048486       38       0.05376127       0.04855696      -0.03962873
O        3.61987399       4.68936272       4.99696499       39      -0.02785952      -0.06687227      -0.03962873
40
Lattice="8.442117718312383 6.616740255622012e-10 1.9153604418379683e-14 -2.814039240061293 7.959304914704497 -1.1460573449669998e-09 -2.814039239125561 -3.9796524566905767 6.892960253364458" Properties=species:S:1:pos:R:3:spacegroup_kinds:I:1:forces:R:3 spacegroup="P 1" unit_cell=conventional occupancy="_JSON {\"0\": {\"In\": 1}, \"1\": {\"In\": 1}, \"2\": {\"In\": 1}, \"3\": {\"In\": 1}, \"4\": {\"In\": 1}, \"5\": {\"In\": 1}, \"6\": {\"In\": 1}, \"7\": {\"In\": 1}, \"8\": {\"In\": 1}, \"9\": {\"In\": 1}, \"10\": {\"In\": 1}, \"11\": {\"In\": 1}, \"12\": {\"In\": 1}, \"13\": {\"In\": 1}, \"14\": {\"In\": 1}, \"15\": {\"In\": 1}, \"16\": {\"O\": 1}, \"17\": {\"O\": 1}, \"18\": {\"O\": 1}, \"19\": {\"O\": 1}, \"20\": {\"O\": 1}, \"21\": {\"O\": 1}, \"22\": {\"O\": 1}, \"23\": {\"O\": 1}, \"24\": {\"O\": 1}, \"25\": {\"O\": 1}, \"26\": {\"O\": 1}, \"27\": {\"O\": 1}, \"28\": {\"O\": 1}, \"29\": {\"O\": 1}, \"30\": {\"O\": 1}, \"31\": {\"O\": 1}, \"32\": {\"O\": 1}, \"33\": {\"O\": 1}, \"34\": {\"O\": 1}, \"35\": {\"O\": 1}, \"36\": {\"O\": 1}, \"37\": {\"O\": 1}, \"38\": {\"O\": 1}, \"39\": {\"O\": 1}}" n_minim_iter=2 energy=-45144.3910937736 stress="-0.21574203052103777 6.838988268355499e-14 -3.191204955348564e-13 6.838988268355499e-14 -0.21574203052128174 1.594194657600061e-13 -3.191204955348564e-13 1.594194657600061e-13 -0.21574203052098834" free_energy=-45144.3910937736 pbc="T T T"
In      -4.02702469       2.84753647       5.40736254        0       0.04080313      -0.02885217       0.04997342
In       6.84106393       1.13211599       1.48559771        1      -0.04080313       0.02885217      -0.04997342
In       1.21298545      -0.85771024       4.93207784        2      -0.04080313       0.02885217      -0.04997342
In      -1.40701962      -1.98982623       3.44648012        3      -0.00000000       0.00000000       0.00000000
In      -1.21298545       3.84244958       3.20883777        4       0.04080313      -0.02885217      -0.04997342
In       4.41509302      -2.71033359       5.16972019        5       0.04080313       0.05770434       0.00000000
In      -1.21298545       1.26931887       5.16972019        6       0.04080313       0.05770434      -0.00000000
In      -1.60105379       6.68998605       1.72324006        7      -0.04080313      -0.05770434       0.00000000
In       4.02702469       0.13720288       3.68412247        8      -0.04080313       0.02885217       0.04997342
In      -1.40701962       3.97965246      -0.00000000        9       0.00000000       0.00000000       0.00000000
In       4.02702469       6.10668156       0.23764235       10      -0.04080313       0.02885217       0.04997342
In      -1.21298545      -2.12702910       6.65531790       11       0.04080313      -0.02885217      -0.04997342
In       4.02702469       2.71033359       1.72324006       12      -0.04080313      -0.05770434       0.00000000
In       1.60105378       4.83736270       1.96088241       13       0.04080313      -0.02885217       0.04997342
In       4.22105886       0.00000000      -0.00000000       14      -0.00000000       0.00000000       0.00000000
In       1.40701962       1.98982623       3.44648012       15       0.00000000       0.00000000      -0.00000000
O        0.80435000       3.97259642       3.78399304       16      -0.03425642      -0.02786670      -0.00989946
O       -2.00968924       3.28056213       5.00707444       17      -0.03425642       0.00536017       0.02908300
O       -0.39764452       2.14067437       0.08845769       18      -0.03263817       0.00421589       0.03106494
O       -0.80435001      -0.70614637       1.89810723       19       0.03425642      -0.02250653       0.01918354
O        3.76284004       4.73686990       1.80964954       20       0.01647242       0.04044188      -0.01188140
O        1.86523843       2.79105870       1.56059431       21      -0.01647242       0.03051054       0.02908300
O        1.86523843       5.92546366       0.24905523       22      -0.01647242       0.00993135      -0.04096440
O       -2.15079533       5.63082341       3.53493781       23      -0.01485417       0.02936626       0.03106494
O        3.21168375       1.83897809       6.80450256       24       0.03263817      -0.00421589      -0.03106494
O        4.96483456      -1.65117095       3.35802244       25       0.01485417      -0.02936626      -0.03106494
O        6.02572299       3.13677002       1.63683058       26       0.03263817       0.02901098       0.01188140
O        3.47728315       2.23576048       3.69553535       27      -0.01485417       0.01221990      -0.04096440
O        0.66324391       4.07237349       6.55544733       28      -0.01485417      -0.04158616       0.00989946
O        2.15079532      -0.09272103       0.33751292       29       0.01485417       0.04158616      -0.00989946
O       -3.21168376       0.84288244       5.25612967       30      -0.03263817      -0.02901098      -0.01188140
O        4.82372847       0.69909034       1.88588581       31       0.03425642      -0.00536017      -0.02908300
O        0.94880080       1.18859376       5.33236594       32       0.01647242      -0.03051054      -0.02908300
O        3.21168375      -0.99609565       5.34458736       33       0.03263817      -0.02479508       0.01918354
O        2.00968923       0.00705604       3.10896721       34       0.03425642       0.02786670       0.00989946
O        0.94880080      -1.94581119       6.64390502       35       0.01647242      -0.00993135       0.04096440
O       -0.66324392       1.74389199       3.19742489       36       0.01485417      -0.01221990       0.04096440
O       -0.94880081      -0.75721744       5.08331071       37      -0.01647242      -0.04044188       0.01188140
O       -0.39764452       4.97574811       1.54837289       38      -0.03263817       0.02479508      -0.01918354
O        3.61838924       4.68579883       4.99485302       39      -0.03425642       0.02250653      -0.01918354
40
Lattice="8.442117718312385 6.616740255622012e-10 1.9153604418379683e-14 -2.814039240061293 7.9593049147045 -1.1460573449670006e-09 -2.814039239125561 -3.979652456690578 6.8929602533644605" Properties=species:S:1:pos:R:3:spacegroup_kinds:I:1:forces:R:3 spacegroup="P 1" unit_cell=conventional occupancy="_JSON {\"0\": {\"In\": 1}, \"1\": {\"In\": 1}, \"2\": {\"In\": 1}, \"3\": {\"In\": 1}, \"4\": {\"In\": 1}, \"5\": {\"In\": 1}, \"6\": {\"In\": 1}, \"7\": {\"In\": 1}, \"8\": {\"In\": 1}, \"9\": {\"In\": 1}, \"10\": {\"In\": 1}, \"11\": {\"In\": 1}, \"12\": {\"In\": 1}, \"13\": {\"In\": 1}, \"14\": {\"In\": 1}, \"15\": {\"In\": 1}, \"16\": {\"O\": 1}, \"17\": {\"O\": 1}, \"18\": {\"O\": 1}, \"19\": {\"O\": 1}, \"20\": {\"O\": 1}, \"21\": {\"O\": 1}, \"22\": {\"O\": 1}, \"23\": {\"O\": 1}, \"24\": {\"O\": 1}, \"25\": {\"O\": 1}, \"26\": {\"O\": 1}, \"27\": {\"O\": 1}, \"28\": {\"O\": 1}, \"29\": {\"O\": 1}, \"30\": {\"O\": 1}, \"31\": {\"O\": 1}, \"32\": {\"O\": 1}, \"33\": {\"O\": 1}, \"34\": {\"O\": 1}, \"35\": {\"O\": 1}, \"36\": {\"O\": 1}, \"37\": {\"O\": 1}, \"38\": {\"O\": 1}, \"39\": {\"O\": 1}}" n_minim_iter=3 energy=-45144.39359901267 stress="-0.21526358484131541 -4.313835170154107e-14 3.014949762288069e-13 -4.313835170154107e-14 -0.21526358484059732 6.132842378655038e-13 3.014949762288069e-13 6.132842378655038e-13 -0.21526358484127855" free_energy=-45144.39359901267 pbc="T T T"
In      -4.02525464       2.84628486       5.40953040        0       0.00187491      -0.00132576       0.00229629
In       6.83929388       1.13336761       1.48342985        1      -0.00187491       0.00132576      -0.00229629
In       1.21121540      -0.85645862       4.92990998        2      -0.00187491       0.00132576      -0.00229629
In      -1.40701962      -1.98982623       3.44648012        3      -0.00000000       0.00000000      -0.00000000
In      -1.21121540       3.84119797       3.20666991        4       0.00187491      -0.00132576      -0.00229629
In       4.41686308      -2.70783036       5.16972019        5       0.00187491       0.00265153       0.00000000
In      -1.21121540       1.27182210       5.16972019        6       0.00187491       0.00265153       0.00000000
In      -1.60282384       6.68748282       1.72324006        7      -0.00187491      -0.00265153      -0.00000000
In       4.02525464       0.13845449       3.68629034        8      -0.00187491       0.00132576       0.00229629
In      -1.40701962       3.97965246      -0.00000000        9      -0.00000000      -0.00000000       0.00000000
In       4.02525464       6.10793318       0.23981021       10      -0.00187491       0.00132576       0.00229629
In      -1.21121540      -2.12828072       6.65315004       11       0.00187491      -0.00132576      -0.00229629
In       4.02525464       2.70783037       1.72324006       12      -0.00187491      -0.00265153       0.00000000
In       1.60282384       4.83611108       1.96305027       13       0.00187491      -0.00132576       0.00229629
In       4.22105886       0.00000000      -0.00000000       14      -0.00000000      -0.00000000      -0.00000000
In       1.40701962       1.98982623       3.44648012       15       0.00000000      -0.00000000       0.00000000
O        0.80192505       3.97128930       3.78591337       16      -0.00096592       0.00598423       0.00028166
O       -2.01211419       3.28287874       5.00724627       17      -0.00096592      -0.00274819      -0.00532333
O       -0.39750107       2.14117486       0.09177515       18       0.00272900      -0.00536089      -0.00079800
O       -0.80192505      -0.70513688       1.90019940       19       0.00096592       0.00323604      -0.00504167
O        3.76583249       4.73777575       1.80842424       20      -0.00226905      -0.00369677      -0.00424367
O        1.86224599       2.79257277       1.56076615       21       0.00226905       0.00182674      -0.00532333
O        1.86224599       5.92485544       0.24765809       22       0.00226905      -0.00552351       0.00107966
O       -2.15121938       5.63052134       3.53825528       23       0.00596396      -0.00078596      -0.00079800
O        3.21154031       1.83847760       6.80118510       24      -0.00272900       0.00536089       0.00079800
O        4.96525861      -1.65086888       3.35470497       25      -0.00596396       0.00078596       0.00079800
O        6.02557955       3.13989328       1.63805588       26      -0.00272900      -0.00337153       0.00424367
O        3.47685910       2.23878452       3.69413822       27       0.00596396      -0.00029811       0.00107966
O        0.66281986       4.06965152       6.55352700       28       0.00596396       0.00108407      -0.00028166
O        2.15121937      -0.08999906       0.33943325       29      -0.00596396      -0.00108407       0.00028166
O       -3.21154031       0.83975919       5.25490437       30       0.00272900       0.00337153      -0.00424367
O        4.82615343       0.69677372       1.88571398       31       0.00096592       0.00274819       0.00532333
O        0.95179325       1.18707969       5.33219410       32      -0.00226905      -0.00182674       0.00532333
O        3.21154031      -0.99871841       5.34667952       33      -0.00272900      -0.00198936      -0.00504167
O        2.01211419       0.00836316       3.10704687       34       0.00096592      -0.00598423      -0.00028166
O        0.95179325      -1.94520298       6.64530215       35      -0.00226905       0.00552351      -0.00107966
O       -0.66281987       1.74086794       3.19882203       36      -0.00596396       0.00029811      -0.00107966
O       -0.95179325      -0.75812329       5.08453601       37       0.00226905       0.00369677       0.00424367
O       -0.39750107       4.97837087       1.54628072       38       0.00272900       0.00198936       0.00504167
O        3.61596429       4.68478934       4.99276085       39      -0.00096592      -0.00323604       0.00504167
