40
Lattice="9.05819213170854 7.099549370899342e-10 9.170031065348339e-15 -3.019397377905532 8.540145441925661 -1.2296880113552274e-09 -3.0193973769015097 -4.270072720252871 7.395982905541296" Properties=species:S:1:pos:R:3:spacegroup_kinds:I:1:forces:R:3 spacegroup="P 1" unit_cell=conventional occupancy="_JSON {\"0\": {\"In\": 1}, \"1\": {\"In\": 1}, \"2\": {\"In\": 1}, \"3\": {\"In\": 1}, \"4\": {\"In\": 1}, \"5\": {\"In\": 1}, \"6\": {\"In\": 1}, \"7\": {\"In\": 1}, \"8\": {\"In\": 1}, \"9\": {\"In\": 1}, \"10\": {\"In\": 1}, \"11\": {\"In\": 1}, \"12\": {\"In\": 1}, \"13\": {\"In\": 1}, \"14\": {\"In\": 1}, \"15\": {\"In\": 1}, \"16\": {\"O\": 1}, \"17\": {\"O\": 1}, \"18\": {\"O\": 1}, \"19\": {\"O\": 1}, \"20\": {\"O\": 1}, \"21\": {\"O\": 1}, \"22\": {\"O\": 1}, \"23\": {\"O\": 1}, \"24\": {\"O\": 1}, \"25\": {\"O\": 1}, \"26\": {\"O\": 1}, \"27\": {\"O\": 1}, \"28\": {\"O\": 1}, \"29\": {\"O\": 1}, \"30\": {\"O\": 1}, \"31\": {\"O\": 1}, \"32\": {\"O\": 1}, \"33\": {\"O\": 1}, \"34\": {\"O\": 1}, \"35\": {\"O\": 1}, \"36\": {\"O\": 1}, \"37\": {\"O\": 1}, \"38\": {\"O\": 1}, \"39\": {\"O\": 1}}" n_minim_iter=7 energy=-45151.341337253114 stress="0.039490710805124125 1.3946739995132602e-13 9.02858284288697e-14 1.3946739995132602e-13 0.039490710804866616 2.5004242278324714e-13 9.02858284288697e-14 2.5004242278324714e-13 0.03949071080537709" free_energy=-45151.341337253114 pbc="T T T"
In      -4.31832306       3.05351552       5.80513034        0       0.00381644      -0.00269863       0.00467417
In       7.33772043       1.21655721       1.59085256        1      -0.00381644       0.00269863      -0.00467417
In       1.29892568      -0.91847915       5.28884401        2      -0.00381644       0.00269863      -0.00467417
In      -1.50969869      -2.13503636       3.69799145        3      -0.00000000      -0.00000000       0.00000000
In      -1.29892568       4.12103370       3.43984828        4       0.00381644      -0.00269863      -0.00467417
In       4.73986908      -2.90447649       5.54698718        5       0.00381644       0.00539727       0.00000000
In      -1.29892568       1.36559623       5.54698718        6       0.00381644       0.00539727      -0.00000000
In      -1.72047170       7.17454921       1.84899572        7      -0.00381644      -0.00539727      -0.00000000
In       4.31832305       0.14903903       3.95613462        8      -0.00381644       0.00269863       0.00467417
In      -1.50969869       4.27007272      -0.00000000        9      -0.00000000      -0.00000000       0.00000000
In       4.31832305       6.55414811       0.25814316       10      -0.00381644       0.00269863       0.00467417
In      -1.29892568      -2.28407538       7.13783974       11       0.00381644      -0.00269863      -0.00467417
In       4.31832305       2.90447649       1.84899572       12      -0.00381644      -0.00539727       0.00000000
In       1.72047170       5.18855188       2.10713889       13       0.00381644      -0.00269863       0.00467417
In       4.52909606       0.00000000      -0.00000000       14      -0.00000000      -0.00000000       0.00000000
In       1.50969869       2.13503636       3.69799145       15       0.00000000       0.00000000      -0.00000000
O        0.91575294       4.27527104       4.01388397       16      -0.00086871       0.00116757       0.00584416
O       -2.10364443       3.47352633       5.38453905       17      -0.00086871       0.00447741      -0.00393323
O       -0.44083914       2.29774544       0.02506839       18       0.00503257       0.00030458       0.00329433
O       -0.91575295      -0.79134807       2.00244011       19       0.00086871       0.00564498       0.00191093
O        3.97608684       5.07589405       1.97737172       20       0.00451091      -0.00374300      -0.00138339
O        2.06270791       2.96052924       1.68654759       21      -0.00451091      -0.00067345      -0.00393323
O        2.06270791       6.38543753       0.29082412       22      -0.00451091      -0.00306955       0.00254984
O       -2.31328155       6.05482107       3.72305985       23       0.00139037      -0.00484628       0.00329433
O        3.46023652       1.97232729       7.37091450       24      -0.00503257      -0.00030457      -0.00329433
O        5.33267893      -1.78474834       3.67292305       25      -0.00139037       0.00484628      -0.00329433
O        6.47963389       3.30561895       1.72061973       26      -0.00503257       0.00300526       0.00138339
O        3.72551320       2.33189024       3.98881557       27       0.00139037       0.00527611       0.00254984
O        0.70611582       4.42350686       7.08009038       28       0.00139037      -0.00042983      -0.00584416
O        2.31328155      -0.15343414       0.31589252       29      -0.00139037       0.00042983       0.00584416
O       -3.46023652       0.96445378       5.67536317       30       0.00503257      -0.00300526      -0.00138339
O        5.12304181       0.79654639       2.01144385       31       0.00086871      -0.00447741       0.00393323
O        0.95668946       1.30954348       5.70943531       32       0.00451091       0.00067345       0.00393323
O        3.46023652      -1.00787351       5.70043157       33      -0.00503257      -0.00270068       0.00191093
O        2.10364443      -0.00519831       3.38209893       34       0.00086871      -0.00116757      -0.00584416
O        0.95668946      -2.11536480       7.10515878       35       0.00451091       0.00306955      -0.00254984
O       -0.70611583       1.93818248       3.40716733       36      -0.00139037      -0.00527611      -0.00254984
O       -0.95668947      -0.80582132       5.41861118       37      -0.00451091       0.00374300       0.00138339
O       -0.44083914       5.27794624       1.69555133       38       0.00503257       0.00270068      -0.00191093
O        3.93515032       5.06142080       5.39354279       39      -0.00086871      -0.00564498      -0.00191093
