40
Lattice="8.186136763379945 6.416114853183071e-10 2.805394648262284e-14 -2.7287122550649014 7.717963755928078 -1.1113073828541036e-09 -2.7287122541575504 -3.858981877322431 6.68395267886213" Properties=species:S:1:pos:R:3:spacegroup_kinds:I:1:forces:R:3 spacegroup="P 1" unit_cell=conventional occupancy="_JSON {\"0\": {\"In\": 1}, \"1\": {\"In\": 1}, \"2\": {\"In\": 1}, \"3\": {\"In\": 1}, \"4\": {\"In\": 1}, \"5\": {\"In\": 1}, \"6\": {\"In\": 1}, \"7\": {\"In\": 1}, \"8\": {\"In\": 1}, \"9\": {\"In\": 1}, \"10\": {\"In\": 1}, \"11\": {\"In\": 1}, \"12\": {\"In\": 1}, \"13\": {\"In\": 1}, \"14\": {\"In\": 1}, \"15\": {\"In\": 1}, \"16\": {\"O\": 1}, \"17\": {\"O\": 1}, \"18\": {\"O\": 1}, \"19\": {\"O\": 1}, \"20\": {\"O\": 1}, \"21\": {\"O\": 1}, \"22\": {\"O\": 1}, \"23\": {\"O\": 1}, \"24\": {\"O\": 1}, \"25\": {\"O\": 1}, \"26\": {\"O\": 1}, \"27\": {\"O\": 1}, \"28\": {\"O\": 1}, \"29\": {\"O\": 1}, \"30\": {\"O\": 1}, \"31\": {\"O\": 1}, \"32\": {\"O\": 1}, \"33\": {\"O\": 1}, \"34\": {\"O\": 1}, \"35\": {\"O\": 1}, \"36\": {\"O\": 1}, \"37\": {\"O\": 1}, \"38\": {\"O\": 1}, \"39\": {\"O\": 1}}" n_minim_iter=8 energy=-45131.8475144422 stress="-0.41601124115060395 -6.480542325831308e-13 4.350475308134683e-14 -6.480542325831308e-13 -0.41601124115030946 -2.8758826902995237e-13 4.350475308134683e-14 -2.8758826902995237e-13 -0.41601124115152405" free_energy=-45131.8475144422 pbc="T T T"
In      -3.88774718       2.74905239       5.26443060        0       0.00038483      -0.00027212       0.00047132
In       6.61645943       1.10992949       1.41952207        1      -0.00038483       0.00027212      -0.00047132
In       1.15903492      -0.81956145       4.76149841        2      -0.00038483       0.00027212      -0.00047132
In      -1.36435613      -1.92949094       3.34197634        3      -0.00000000      -0.00000000       0.00000000
In      -1.15903492       3.71379786       3.09051024        4       0.00038483      -0.00027212      -0.00047132
In       4.29838959      -2.60386837       5.01296451        5       0.00038483       0.00054423       0.00000000
In      -1.15903492       1.25511351       5.01296451        6       0.00038483       0.00054423      -0.00000000
In      -1.56967734       6.46285025       1.67098817        7      -0.00038483      -0.00054423       0.00000000
In       3.88774717       0.14518402       3.59344243        8      -0.00038483       0.00027212       0.00047132
In      -1.36435613       3.85898188      -0.00000000        9       0.00000000       0.00000000      -0.00000000
In       3.88774717       5.93365684       0.25146609       10      -0.00038483       0.00027212       0.00047132
In      -1.15903492      -2.07467496       6.43248658       11       0.00038483      -0.00027212      -0.00047132
In       3.88774717       2.60386837       1.67098817       12      -0.00038483      -0.00054423      -0.00000000
In       1.56967733       4.67854333       1.92245426       13       0.00038483      -0.00027212       0.00047132
In       4.09306838       0.00000000      -0.00000000       14       0.00000000      -0.00000000       0.00000000
In       1.36435613       1.92949094       3.34197634       15      -0.00000000      -0.00000000       0.00000000
O        0.77591329       3.84888410       3.69965230       16      -0.00075191       0.00099212       0.00103236
O       -1.95279896       3.20904177       4.84287146       17      -0.00075191       0.00039800      -0.00137538
O       -0.36365193       2.08534513       0.10521846       18       0.00105997      -0.00088320       0.00084372
O       -0.77591330      -0.66003789       1.85857109       19       0.00075191       0.00139011      -0.00034302
O        3.67644658       4.57976768       1.75335262       20       0.00062587      -0.00090299      -0.00118673
O        1.78097793       2.70092687       1.50089512       21      -0.00062587       0.00057624      -0.00137538
O        1.78097793       5.73782269       0.25245749       22      -0.00062587      -0.00147924       0.00018865
O       -2.08729955       5.43621210       3.44719480       23       0.00118601      -0.00070495       0.00084372
O        3.09236418       1.77363675       6.57873421       24      -0.00105997       0.00088320      -0.00084372
O        4.81601180      -1.57723022       3.23675787       25      -0.00118601       0.00070495      -0.00084372
O        5.82107644       3.06328537       1.58862371       26      -0.00105997       0.00028908       0.00118673
O        3.37012496       2.19674316       3.59443383       27       0.00118601       0.00108316       0.00018865
O        0.64141270       3.94399038       6.32627671       28       0.00118601      -0.00037820      -0.00103236
O        2.08729955      -0.08500849       0.35767596       29      -0.00118601       0.00037820       0.00103236
O       -3.09236418       0.79569651       5.09532896       30       0.00105997      -0.00028908      -0.00118673
O        4.68151121       0.64994011       1.84108121       31       0.00075191      -0.00039800       0.00137538
O        0.94773433       1.15805502       5.18305755       32       0.00062587      -0.00057624       0.00137538
O        3.09236418      -0.97794024       5.20054743       33      -0.00105997      -0.00117228      -0.00034302
O        1.95279896       0.01009779       2.98430038       34       0.00075191      -0.00099212      -0.00103236
O        0.94773433      -1.87884081       6.43149518       35       0.00062587       0.00147924      -0.00018865
O       -0.64141271       1.66223872       3.08951884       36      -0.00118601      -0.00108316      -0.00018865
O       -0.94773433      -0.72078580       4.93060005       37      -0.00062587       0.00090299       0.00118673
O       -0.36365193       4.83692212       1.48340525       38       0.00105997       0.00117228       0.00034302
O        3.50462555       4.51901977       4.82538159       39      -0.00075191      -0.00139011       0.00034302
