40
Lattice="8.76098554125404 6.866614717646163e-10 1.0255242571585685e-14 -2.9203285143987365 8.25993638123515 -1.1893364102308343e-09 -2.9203285134276595 -4.1299681899309135 7.15331474058583" Properties=species:S:1:pos:R:3:spacegroup_kinds:I:1:forces:R:3 spacegroup="P 1" unit_cell=conventional occupancy="_JSON {\"0\": {\"In\": 1}, \"1\": {\"In\": 1}, \"2\": {\"In\": 1}, \"3\": {\"In\": 1}, \"4\": {\"In\": 1}, \"5\": {\"In\": 1}, \"6\": {\"In\": 1}, \"7\": {\"In\": 1}, \"8\": {\"In\": 1}, \"9\": {\"In\": 1}, \"10\": {\"In\": 1}, \"11\": {\"In\": 1}, \"12\": {\"In\": 1}, \"13\": {\"In\": 1}, \"14\": {\"In\": 1}, \"15\": {\"In\": 1}, \"16\": {\"O\": 1}, \"17\": {\"O\": 1}, \"18\": {\"O\": 1}, \"19\": {\"O\": 1}, \"20\": {\"O\": 1}, \"21\": {\"O\": 1}, \"22\": {\"O\": 1}, \"23\": {\"O\": 1}, \"24\": {\"O\": 1}, \"25\": {\"O\": 1}, \"26\": {\"O\": 1}, \"27\": {\"O\": 1}, \"28\": {\"O\": 1}, \"29\": {\"O\": 1}, \"30\": {\"O\": 1}, \"31\": {\"O\": 1}, \"32\": {\"O\": 1}, \"33\": {\"O\": 1}, \"34\": {\"O\": 1}, \"35\": {\"O\": 1}, \"36\": {\"O\": 1}, \"37\": {\"O\": 1}, \"38\": {\"O\": 1}, \"39\": {\"O\": 1}}" n_minim_iter=1 energy=-45151.225919127995 stress="-0.05285519767449352 3.7786977982471565e-14 -1.77858523681318e-13 3.7786977982471565e-14 -0.05285519767550065 -1.4848222331085434e-13 -1.77858523681318e-13 -1.4848222331085434e-13 -0.05285519767586819" free_energy=-45151.225919127995 pbc="T T T"
In      -4.18364061       2.95828064       5.60607973        0      -0.00499193       0.00352982      -0.00611384
In       7.10396912       1.17168755       1.54723500        1       0.00499193      -0.00352982       0.00611384
In       1.26331209      -0.89329654       5.12389237        2       0.00499193      -0.00352982       0.00611384
In      -1.46016426      -2.06498409       3.57665737        3       0.00000000      -0.00000000      -0.00000000
In      -1.26331209       3.99077269       3.33556369        4      -0.00499193       0.00352982       0.00611384
In       4.57734493      -2.81908514       5.36498605        5      -0.00499193      -0.00705965       0.00000000
In      -1.26331209       1.31088305       5.36498605        6      -0.00499193      -0.00705965       0.00000000
In      -1.65701642       6.94905333       1.78832868        7       0.00499193       0.00705965      -0.00000000
In       4.18364060       0.13919550       3.81775105        8       0.00499193      -0.00352982      -0.00611384
In      -1.46016426       4.12996819      -0.00000000        9       0.00000000      -0.00000000      -0.00000000
In       4.18364060       6.33414779       0.24109368       10       0.00499193      -0.00352982      -0.00611384
In      -1.26331209      -2.20417959       6.91222106       11      -0.00499193       0.00352982       0.00611384
In       4.18364060       2.81908514       1.78832868       12       0.00499193       0.00705965       0.00000000
In       1.65701642       5.02326474       2.02942236       13      -0.00499193       0.00352982      -0.00611384
In       4.38049277       0.00000000      -0.00000000       14      -0.00000000      -0.00000000      -0.00000000
In       1.46016426       2.06498410       3.57665737       15       0.00000000      -0.00000000       0.00000000
O        0.85294610       4.12838650       3.89852734       16      -0.02258608      -0.01521178       0.07562399
O       -2.06738242       3.37701456       5.20542086       17      -0.02258608       0.07309819      -0.02463821
O       -0.42706736       2.21713667       0.06107357       18       0.04704713       0.02386007       0.06064472
O       -0.85294610      -0.75453532       1.95063346       19       0.02258608       0.05788641       0.05098578
O        3.87300733       4.91976436       1.88955989       20       0.07644633      -0.02287316      -0.00965893
O        1.96764969       2.88845941       1.62876349       21      -0.07644633      -0.00307170      -0.02463821
O        1.96764969       6.16127314       0.26079640       22      -0.07644633      -0.01980146       0.01497927
O       -2.23269228       5.85854970       3.63773094       23      -0.00681311      -0.05230982       0.06064472
O        3.34739587       1.91283153       7.09224117       24      -0.04704713      -0.02386007      -0.06064472
O        5.15302079      -1.72858151       3.51558380       25       0.00681311       0.05230982      -0.06064472
O        6.26772438       3.22644369       1.68709748       26      -0.04704713       0.06444990       0.00965893
O        3.60796475       2.28607665       3.83745377       27      -0.00681311       0.07867477       0.01497927
O        0.68763623       4.24527822       6.83144477       28      -0.00681311      -0.02636496      -0.07562399
O        2.23269228      -0.11531003       0.32186997       29       0.00681311       0.02636496       0.07562399
O       -3.34739587       0.90352450       5.46621726       30       0.04704713      -0.06444990      -0.00965893
O        4.98771093       0.75295363       1.94789388       31       0.02258608      -0.07309819       0.02463821
O        0.95267882       1.24150879       5.52455125       32       0.07644633       0.00307170       0.02463821
O        3.34739587      -1.00930702       5.52729083       33      -0.04704713      -0.04058983       0.05098578
O        2.06738241       0.00158170       3.25478740       34       0.02258608       0.01521178      -0.07562399
O        0.95267882      -2.03130495       6.89251834       35       0.07644633       0.01980146      -0.01497927
O       -0.68763624       1.84389154       3.31586097       36       0.00681311      -0.07867477      -0.01497927
O       -0.95267882      -0.78979616       5.26375485       37      -0.07644633       0.02287316       0.00965893
O       -0.42706736       5.13927522       1.62602391       38       0.04704713       0.04058983      -0.05098578
O        3.77327461       4.88450352       5.20268128       39      -0.02258608      -0.05788641      -0.05098578
40
Lattice="8.76098554125404 6.866614717646163e-10 1.0255242571585685e-14 -2.9203285143987365 8.25993638123515 -1.1893364102308343e-09 -2.9203285134276595 -4.1299681899309135 7.15331474058583" Properties=species:S:1:pos:R:3:spacegroup_kinds:I:1:forces:R:3 spacegroup="P 1" unit_cell=conventional occupancy="_JSON {\"0\": {\"In\": 1}, \"1\": {\"In\": 1}, \"2\": {\"In\": 1}, \"3\": {\"In\": 1}, \"4\": {\"In\": 1}, \"5\": {\"In\": 1}, \"6\": {\"In\": 1}, \"7\": {\"In\": 1}, \"8\": {\"In\": 1}, \"9\": {\"In\": 1}, \"10\": {\"In\": 1}, \"11\": {\"In\": 1}, \"12\": {\"In\": 1}, \"13\": {\"In\": 1}, \"14\": {\"In\": 1}, \"15\": {\"In\": 1}, \"16\": {\"O\": 1}, \"17\": {\"O\": 1}, \"18\": {\"O\": 1}, \"19\": {\"O\": 1}, \"20\": {\"O\": 1}, \"21\": {\"O\": 1}, \"22\": {\"O\": 1}, \"23\": {\"O\": 1}, \"24\": {\"O\": 1}, \"25\": {\"O\": 1}, \"26\": {\"O\": 1}, \"27\": {\"O\": 1}, \"28\": {\"O\": 1}, \"29\": {\"O\": 1}, \"30\": {\"O\": 1}, \"31\": {\"O\": 1}, \"32\": {\"O\": 1}, \"33\": {\"O\": 1}, \"34\": {\"O\": 1}, \"35\": {\"O\": 1}, \"36\": {\"O\": 1}, \"37\": {\"O\": 1}, \"38\": {\"O\": 1}, \"39\": {\"O\": 1}}" n_minim_iter=2 energy=-45151.23216440493 stress="-0.052057054234844406 1.8353123517291706e-14 3.414586480479798e-14 1.8353123517291706e-14 -0.05205705423434676 -3.935790909993566e-13 3.414586480479798e-14 -3.935790909993566e-13 -0.05205705423457257" free_energy=-45151.23216440493 pbc="T T T"
In      -4.18399717       2.95853277       5.60564303        0       0.02595037      -0.01834968       0.03178258
In       7.10432568       1.17143542       1.54767171        1      -0.02595037       0.01834968      -0.03178258
In       1.26366866      -0.89354868       5.12432908        2      -0.02595037       0.01834968      -0.03178258
In      -1.46016426      -2.06498409       3.57665737        3      -0.00000000      -0.00000000      -0.00000000
In      -1.26366866       3.99102482       3.33600039        4       0.02595037      -0.01834968      -0.03178258
In       4.57698837      -2.81958940       5.36498605        5       0.02595037       0.03669937       0.00000000
In      -1.26366866       1.31037879       5.36498605        6       0.02595037       0.03669937       0.00000000
In      -1.65665986       6.94955760       1.78832868        7      -0.02595037      -0.03669937      -0.00000000
In       4.18399717       0.13894337       3.81731434        8      -0.02595037       0.01834968       0.03178258
In      -1.46016426       4.12996819      -0.00000000        9       0.00000000      -0.00000000      -0.00000000
In       4.18399717       6.33389566       0.24065697       10      -0.02595037       0.01834968       0.03178258
In      -1.26366866      -2.20392746       6.91265776       11       0.02595037      -0.01834968      -0.03178258
In       4.18399717       2.81958940       1.78832868       12      -0.02595037      -0.03669937      -0.00000000
In       1.65665985       5.02351687       2.02898566       13       0.02595037      -0.01834968       0.03178258
In       4.38049277       0.00000000      -0.00000000       14      -0.00000000       0.00000000      -0.00000000
In       1.46016426       2.06498410       3.57665737       15       0.00000000       0.00000000      -0.00000000
O        0.85133281       4.12729994       3.90392905       16      -0.02968931      -0.01497449       0.00030885
O       -2.06899571       3.38223586       5.20366098       17      -0.02968931       0.00775471       0.01281387
O       -0.42370685       2.21884096       0.06540533       18      -0.01670331      -0.00142777       0.02871841
O       -0.85133281      -0.75040058       1.95427530       19       0.02968931      -0.00721978       0.01312271
O        3.87846778       4.91813056       1.88886996       20       0.01720765       0.02380036      -0.01559569
O        1.96218924       2.88824000       1.62700361       21      -0.01720765       0.02540644       0.01281387
O        1.96218924       6.15985875       0.26186635       22      -0.01720765      -0.00160609      -0.02840956
O       -2.23317893       5.85481329       3.64206270       23      -0.00422165       0.01622395       0.02871841
O        3.34403536       1.91112724       7.08790940       24       0.01670331       0.00142777      -0.02871841
O        5.15350744      -1.72484509       3.51125203       25       0.00422165      -0.01622395      -0.02871841
O        6.26436388       3.23104726       1.68778740       26       0.01670331       0.02415698       0.01559569
O        3.60747810       2.29169628       3.83852372       27      -0.00422165       0.01675889      -0.02840956
O        0.68714958       4.24339501       6.82604305       28      -0.00422165      -0.03298285      -0.00030885
O        2.23317893      -0.11342682       0.32727168       29       0.00422165       0.03298285       0.00030885
O       -3.34403536       0.89892094       5.46552733       30      -0.01670331      -0.02415698      -0.01559569
O        4.98932422       0.74773233       1.94965375       31       0.02968931      -0.00775472      -0.01281387
O        0.95813927       1.24172819       5.52631112       32       0.01720765      -0.02540644      -0.01281387
O        3.34403536      -1.01220630       5.53093267       33       0.01670331      -0.02558476       0.01312271
O        2.06899570       0.00266825       3.24938568       34       0.02968931       0.01497449      -0.00030885
O        0.95813927      -2.02989056       6.89144839       35       0.01720765       0.00160609       0.02840956
O       -0.68714959       1.83827191       3.31479102       36       0.00422165      -0.01675889       0.02840956
O       -0.95813927      -0.78816237       5.26444477       37      -0.01720765      -0.02380036       0.01559569
O       -0.42370685       5.14217449       1.62238207       38      -0.01670331       0.02558476      -0.01312271
O        3.77166132       4.88036877       5.19903944       39      -0.02968931       0.00721978      -0.01312271
40
Lattice="8.76098554125404 6.866614717646163e-10 1.0255242571585685e-14 -2.9203285143987365 8.25993638123515 -1.1893364102308343e-09 -2.9203285134276595 -4.1299681899309135 7.15331474058583" Properties=species:S:1:pos:R:3:spacegroup_kinds:I:1:forces:R:3 spacegroup="P 1" unit_cell=conventional occupancy="_JSON {\"0\": {\"In\": 1}, \"1\": {\"In\": 1}, \"2\": {\"In\": 1}, \"3\": {\"In\": 1}, \"4\": {\"In\": 1}, \"5\": {\"In\": 1}, \"6\": {\"In\": 1}, \"7\": {\"In\": 1}, \"8\": {\"In\": 1}, \"9\": {\"In\": 1}, \"10\": {\"In\": 1}, \"11\": {\"In\": 1}, \"12\": {\"In\": 1}, \"13\": {\"In\": 1}, \"14\": {\"In\": 1}, \"15\": {\"In\": 1}, \"16\": {\"O\": 1}, \"17\": {\"O\": 1}, \"18\": {\"O\": 1}, \"19\": {\"O\": 1}, \"20\": {\"O\": 1}, \"21\": {\"O\": 1}, \"22\": {\"O\": 1}, \"23\": {\"O\": 1}, \"24\": {\"O\": 1}, \"25\": {\"O\": 1}, \"26\": {\"O\": 1}, \"27\": {\"O\": 1}, \"28\": {\"O\": 1}, \"29\": {\"O\": 1}, \"30\": {\"O\": 1}, \"31\": {\"O\": 1}, \"32\": {\"O\": 1}, \"33\": {\"O\": 1}, \"34\": {\"O\": 1}, \"35\": {\"O\": 1}, \"36\": {\"O\": 1}, \"37\": {\"O\": 1}, \"38\": {\"O\": 1}, \"39\": {\"O\": 1}}" n_minim_iter=3 energy=-45151.2336956965 stress="-0.05154946182291294 -1.965849379735252e-13 9.752604865688003e-14 -1.965849379735252e-13 -0.05154946182235554 1.4796212556355748e-13 9.752604865688003e-14 1.4796212556355748e-13 -0.05154946182259927" free_energy=-45151.2336956965 pbc="T T T"
In      -4.18295838       2.95779824       5.60691529        0       0.01732111      -0.01224787       0.02121393
In       7.10328689       1.17216996       1.54639945        1      -0.01732111       0.01224787      -0.02121393
In       1.26262986      -0.89281414       5.12305682        2      -0.01732111       0.01224787      -0.02121393
In      -1.46016426      -2.06498409       3.57665737        3       0.00000000       0.00000000      -0.00000000
In      -1.26262986       3.99029028       3.33472813        4       0.01732111      -0.01224787      -0.02121393
In       4.57802716      -2.81812032       5.36498605        5       0.01732111       0.02449574       0.00000000
In      -1.26262986       1.31184787       5.36498605        6       0.01732111       0.02449574      -0.00000000
In      -1.65769865       6.94808852       1.78832868        7      -0.01732111      -0.02449574       0.00000000
In       4.18295838       0.13967791       3.81858660        8      -0.01732111       0.01224787       0.02121393
In      -1.46016426       4.12996819      -0.00000000        9      -0.00000000       0.00000000       0.00000000
In       4.18295837       6.33463020       0.24192923       10      -0.01732111       0.01224787       0.02121393
In      -1.26262986      -2.20466200       6.91138550       11       0.01732111      -0.01224787      -0.02121393
In       4.18295837       2.81812033       1.78832868       12      -0.01732111      -0.02449574      -0.00000000
In       1.65769865       5.02278233       2.03025792       13       0.01732111      -0.01224787       0.02121393
In       4.38049277       0.00000000      -0.00000000       14       0.00000000       0.00000000       0.00000000
In       1.46016426       2.06498410       3.57665737       15       0.00000000       0.00000000      -0.00000000
O        0.84907279       4.12601539       3.90680737       16      -0.01861031       0.00369935      -0.02234147
O       -2.07125573       3.38537084       5.20333427       17      -0.01861031      -0.02119796       0.00796700
O       -0.42271559       2.21967693       0.06906061       18      -0.02270128      -0.01830521       0.00295661
O       -0.84907279      -0.74855015       1.95682691       19       0.01861031      -0.01749860      -0.01437447
O        3.88217681       4.91839051       1.88776630       20      -0.01378219       0.01920560      -0.01733108
O        1.95848022       2.88932578       1.62667690       21       0.01378219       0.02461196       0.00796700
O        1.95848022       6.15903292       0.26108939       22       0.01378219      -0.00540635      -0.02529808
O       -2.23363667       5.85360006       3.64571798       23       0.00969122       0.02750471       0.00295661
O        3.34304410       1.91029127       7.08425413       24       0.02270128       0.01830521      -0.00295661
O        5.15396518      -1.72363186       3.50759676       25      -0.00969122      -0.02750471      -0.00295661
O        6.26337262       3.23463080       1.68889107       26       0.02270128      -0.00659210       0.01733108
O        3.60702035       2.29546846       3.83774676       27       0.00969122      -0.01119185      -0.02529808
O        0.68669184       4.24083606       6.82316473       28       0.00969122      -0.01631286       0.02234147
O        2.23363667      -0.11086787       0.33015000       29      -0.00969122       0.01631286      -0.02234147
O       -3.34304410       0.89533739       5.46442367       30      -0.02270128       0.00659210      -0.01733108
O        4.99158424       0.74459736       1.94998046       31       0.01861031       0.02119796      -0.00796700
O        0.96184829       1.24064242       5.52663783       32      -0.01378219      -0.02461196      -0.00796700
O        3.34304410      -1.01495387       5.53348428       33       0.02270128      -0.01171311      -0.01437447
O        2.07125572       0.00395280       3.24650736       34       0.01861031      -0.00369935       0.02234147
O        0.96184829      -2.02906473       6.89222534       35      -0.01378219       0.00540635       0.02529808
O       -0.68669184       1.83449974       3.31556797       36      -0.00969122       0.01119185       0.02529808
O       -0.96184830      -0.78842231       5.26554844       37       0.01378219      -0.01920560       0.01733108
O       -0.42271559       5.14492207       1.61983045       38      -0.02270128       0.01171311       0.01437447
O        3.76940130       4.87851835       5.19648782       39      -0.01861031       0.01749860       0.01437447
40
Lattice="8.760985541254042 6.866614717646163e-10 1.0255242571585683e-14 -2.920328514398737 8.25993638123515 -1.1893364102308346e-09 -2.92032851342766 -4.1299681899309135 7.153314740585832" Properties=species:S:1:pos:R:3:spacegroup_kinds:I:1:forces:R:3 spacegroup="P 1" unit_cell=conventional occupancy="_JSON {\"0\": {\"In\": 1}, \"1\": {\"In\": 1}, \"2\": {\"In\": 1}, \"3\": {\"In\": 1}, \"4\": {\"In\": 1}, \"5\": {\"In\": 1}, \"6\": {\"In\": 1}, \"7\": {\"In\": 1}, \"8\": {\"In\": 1}, \"9\": {\"In\": 1}, \"10\": {\"In\": 1}, \"11\": {\"In\": 1}, \"12\": {\"In\": 1}, \"13\": {\"In\": 1}, \"14\": {\"In\": 1}, \"15\": {\"In\": 1}, \"16\": {\"O\": 1}, \"17\": {\"O\": 1}, \"18\": {\"O\": 1}, \"19\": {\"O\": 1}, \"20\": {\"O\": 1}, \"21\": {\"O\": 1}, \"22\": {\"O\": 1}, \"23\": {\"O\": 1}, \"24\": {\"O\": 1}, \"25\": {\"O\": 1}, \"26\": {\"O\": 1}, \"27\": {\"O\": 1}, \"28\": {\"O\": 1}, \"29\": {\"O\": 1}, \"30\": {\"O\": 1}, \"31\": {\"O\": 1}, \"32\": {\"O\": 1}, \"33\": {\"O\": 1}, \"34\": {\"O\": 1}, \"35\": {\"O\": 1}, \"36\": {\"O\": 1}, \"37\": {\"O\": 1}, \"38\": {\"O\": 1}, \"39\": {\"O\": 1}}" n_minim_iter=4 energy=-45151.23424778177 stress="-0.05159625868036005 -4.85029647311267e-13 3.0665670942504533e-13 -4.85029647311267e-13 -0.05159625867987506 -5.537428169511469e-13 3.0665670942504533e-13 -5.537428169511469e-13 -0.05159625867908863" free_energy=-45151.23424778177 pbc="T T T"
In      -4.18247783       2.95745844       5.60750384        0       0.00529735      -0.00374579       0.00648790
In       7.10280634       1.17250976       1.54581090        1      -0.00529735       0.00374579      -0.00648790
In       1.26214931      -0.89247434       5.12246827        2      -0.00529735       0.00374579      -0.00648790
In      -1.46016426      -2.06498409       3.57665737        3       0.00000000      -0.00000000      -0.00000000
In      -1.26214932       3.98995048       3.33413958        4       0.00529735      -0.00374579      -0.00648790
In       4.57850771      -2.81744072       5.36498605        5       0.00529735       0.00749159       0.00000000
In      -1.26214931       1.31252747       5.36498605        6       0.00529735       0.00749159      -0.00000000
In      -1.65817920       6.94740892       1.78832868        7      -0.00529735      -0.00749159      -0.00000000
In       4.18247783       0.14001771       3.81917515        8      -0.00529735       0.00374579       0.00648790
In      -1.46016426       4.12996819      -0.00000000        9       0.00000000       0.00000000       0.00000000
In       4.18247783       6.33497000       0.24251778       10      -0.00529735       0.00374579       0.00648790
In      -1.26214931      -2.20500180       6.91079695       11       0.00529735      -0.00374579      -0.00648790
In       4.18247783       2.81744073       1.78832868       12      -0.00529735      -0.00749159      -0.00000000
In       1.65817920       5.02244253       2.03084647       13       0.00529735      -0.00374579       0.00648790
In       4.38049277       0.00000000      -0.00000000       14       0.00000000      -0.00000000       0.00000000
In       1.46016426       2.06498410       3.57665737       15      -0.00000000       0.00000000       0.00000000
O        0.84861785       4.12598334       3.90628342       16      -0.01181990       0.00798229      -0.00866148
O       -2.07171067       3.38493311       5.20362401       17      -0.01181990      -0.01149221      -0.00258213
O       -0.42331015       2.21933793       0.06917934       18      -0.00724915      -0.01472422       0.00301588
O       -0.84861785      -0.74901993       1.95659269       19       0.01181990      -0.00350991      -0.01124361
O        3.88191576       4.91892884       1.88741335       20      -0.00689499       0.00525113      -0.01425949
O        1.95874127       2.88990061       1.62696664       21       0.00689499       0.01497464      -0.00258213
O        1.95874127       6.15899643       0.26044671       22       0.00689499      -0.00972351      -0.01167736
O       -2.23351525       5.85427362       3.64583671       23       0.01146574       0.01174263       0.00301588
O        3.34363866       1.91063027       7.08413539       24       0.00724915       0.01472422      -0.00301588
O        5.15384376      -1.72430542       3.50747802       25      -0.01146574      -0.01174263      -0.00301588
O        6.26396718       3.23456413       1.68924402       26       0.00724915      -0.00475028       0.01425949
O        3.60714178       2.29523450       3.83710408       27       0.01146574      -0.00325949      -0.01167736
O        0.68681327       4.24039646       6.82368868       28       0.01146574      -0.00848314       0.00866148
O        2.23351524      -0.11042826       0.32962605       29      -0.01146574       0.00848314      -0.00866148
O       -3.34363867       0.89540406       5.46407072       30      -0.00724915       0.00475028      -0.01425949
O        4.99203918       0.74503509       1.94969073       31       0.01181990       0.01149221       0.00258213
O        0.96158724       1.24006759       5.52634810       32      -0.00689499      -0.01497464       0.00258213
O        3.34363866      -1.01522620       5.53325006       33       0.00724915      -0.00997394      -0.01124361
O        2.07171066       0.00398485       3.24703131       34       0.01181990      -0.00798229       0.00866148
O        0.96158724      -2.02902823       6.89286803       35      -0.00689499       0.00972351       0.01167736
O       -0.68681327       1.83473369       3.31621066       36      -0.01146574       0.00325949       0.01167736
O       -0.96158725      -0.78896065       5.26590139       37       0.00689499      -0.00525113       0.01425949
O       -0.42331015       5.14519439       1.62006467       38      -0.00724915       0.00997394       0.01124361
O        3.76894636       4.87898813       5.19672204       39      -0.01181990       0.00350991       0.01124361
40
Lattice="8.760985541254044 6.866614717646165e-10 1.0255242571585685e-14 -2.920328514398738 8.259936381235152 -1.189336410230835e-09 -2.920328513427661 -4.129968189930914 7.1533147405858335" Properties=species:S:1:pos:R:3:spacegroup_kinds:I:1:forces:R:3 spacegroup="P 1" unit_cell=conventional occupancy="_JSON {\"0\": {\"In\": 1}, \"1\": {\"In\": 1}, \"2\": {\"In\": 1}, \"3\": {\"In\": 1}, \"4\": {\"In\": 1}, \"5\": {\"In\": 1}, \"6\": {\"In\": 1}, \"7\": {\"In\": 1}, \"8\": {\"In\": 1}, \"9\": {\"In\": 1}, \"10\": {\"In\": 1}, \"11\": {\"In\": 1}, \"12\": {\"In\": 1}, \"13\": {\"In\": 1}, \"14\": {\"In\": 1}, \"15\": {\"In\": 1}, \"16\": {\"O\": 1}, \"17\": {\"O\": 1}, \"18\": {\"O\": 1}, \"19\": {\"O\": 1}, \"20\": {\"O\": 1}, \"21\": {\"O\": 1}, \"22\": {\"O\": 1}, \"23\": {\"O\": 1}, \"24\": {\"O\": 1}, \"25\": {\"O\": 1}, \"26\": {\"O\": 1}, \"27\": {\"O\": 1}, \"28\": {\"O\": 1}, \"29\": {\"O\": 1}, \"30\": {\"O\": 1}, \"31\": {\"O\": 1}, \"32\": {\"O\": 1}, \"33\": {\"O\": 1}, \"34\": {\"O\": 1}, \"35\": {\"O\": 1}, \"36\": {\"O\": 1}, \"37\": {\"O\": 1}, \"38\": {\"O\": 1}, \"39\": {\"O\": 1}}" n_minim_iter=5 energy=-45151.23442129288 stress="-0.051624391720274755 3.8173330181226353e-13 1.0236102744705976e-12 3.8173330181226353e-13 -0.051624391719123884 2.466078320718858e-14 1.0236102744705976e-12 2.466078320718858e-14 -0.05162439171819889" free_energy=-45151.23442129288 pbc="T T T"
In      -4.18214410       2.95722245       5.60791257        0      -0.00316508       0.00223805      -0.00387641
In       7.10247261       1.17274574       1.54540216        1       0.00316508      -0.00223805       0.00387641
In       1.26181558      -0.89223835       5.12205953        2       0.00316508      -0.00223805       0.00387641
In      -1.46016426      -2.06498409       3.57665737        3       0.00000000       0.00000000      -0.00000000
In      -1.26181559       3.98971450       3.33373085        4      -0.00316508       0.00223805       0.00387641
In       4.57884144      -2.81696876       5.36498605        5      -0.00316508      -0.00447609       0.00000000
In      -1.26181558       1.31299943       5.36498605        6      -0.00316508      -0.00447609       0.00000000
In      -1.65851293       6.94693695       1.78832868        7       0.00316508       0.00447609       0.00000000
In       4.18214410       0.14025369       3.81958389        8       0.00316508      -0.00223805      -0.00387641
In      -1.46016426       4.12996819      -0.00000000        9       0.00000000      -0.00000000       0.00000000
In       4.18214410       6.33520598       0.24292652       10       0.00316508      -0.00223805      -0.00387641
In      -1.26181558      -2.20523779       6.91038822       11      -0.00316508       0.00223805       0.00387641
In       4.18214410       2.81696876       1.78832868       12       0.00316508       0.00447609      -0.00000000
In       1.65851293       5.02220655       2.03125520       13      -0.00316508       0.00223805      -0.00387641
In       4.38049277       0.00000000      -0.00000000       14       0.00000000       0.00000000       0.00000000
In       1.46016426       2.06498410       3.57665737       15      -0.00000000       0.00000000       0.00000000
O        0.84813784       4.12610190       3.90593931       16      -0.00621829       0.00824794       0.00049845
O       -2.07219067       3.38457582       5.20369339       17      -0.00621829      -0.00369230      -0.00739215
O       -0.42369523       2.21891351       0.06936498       18       0.00222234      -0.00966073       0.00294546
O       -0.84813785      -0.74925866       1.95631796       19       0.00621829       0.00455564      -0.00689370
O        3.88173890       4.91927475       1.88695297       20      -0.00140837      -0.00285508      -0.00983916
O        1.95891812       2.89047226       1.62703602       21       0.00140837       0.00709343      -0.00739215
O        1.95891812       6.15877068       0.25991695       22       0.00140837      -0.00994851      -0.00244701
O       -2.23324346       5.85477815       3.64602235       23       0.00984900       0.00112500       0.00294546
O        3.34402374       1.91105468       7.08394975       24      -0.00222234       0.00966073      -0.00294546
O        5.15357197      -1.72480995       3.50729238       25      -0.00984900      -0.00112500      -0.00294546
O        6.26435226       3.23451269       1.68970439       26      -0.00222234      -0.00227952       0.00983916
O        3.60741356       2.29514301       3.83657432       27       0.00984900       0.00198834      -0.00244701
O        0.68708505       4.23998343       6.82403280       28       0.00984900      -0.00311334      -0.00049845
O        2.23324346      -0.11001523       0.32928194       29      -0.00984900       0.00311334       0.00049845
O       -3.34402375       0.89545550       5.46361034       30       0.00222234       0.00227952      -0.00983916
O        4.99251918       0.74539238       1.94962135       31       0.00621829       0.00369230       0.00739215
O        0.96141039       1.23949594       5.52627872       32      -0.00140837      -0.00709343       0.00739215
O        3.34402374      -1.01559918       5.53297533       33      -0.00222234      -0.00738121      -0.00689370
O        2.07219067       0.00386629       3.24737543       34       0.00621829      -0.00824794      -0.00049845
O        0.96141039      -2.02880249       6.89339778       35      -0.00140837       0.00994851       0.00244701
O       -0.68708505       1.83482519       3.31674041       36      -0.00984900      -0.00198834       0.00244701
O       -0.96141039      -0.78930656       5.26636176       37       0.00140837       0.00285508       0.00983916
O       -0.42369523       5.14556737       1.62033941       38       0.00222234       0.00738121       0.00689370
O        3.76846636       4.87922686       5.19699678       39      -0.00621829      -0.00455564       0.00689370
40