40
Lattice="9.337079185085445 7.318130146570329e-10 1.8460845736556695e-14 -3.1123597290517755 8.803082677422305 -1.2675603482017141e-09 -3.112359728016849 -4.4015413379793245 7.623693231107476" Properties=species:S:1:pos:R:3:spacegroup_kinds:I:1:forces:R:3 spacegroup="P 1" unit_cell=conventional occupancy="_JSON {\"0\": {\"In\": 1}, \"1\": {\"In\": 1}, \"2\": {\"In\": 1}, \"3\": {\"In\": 1}, \"4\": {\"In\": 1}, \"5\": {\"In\": 1}, \"6\": {\"In\": 1}, \"7\": {\"In\": 1}, \"8\": {\"In\": 1}, \"9\": {\"In\": 1}, \"10\": {\"In\": 1}, \"11\": {\"In\": 1}, \"12\": {\"In\": 1}, \"13\": {\"In\": 1}, \"14\": {\"In\": 1}, \"15\": {\"In\": 1}, \"16\": {\"O\": 1}, \"17\": {\"O\": 1}, \"18\": {\"O\": 1}, \"19\": {\"O\": 1}, \"20\": {\"O\": 1}, \"21\": {\"O\": 1}, \"22\": {\"O\": 1}, \"23\": {\"O\": 1}, \"24\": {\"O\": 1}, \"25\": {\"O\": 1}, \"26\": {\"O\": 1}, \"27\": {\"O\": 1}, \"28\": {\"O\": 1}, \"29\": {\"O\": 1}, \"30\": {\"O\": 1}, \"31\": {\"O\": 1}, \"32\": {\"O\": 1}, \"33\": {\"O\": 1}, \"34\": {\"O\": 1}, \"35\": {\"O\": 1}, \"36\": {\"O\": 1}, \"37\": {\"O\": 1}, \"38\": {\"O\": 1}, \"39\": {\"O\": 1}}" n_minim_iter=1 energy=-45147.73385272351 stress="0.08916250453859963 -2.3026720475762215e-14 -3.652104980813249e-13 -2.3026720475762215e-14 0.0891625045383585 -5.409961140265656e-13 -3.652104980813249e-13 -5.409961140265656e-13 0.08916250453767921" free_energy=-45147.73385272351 pbc="T T T"
In      -4.43396095       3.13528386       6.00506891        0       0.03365940      -0.02380079       0.04122418
In       7.54632068       1.26625748       1.61862432        1      -0.03365940       0.02380079      -0.04122418
In       1.32160122      -0.93451318       5.43047093        2      -0.03365940       0.02380079      -0.04122418
In      -1.55617987      -2.20077067       3.81184661        3       0.00000000      -0.00000000      -0.00000000
In      -1.32160122       4.23566919       3.52454762        4       0.03365940      -0.02380079      -0.04122418
In       4.90311823      -2.96941171       5.71776992        5       0.03365940       0.04760158      -0.00000000
In      -1.32160122       1.43212963       5.71776992        6       0.03365940       0.04760158      -0.00000000
In      -1.79075851       7.37095305       1.90592330        7      -0.03365940      -0.04760158       0.00000000
In       4.43396095       0.16587215       4.09914560        8      -0.03365940       0.02380079       0.04122418
In      -1.55617987       4.40154134      -0.00000000        9       0.00000000       0.00000000      -0.00000000
In       4.43396095       6.76818416       0.28729898       10      -0.03365940       0.02380079       0.04122418
In      -1.32160122      -2.36664281       7.33639424       11       0.03365940      -0.02380079      -0.04122418
In       4.43396095       2.96941171       1.90592330       12      -0.03365940      -0.04760158       0.00000000
In       1.79075850       5.33605453       2.19322229       13       0.03365940      -0.02380079       0.04122418
In       4.66853959       0.00000000      -0.00000000       14      -0.00000000      -0.00000000      -0.00000000
In       1.55617986       2.20077067       3.81184661       15      -0.00000000       0.00000000      -0.00000000
O        1.00256259       4.41545757       4.12307957       16       0.03087062       0.01216827      -0.05237165
O       -2.10979714       3.56373354       5.55010163       17       0.03087062      -0.05143931       0.01564780
O       -0.44258490       2.38483645      -0.03168196       18      -0.02673489      -0.01070607      -0.05490426
O       -1.00256260      -0.82389157       2.04948797       19      -0.03087062      -0.03927105      -0.03672385
O        4.06318591       5.20714133       2.08116993       20      -0.05878766       0.00757206       0.01818040
O        2.16153355       3.00199531       1.73825502       21       0.05878766      -0.01195866       0.01564780
O        2.16153355       6.60668736       0.34291490       22       0.05878766       0.01953072       0.00253261
O       -2.39597367       6.22463957       3.78016466       23       0.00118215       0.02877459      -0.05490426
O        3.55494462       2.01670489       7.65537518       24       0.02673489       0.01070607       0.05490426
O        5.50833340      -1.82309822       3.84352857       25      -0.00118215      -0.02877459       0.05490426
O        6.66730435       3.36575152       1.73067668       26       0.02673489      -0.05290151      -0.01818040
O        3.82874579       2.36216952       4.15476152       27       0.00118215      -0.06193577       0.00253261
O        0.71638606       4.61781494       7.31246027       28       0.00118215       0.03316119       0.05237165
O        2.39597367      -0.21627360       0.31123295       29      -0.00118215      -0.03316119      -0.05237165
O       -3.55494462       1.03578982       5.89301654       30      -0.02673489       0.05290151       0.01818040
O        5.22215686       0.83780781       2.07359159       31      -0.03087062       0.05143931      -0.01564780
O        0.95082618       1.39954604       5.88543821       32      -0.05878766       0.01195866      -0.01564780
O        3.55494462      -0.98091506       5.86133459       33       0.02673489       0.04219545      -0.03672385
O        2.10979713      -0.01391623       3.50061366       34      -0.03087062      -0.01216827       0.05237165
O        0.95082618      -2.20514602       7.28077832       35      -0.05878766      -0.01953072      -0.00253261
O       -0.71638606       2.03937183       3.46893170       36      -0.00118215       0.06193577      -0.00253261
O       -0.95082618      -0.80559999       5.54252330       37       0.05878766      -0.00757206      -0.01818040
O       -0.44258490       5.38245641       1.76235864       38      -0.02673489      -0.04219545       0.03672385
O        4.11492232       5.22543292       5.57420525       39       0.03087062       0.03927105       0.03672385
40
Lattice="9.337079185085456 7.318130146570337e-10 1.846084573655671e-14 -3.1123597290517795 8.803082677422314 -1.2675603482017152e-09 -3.112359728016853 -4.401541337979329 7.623693231107483" Properties=species:S:1:pos:R:3:spacegroup_kinds:I:1:forces:R:3 spacegroup="P 1" unit_cell=conventional occupancy="_JSON {\"0\": {\"In\": 1}, \"1\": {\"In\": 1}, \"2\": {\"In\": 1}, \"3\": {\"In\": 1}, \"4\": {\"In\": 1}, \"5\": {\"In\": 1}, \"6\": {\"In\": 1}, \"7\": {\"In\": 1}, \"8\": {\"In\": 1}, \"9\": {\"In\": 1}, \"10\": {\"In\": 1}, \"11\": {\"In\": 1}, \"12\": {\"In\": 1}, \"13\": {\"In\": 1}, \"14\": {\"In\": 1}, \"15\": {\"In\": 1}, \"16\": {\"O\": 1}, \"17\": {\"O\": 1}, \"18\": {\"O\": 1}, \"19\": {\"O\": 1}, \"20\": {\"O\": 1}, \"21\": {\"O\": 1}, \"22\": {\"O\": 1}, \"23\": {\"O\": 1}, \"24\": {\"O\": 1}, \"25\": {\"O\": 1}, \"26\": {\"O\": 1}, \"27\": {\"O\": 1}, \"28\": {\"O\": 1}, \"29\": {\"O\": 1}, \"30\": {\"O\": 1}, \"31\": {\"O\": 1}, \"32\": {\"O\": 1}, \"33\": {\"O\": 1}, \"34\": {\"O\": 1}, \"35\": {\"O\": 1}, \"36\": {\"O\": 1}, \"37\": {\"O\": 1}, \"38\": {\"O\": 1}, \"39\": {\"O\": 1}}" n_minim_iter=2 energy=-45147.74272604154 stress="0.08773625613986305 -4.95066871764349e-14 1.3946520637349674e-13 -4.95066871764349e-14 0.0877362561393514 9.51103286664971e-15 1.3946520637349674e-13 9.51103286664971e-15 0.08773625613913855" free_energy=-45147.74272604154 pbc="T T T"
In      -4.42944098       3.13208775       6.01060473        0      -0.00519745       0.00367515      -0.00636555
In       7.54180070       1.26945359       1.61308850        1       0.00519745      -0.00367515       0.00636555
In       1.31708124      -0.93131708       5.42493511        2       0.00519745      -0.00367515       0.00636555
In      -1.55617987      -2.20077067       3.81184661        3       0.00000000       0.00000000      -0.00000000
In      -1.31708125       4.23247309       3.51901181        4      -0.00519745       0.00367515       0.00636555
In       4.90763821      -2.96301949       5.71776992        5      -0.00519745      -0.00735030       0.00000000
In      -1.31708125       1.43852184       5.71776992        6      -0.00519745      -0.00735030       0.00000000
In      -1.79527848       7.36456084       1.90592330        7       0.00519745       0.00735030       0.00000000
In       4.42944097       0.16906826       4.10468142        8       0.00519745      -0.00367515      -0.00636555
In      -1.55617987       4.40154134      -0.00000000        9      -0.00000000       0.00000000       0.00000000
In       4.42944097       6.77138026       0.29283480       10       0.00519745      -0.00367515      -0.00636555
In      -1.31708125      -2.36983892       7.33085842       11      -0.00519745       0.00367515       0.00636555
In       4.42944097       2.96301950       1.90592330       12       0.00519745       0.00735030       0.00000000
In       1.79527848       5.33285842       2.19875811       13      -0.00519745       0.00367515      -0.00636555
In       4.66853959       0.00000000      -0.00000000       14       0.00000000      -0.00000000       0.00000000
In       1.55617986       2.20077067       3.81184661       15       0.00000000      -0.00000000       0.00000000
O        1.00670808       4.41709160       4.11604680       16       0.03147704      -0.00321517       0.01475742
O       -2.10565165       3.55682597       5.55220291       17       0.03147704       0.01438789      -0.00459429
O       -0.44617501       2.38339878      -0.03905481       18       0.02102609       0.02177783      -0.01739405
O       -1.00670808      -0.82916511       2.04455648       19      -0.03147704       0.01117272       0.01016313
O        4.05529156       5.20815815       2.08361129       20       0.00307268      -0.02121517       0.02755718
O        2.16942789       3.00038943       1.74035629       21      -0.00307268      -0.03447280      -0.00459429
O        2.16942789       6.60931006       0.34325500       22      -0.00307268       0.01325763       0.03215147
O       -2.39581493       6.22850358       3.77279180       23      -0.01352364      -0.02708286      -0.01739405
O        3.55853474       2.01814256       7.66274804       24      -0.02102609      -0.02177783       0.01739405
O        5.50817465      -1.82696224       3.85090142       25       0.01352364       0.02708286       0.01739405
O        6.67089446       3.35864760       1.72823531       26      -0.02102609      -0.00417477      -0.02755718
O        3.82890453       2.35385243       4.15510161       27      -0.01352364      -0.00152226       0.03215147
O        0.71654480       4.62226801       7.31949304       28      -0.01352364       0.02860512      -0.01475742
O        2.39581492      -0.22072667       0.30420019       29       0.01352364      -0.02860512       0.01475742
O       -3.55853474       1.04289374       5.89545791       30       0.02102609       0.00417477       0.02755718
O        5.21801138       0.84471537       2.07149032       31      -0.03147704      -0.01438789       0.00459429
O        0.94293184       1.40115191       5.88333693       32       0.00307268       0.03447280       0.00459429
O        3.55853474      -0.97524882       5.85640310       33      -0.02102609       0.02595260       0.01016313
O        2.10565165      -0.01555025       3.50764642       34      -0.03147704       0.00321517      -0.01475742
O        0.94293184      -2.20776872       7.28043823       35       0.00307268      -0.01325763      -0.03215147
O       -0.71654481       2.04768892       3.46859161       36       0.01352364       0.00152226      -0.03215147
O       -0.94293184      -0.80661681       5.54008193       37      -0.00307268       0.02121517      -0.02755718
O       -0.44617501       5.37679016       1.76729013       38       0.02102609      -0.02595260      -0.01016313
O        4.11906780       5.23070646       5.57913674       39       0.03147704      -0.01117272      -0.01016313
40
Lattice="9.337079185085459 7.318130146570338e-10 1.8460845736556682e-14 -3.1123597290517804 8.803082677422315 -1.2675603482017154e-09 -3.112359728016854 -4.40154133797933 7.6236932311074845" Properties=species:S:1:pos:R:3:spacegroup_kinds:I:1:forces:R:3 spacegroup="P 1" unit_cell=conventional occupancy="_JSON {\"0\": {\"In\": 1}, \"1\": {\"In\": 1}, \"2\": {\"In\": 1}, \"3\": {\"In\": 1}, \"4\": {\"In\": 1}, \"5\": {\"In\": 1}, \"6\": {\"In\": 1}, \"7\": {\"In\": 1}, \"8\": {\"In\": 1}, \"9\": {\"In\": 1}, \"10\": {\"In\": 1}, \"11\": {\"In\": 1}, \"12\": {\"In\": 1}, \"13\": {\"In\": 1}, \"14\": {\"In\": 1}, \"15\": {\"In\": 1}, \"16\": {\"O\": 1}, \"17\": {\"O\": 1}, \"18\": {\"O\": 1}, \"19\": {\"O\": 1}, \"20\": {\"O\": 1}, \"21\": {\"O\": 1}, \"22\": {\"O\": 1}, \"23\": {\"O\": 1}, \"24\": {\"O\": 1}, \"25\": {\"O\": 1}, \"26\": {\"O\": 1}, \"27\": {\"O\": 1}, \"28\": {\"O\": 1}, \"29\": {\"O\": 1}, \"30\": {\"O\": 1}, \"31\": {\"O\": 1}, \"32\": {\"O\": 1}, \"33\": {\"O\": 1}, \"34\": {\"O\": 1}, \"35\": {\"O\": 1}, \"36\": {\"O\": 1}, \"37\": {\"O\": 1}, \"38\": {\"O\": 1}, \"39\": {\"O\": 1}}" n_minim_iter=3 energy=-45147.74758089809 stress="0.0876319564104085 -4.781391307909026e-13 1.3012638624009796e-13 -4.781391307909026e-13 0.087631956410076 4.510257684921099e-13 1.3012638624009796e-13 4.510257684921099e-13 0.08763195641080714" free_energy=-45147.74758089809 pbc="T T T"
In      -4.43030644       3.13269972       6.00954476        0       0.00770771      -0.00545017       0.00943998
In       7.54266616       1.26884162       1.61414847        1      -0.00770771       0.00545017      -0.00943998
In       1.31794670      -0.93192905       5.42599508        2      -0.00770771       0.00545017      -0.00943998
In      -1.55617987      -2.20077067       3.81184661        3      -0.00000000      -0.00000000      -0.00000000
In      -1.31794671       4.23308506       3.52007177        4       0.00770771      -0.00545017      -0.00943998
In       4.90677275      -2.96424344       5.71776992        5       0.00770771       0.01090035      -0.00000000
In      -1.31794671       1.43729790       5.71776992        6       0.00770771       0.01090035       0.00000000
In      -1.79441302       7.36578478       1.90592330        7      -0.00770771      -0.01090035       0.00000000
In       4.43030643       0.16845628       4.10362145        8      -0.00770771       0.00545017       0.00943998
In      -1.55617987       4.40154134      -0.00000000        9      -0.00000000      -0.00000000      -0.00000000
In       4.43030643       6.77076829       0.29177484       10      -0.00770771       0.00545017       0.00943998
In      -1.31794671      -2.36922695       7.33191839       11       0.00770771      -0.00545017      -0.00943998
In       4.43030643       2.96424344       1.90592330       12      -0.00770771      -0.01090035      -0.00000000
In       1.79441302       5.33347039       2.19769814       13       0.00770771      -0.00545017       0.00943998
In       4.66853959       0.00000000      -0.00000000       14      -0.00000000      -0.00000000       0.00000000
In       1.55617986       2.20077067       3.81184661       15      -0.00000000       0.00000000      -0.00000000
O        1.01658971       4.41638514       4.11935816       16       0.01262763       0.01423030      -0.02097772
O       -2.09577001       3.56004692       5.55115903       17       0.01262763      -0.02528239      -0.00183494
O       -0.44051044       2.38960165      -0.04526352       18      -0.00621080      -0.01196161      -0.02490721
O       -1.01658972      -0.82665062       2.04682397       19      -0.01262763      -0.01105209      -0.02281267
O        4.05503443       5.20205905       2.09208749       20      -0.02804568      -0.00332810       0.00209454
O        2.16968503       2.98999928       1.73931242       21       0.02804568      -0.00347798      -0.00183494
O        2.16968503       6.61360111       0.35277507       22       0.02804568       0.00014988       0.00392949
O       -2.39977486       6.22109535       3.76658309       23       0.00920725       0.00984280      -0.02490721
O        3.55287016       2.01193969       7.66895675       24       0.00621080       0.01196161       0.02490721
O        5.51213458      -1.81955401       3.85711013       25      -0.00920725      -0.00984280       0.02490721
O        6.66522989       3.35637214       1.71975912       26       0.00621080      -0.02755108      -0.00209454
O        3.82494460       2.35217964       4.16462168       27       0.00920725      -0.02649168       0.00392949
O        0.71258487       4.63134903       7.31618167       28       0.00920725       0.01664888       0.02097772
O        2.39977485      -0.22980769       0.30751155       29      -0.00920725      -0.01664888      -0.02097772
O       -3.55287017       1.04516920       5.90393411       30      -0.00621080       0.02755108       0.00209454
O        5.20812974       0.84149442       2.07253419       31      -0.01262763       0.02528239       0.00183494
O        0.94267470       1.41154206       5.88438081       32      -0.02804568       0.00347798       0.00183494
O        3.55287016      -0.96677048       5.85867059       33       0.00621080       0.01558947      -0.02281267
O        2.09577001      -0.01484380       3.50433506       34      -0.01262763      -0.01423030       0.02097772
O        0.94267470      -2.21205977       7.27091816       35      -0.02804568      -0.00014988      -0.00392949
O       -0.71258488       2.04936170       3.45907154       36      -0.00920725       0.02649168      -0.00392949
O       -0.94267470      -0.80051771       5.53160574       37       0.02804568       0.00332810      -0.00209454
O       -0.44051044       5.36831183       1.76502264       38      -0.00621080      -0.01558947       0.02281267
O        4.12894944       5.22819196       5.57686925       39       0.01262763       0.01105209       0.02281267
40
Lattice="9.337079185085459 7.318130146570338e-10 1.8460845736556682e-14 -3.1123597290517804 8.803082677422315 -1.2675603482017154e-09 -3.112359728016854 -4.40154133797933 7.6236932311074845" Properties=species:S:1:pos:R:3:spacegroup_kinds:I:1:forces:R:3 spacegroup="P 1" unit_cell=conventional occupancy="_JSON {\"0\": {\"In\": 1}, \"1\": {\"In\": 1}, \"2\": {\"In\": 1}, \"3\": {\"In\": 1}, \"4\": {\"In\": 1}, \"5\": {\"In\": 1}, \"6\": {\"In\": 1}, \"7\": {\"In\": 1}, \"8\": {\"In\": 1}, \"9\": {\"In\": 1}, \"10\": {\"In\": 1}, \"11\": {\"In\": 1}, \"12\": {\"In\": 1}, \"13\": {\"In\": 1}, \"14\": {\"In\": 1}, \"15\": {\"In\": 1}, \"16\": {\"O\": 1}, \"17\": {\"O\": 1}, \"18\": {\"O\": 1}, \"19\": {\"O\": 1}, \"20\": {\"O\": 1}, \"21\": {\"O\": 1}, \"22\": {\"O\": 1}, \"23\": {\"O\": 1}, \"24\": {\"O\": 1}, \"25\": {\"O\": 1}, \"26\": {\"O\": 1}, \"27\": {\"O\": 1}, \"28\": {\"O\": 1}, \"29\": {\"O\": 1}, \"30\": {\"O\": 1}, \"31\": {\"O\": 1}, \"32\": {\"O\": 1}, \"33\": {\"O\": 1}, \"34\": {\"O\": 1}, \"35\": {\"O\": 1}, \"36\": {\"O\": 1}, \"37\": {\"O\": 1}, \"38\": {\"O\": 1}, \"39\": {\"O\": 1}}" n_minim_iter=4 energy=-45147.74960796505 stress="0.08692872923977736 -3.251506183437567e-13 -1.8740625479421508e-14 -3.251506183437567e-13 0.08692872924001596 8.061305505389263e-14 -1.8740625479421508e-14 8.061305505389263e-14 0.08692872924013555" free_energy=-45147.74960796505 pbc="T T T"
In      -4.42893378       3.13172911       6.01122591        0      -0.00281401       0.00198980      -0.00344644
In       7.54129351       1.26981223       1.61246731        1       0.00281401      -0.00198980       0.00344644
In       1.31657405      -0.93095844       5.42431393        2       0.00281401      -0.00198980       0.00344644
In      -1.55617987      -2.20077067       3.81184661        3      -0.00000000      -0.00000000      -0.00000000
In      -1.31657405       4.23211445       3.51839062        4      -0.00281401       0.00198980       0.00344644
In       4.90814540      -2.96230221       5.71776992        5      -0.00281401      -0.00397961       0.00000000
In      -1.31657405       1.43923913       5.71776992        6      -0.00281401      -0.00397961      -0.00000000
In      -1.79578568       7.36384355       1.90592330        7       0.00281401       0.00397961      -0.00000000
In       4.42893378       0.16942690       4.10530260        8       0.00281401      -0.00198980      -0.00344644
In      -1.55617987       4.40154134      -0.00000000        9      -0.00000000       0.00000000       0.00000000
In       4.42893378       6.77173891       0.29345599       10       0.00281401      -0.00198980      -0.00344644
In      -1.31657405      -2.37019756       7.33023724       11      -0.00281401       0.00198980       0.00344644
In       4.42893378       2.96230222       1.90592330       12       0.00281401       0.00397961      -0.00000000
In       1.79578568       5.33249978       2.19937930       13      -0.00281401       0.00198980      -0.00344644
In       4.66853959       0.00000000      -0.00000000       14      -0.00000000       0.00000000       0.00000000
In       1.55617986       2.20077067       3.81184661       15      -0.00000000       0.00000000      -0.00000000
O        1.02290959       4.41687878       4.11799578       16       0.00377181       0.01363810      -0.00896217
O       -2.08945014       3.55862024       5.55141272       17       0.00377181      -0.01458052      -0.00732986
O       -0.43928349       2.39177622      -0.05124737       18       0.00036875      -0.01217419      -0.01149773
O       -1.02290959      -0.82758365       2.04571528       19      -0.00377181      -0.00094242      -0.01629203
O        4.05158272       5.19953732       2.09696264       20      -0.01500391      -0.00569580      -0.00479429
O        2.17313674       2.98451641       1.73956611       21       0.01500391       0.00130408      -0.00732986
O        2.17313674       6.61656225       0.35739653       22       0.01500391      -0.00699988       0.00253556
O       -2.40141607       6.21921372       3.76059924       23       0.01160085       0.00371040      -0.01149773
O        3.55164322       2.00976513       7.67494060       24      -0.00036875       0.01217419       0.01149773
O        5.51377580      -1.81767238       3.86309398       25      -0.01160085      -0.00371040       0.01149773
O        6.66400295       3.35227726       1.71488397       26      -0.00036875      -0.01604443       0.00479429
O        3.82330338       2.34793829       4.16924315       27       0.01160085      -0.01181253       0.00253556
O        0.71094366       4.63747201       7.31754406       28       0.01160085       0.00810213       0.00896217
O        2.40141607      -0.23593067       0.30614917       29      -0.01160085      -0.00810213      -0.00896217
O       -3.55164322       1.04926409       5.90880926       30       0.00036875       0.01604443      -0.00479429
O        5.20180986       0.84292110       2.07228050       31      -0.00377181       0.01458052       0.00732986
O        0.93922299       1.41702494       5.88412712       32      -0.01500391      -0.00130408       0.00732986
O        3.55164322      -0.96050104       5.85756189       33      -0.00036875       0.00387023      -0.01629203
O        2.08945014      -0.01533744       3.50569744       34      -0.00377181      -0.01363810       0.00896217
O        0.93922299      -2.21502091       7.26629669       35      -0.01500391       0.00699988      -0.00253556
O       -0.71094366       2.05360305       3.45445008       36      -0.01160085       0.01181253      -0.00253556
O       -0.93922299      -0.79799597       5.52673058       37       0.01500391       0.00569580       0.00479429
O       -0.43928349       5.36204238       1.76613133       38       0.00036875      -0.00387023       0.01629203
O        4.13526932       5.22912500       5.57797795       39       0.00377181       0.00094242       0.01629203
40
Lattice="9.337079185085457 7.318130146570337e-10 1.8460845736556663e-14 -3.11235972905178 8.803082677422314 -1.2675603482017152e-09 -3.1123597280168536 -4.401541337979329 7.623693231107484" Properties=species:S:1:pos:R:3:spacegroup_kinds:I:1:forces:R:3 spacegroup="P 1" unit_cell=conventional occupancy="_JSON {\"0\": {\"In\": 1}, \"1\": {\"In\": 1}, \"2\": {\"In\": 1}, \"3\": {\"In\": 1}, \"4\": {\"In\": 1}, \"5\": {\"In\": 1}, \"6\": {\"In\": 1}, \"7\": {\"In\": 1}, \"8\": {\"In\": 1}, \"9\": {\"In\": 1}, \"10\": {\"In\": 1}, \"11\": {\"In\": 1}, \"12\": {\"In\": 1}, \"13\": {\"In\": 1}, \"14\": {\"In\": 1}, \"15\": {\"In\": 1}, \"16\": {\"O\": 1}, \"17\": {\"O\": 1}, \"18\": {\"O\": 1}, \"19\": {\"O\": 1}, \"20\": {\"O\": 1}, \"21\": {\"O\": 1}, \"22\": {\"O\": 1}, \"23\": {\"O\": 1}, \"24\": {\"O\": 1}, \"25\": {\"O\": 1}, \"26\": {\"O\": 1}, \"27\": {\"O\": 1}, \"28\": {\"O\": 1}, \"29\": {\"O\": 1}, \"30\": {\"O\": 1}, \"31\": {\"O\": 1}, \"32\": {\"O\": 1}, \"33\": {\"O\": 1}, \"34\": {\"O\": 1}, \"35\": {\"O\": 1}, \"36\": {\"O\": 1}, \"37\": {\"O\": 1}, \"38\": {\"O\": 1}, \"39\": {\"O\": 1}}" n_minim_iter=5 energy=-45147.74986224083 stress="0.08664370143973973 -3.703148250275991e-13 -9.297308360352635e-14 -3.703148250275991e-13 0.0866437014397982 7.746211127353928e-14 -9.297308360352635e-14 7.746211127353928e-14 0.08664370144042005" free_energy=-45147.74986224083 pbc="T T T"
In      -4.42845290       3.13138908       6.01181486        0      -0.00703390       0.00497372      -0.00861473
In       7.54081263       1.27015226       1.61187836        1       0.00703390      -0.00497372       0.00861473
In       1.31609317      -0.93061841       5.42372498        2       0.00703390      -0.00497372       0.00861473
In      -1.55617987      -2.20077067       3.81184661        3       0.00000000      -0.00000000      -0.00000000
In      -1.31609318       4.23177441       3.51780167        4      -0.00703390       0.00497372       0.00861473
In       4.90862628      -2.96162215       5.71776992        5      -0.00703390      -0.00994743       0.00000000
In      -1.31609318       1.43991919       5.71776992        6      -0.00703390      -0.00994743       0.00000000
In      -1.79626656       7.36316349       1.90592330        7       0.00703390       0.00994743      -0.00000000
In       4.42845290       0.16976693       4.10589156        8       0.00703390      -0.00497372      -0.00861473
In      -1.55617987       4.40154134      -0.00000000        9       0.00000000       0.00000000      -0.00000000
In       4.42845290       6.77207894       0.29404494       10       0.00703390      -0.00497372      -0.00861473
In      -1.31609318      -2.37053759       7.32964829       11      -0.00703390       0.00497372       0.00861473
In       4.42845290       2.96162215       1.90592330       12       0.00703390       0.00994743       0.00000000
In       1.79626655       5.33215975       2.19996825       13      -0.00703390       0.00497372      -0.00861473
In       4.66853959       0.00000000      -0.00000000       14       0.00000000      -0.00000000      -0.00000000
In       1.55617986       2.20077067       3.81184661       15      -0.00000000      -0.00000000      -0.00000000
O        1.02526526       4.41728501       4.11730550       16       0.00056504       0.01040056      -0.00266700
O       -2.08709447       3.55781933       5.55140606       17       0.00056504      -0.00750997      -0.00767365
O       -0.43887038       2.39234890      -0.05363318       18       0.00291363      -0.00917067      -0.00479724
O       -1.02526527      -0.82797834       2.04501833       19      -0.00056504       0.00289059      -0.01034065
O        4.05004238       5.19855456       2.09865151       20      -0.00726881      -0.00566028      -0.00554341
O        2.17467707       2.98256243       1.73955945       21       0.00726881       0.00197060      -0.00767365
O        2.17467707       6.61753347       0.35909206       22       0.00726881      -0.00763088       0.00213024
O       -2.40181830       6.21863334       3.75821344       23       0.00961740       0.00030990      -0.00479724
O        3.55123011       2.00919244       7.67732640       24      -0.00291363       0.00917067       0.00479724
O        5.51417803      -1.81709200       3.86547979       25      -0.00961740      -0.00030990       0.00479724
O        6.66358984       3.35049743       1.71319510       26      -0.00291363      -0.00873986       0.00554341
O        3.82290115       2.34616231       4.17093867       27       0.00961740      -0.00430948       0.00213024
O        0.71054143       4.63982837       7.31823434       28       0.00961740       0.00399958       0.00266700
O        2.40181830      -0.23828703       0.30545888       29      -0.00961740      -0.00399958      -0.00266700
O       -3.55123011       1.05104391       5.91049812       30       0.00291363       0.00873986      -0.00554341
O        5.19945419       0.84372202       2.07228716       31      -0.00056504       0.00750997       0.00767365
O        0.93768265       1.41897892       5.88413378       32      -0.00726881      -0.00197060       0.00767365
O        3.55123011      -0.95814852       5.85686495       33      -0.00291363      -0.00043080      -0.01034065
O        2.08709446      -0.01574367       3.50638773       34      -0.00056504      -0.01040056       0.00266700
O        0.93768265      -2.21599213       7.26460117       35      -0.00726881       0.00763088      -0.00213024
O       -0.71054143       2.05537903       3.45275455       36      -0.00961740       0.00430948      -0.00213024
O       -0.93768266      -0.79701322       5.52504172       37       0.00726881       0.00566028       0.00554341
O       -0.43887039       5.35968987       1.76682828       38       0.00291363       0.00043080       0.01034065
O        4.13762499       5.22951969       5.57867489       39       0.00056504      -0.00289059       0.01034065
40