40
Lattice="9.337079185085459 7.318130146570338e-10 1.8460845736556622e-14 -3.1123597290517804 8.803082677422315 -1.2675603482017154e-09 -3.112359728016854 -4.40154133797933 7.6236932311074845" Properties=species:S:1:pos:R:3:spacegroup_kinds:I:1:forces:R:3 spacegroup="P 1" unit_cell=conventional occupancy="_JSON {\"0\": {\"In\": 1}, \"1\": {\"In\": 1}, \"2\": {\"In\": 1}, \"3\": {\"In\": 1}, \"4\": {\"In\": 1}, \"5\": {\"In\": 1}, \"6\": {\"In\": 1}, \"7\": {\"In\": 1}, \"8\": {\"In\": 1}, \"9\": {\"In\": 1}, \"10\": {\"In\": 1}, \"11\": {\"In\": 1}, \"12\": {\"In\": 1}, \"13\": {\"In\": 1}, \"14\": {\"In\": 1}, \"15\": {\"In\": 1}, \"16\": {\"O\": 1}, \"17\": {\"O\": 1}, \"18\": {\"O\": 1}, \"19\": {\"O\": 1}, \"20\": {\"O\": 1}, \"21\": {\"O\": 1}, \"22\": {\"O\": 1}, \"23\": {\"O\": 1}, \"24\": {\"O\": 1}, \"25\": {\"O\": 1}, \"26\": {\"O\": 1}, \"27\": {\"O\": 1}, \"28\": {\"O\": 1}, \"29\": {\"O\": 1}, \"30\": {\"O\": 1}, \"31\": {\"O\": 1}, \"32\": {\"O\": 1}, \"33\": {\"O\": 1}, \"34\": {\"O\": 1}, \"35\": {\"O\": 1}, \"36\": {\"O\": 1}, \"37\": {\"O\": 1}, \"38\": {\"O\": 1}, \"39\": {\"O\": 1}}" n_minim_iter=7 energy=-45147.75010197969 stress="0.08658775279063491 1.5180206947573048e-13 -8.195474638694507e-14 1.5180206947573048e-13 0.0865877527914042 3.169037190694386e-13 -8.195474638694507e-14 3.169037190694386e-13 0.08658775279043822" free_energy=-45147.75010197969 pbc="T T T"
In      -4.42905473       3.13181464       6.01107777        0      -0.00350725       0.00248000      -0.00429548
In       7.54141446       1.26972671       1.61261545        1       0.00350725      -0.00248000       0.00429548
In       1.31669500      -0.93104396       5.42446207        2       0.00350725      -0.00248000       0.00429548
In      -1.55617987      -2.20077067       3.81184661        3       0.00000000       0.00000000       0.00000000
In      -1.31669501       4.23219997       3.51853876        4      -0.00350725       0.00248000       0.00429548
In       4.90802445      -2.96247326       5.71776992        5      -0.00350725      -0.00496000       0.00000000
In      -1.31669501       1.43906807       5.71776992        6      -0.00350725      -0.00496000       0.00000000
In      -1.79566473       7.36401461       1.90592330        7       0.00350725       0.00496000      -0.00000000
In       4.42905473       0.16934137       4.10515447        8       0.00350725      -0.00248000      -0.00429548
In      -1.55617987       4.40154134      -0.00000000        9       0.00000000       0.00000000       0.00000000
In       4.42905473       6.77165338       0.29330785       10       0.00350725      -0.00248000      -0.00429548
In      -1.31669501      -2.37011204       7.33038537       11      -0.00350725       0.00248000       0.00429548
In       4.42905473       2.96247327       1.90592330       12       0.00350725       0.00496000      -0.00000000
In       1.79566472       5.33258531       2.19923116       13      -0.00350725       0.00248000      -0.00429548
In       4.66853959       0.00000000      -0.00000000       14       0.00000000      -0.00000000      -0.00000000
In       1.55617986       2.20077067       3.81184661       15      -0.00000000      -0.00000000       0.00000000
O        1.02613769       4.41831519       4.11696844       16      -0.00009530      -0.00202671      -0.00154073
O       -2.08622204       3.55701234       5.55068243       17      -0.00009530      -0.00032096       0.00252555
O       -0.43836915       2.39180439      -0.05481143       18      -0.00224517       0.00119923      -0.00010749
O       -1.02613770      -0.82775515       2.04395764       19       0.00009530      -0.00234767       0.00098482
O        4.04899074       5.19765110       2.09876907       20      -0.00027083       0.00228561       0.00109231
O        2.17572872       2.98200889       1.73883581       21       0.00027083       0.00019683       0.00252555
O        2.17572872       6.61718355       0.35993325       22       0.00027083       0.00208877      -0.00143324
O       -2.40113785       6.21834228       3.75703519       23      -0.00187904       0.00171702      -0.00010749
O        3.55072887       2.00973696       7.67850465       24       0.00224517      -0.00119923       0.00010749
O        5.51349758      -1.81680093       3.86665804       25       0.00187904      -0.00171702       0.00010749
O        6.66308860       3.34920478       1.71307754       26       0.00224517       0.00050652      -0.00109231
O        3.82358161       2.34528745       4.17177987       27      -0.00187904      -0.00095160      -0.00143324
O        0.71122188       4.64099430       7.31857140       28      -0.00187904      -0.00076542       0.00154073
O        2.40113785      -0.23945295       0.30512183       29       0.00187904       0.00076542      -0.00154073
O       -3.55072888       1.05233657       5.91061568       30      -0.00224517      -0.00050652       0.00109231
O        5.19858176       0.84452900       2.07301080       31       0.00009530       0.00032096      -0.00252555
O        0.93663101       1.41953245       5.88485741       32      -0.00027083      -0.00019683      -0.00252555
O        3.55072887      -0.95740039       5.85580426       33       0.00224517       0.00069271       0.00098482
O        2.08622203      -0.01677385       3.50672478       34       0.00009530       0.00202671       0.00154073
O        0.93663101      -2.21564221       7.26375997       35      -0.00027083      -0.00208877       0.00143324
O       -0.71122188       2.05625389       3.45191335       36       0.00187904       0.00095160       0.00143324
O       -0.93663101      -0.79610976       5.52492416       37       0.00027083      -0.00228561      -0.00109231
O       -0.43836915       5.35894173       1.76788897       38      -0.00224517      -0.00069271      -0.00098482
O        4.13849742       5.22929650       5.57973558       39      -0.00009530       0.00234767      -0.00098482
