40
Lattice="9.404254726270873 7.370791644742526e-10 1.7034177262427596e-14 -3.134751576118548 8.866416385023339 -1.2766798096729141e-09 -3.1347515750761774 -4.433208191774576 7.678541830811906" Properties=species:S:1:pos:R:3:spacegroup_kinds:I:1:forces:R:3 spacegroup="P 1" unit_cell=conventional occupancy="_JSON {\"0\": {\"In\": 1}, \"1\": {\"In\": 1}, \"2\": {\"In\": 1}, \"3\": {\"In\": 1}, \"4\": {\"In\": 1}, \"5\": {\"In\": 1}, \"6\": {\"In\": 1}, \"7\": {\"In\": 1}, \"8\": {\"In\": 1}, \"9\": {\"In\": 1}, \"10\": {\"In\": 1}, \"11\": {\"In\": 1}, \"12\": {\"In\": 1}, \"13\": {\"In\": 1}, \"14\": {\"In\": 1}, \"15\": {\"In\": 1}, \"16\": {\"O\": 1}, \"17\": {\"O\": 1}, \"18\": {\"O\": 1}, \"19\": {\"O\": 1}, \"20\": {\"O\": 1}, \"21\": {\"O\": 1}, \"22\": {\"O\": 1}, \"23\": {\"O\": 1}, \"24\": {\"O\": 1}, \"25\": {\"O\": 1}, \"26\": {\"O\": 1}, \"27\": {\"O\": 1}, \"28\": {\"O\": 1}, \"29\": {\"O\": 1}, \"30\": {\"O\": 1}, \"31\": {\"O\": 1}, \"32\": {\"O\": 1}, \"33\": {\"O\": 1}, \"34\": {\"O\": 1}, \"35\": {\"O\": 1}, \"36\": {\"O\": 1}, \"37\": {\"O\": 1}, \"38\": {\"O\": 1}, \"39\": {\"O\": 1}}" n_minim_iter=1 energy=-45146.50213305638 stress="0.09619700679657339 9.805594144532259e-14 -1.4528380583626057e-13 9.805594144532259e-14 0.09619700679624271 -2.786096757669592e-13 -1.4528380583626057e-13 -2.786096757669592e-13 0.09619700679645696" free_energy=-45146.50213305638 pbc="T T T"
In      -4.46091953       3.15434645       6.05432443        0       0.03230910      -0.02284599       0.03957041
In       7.59567110       1.27886174       1.62421740        1      -0.03230910       0.02284599      -0.03957041
In       1.32616795      -0.93774235       5.46348831        2      -0.03230910       0.02284599      -0.03957041
In      -1.56737579      -2.21660409       3.83927091        3       0.00000000       0.00000000      -0.00000000
In      -1.32616796       4.26264850       3.54385286        4       0.03230910      -0.02284599      -0.03957041
In       4.94333519      -2.98378675       5.75890637        5       0.03230910       0.04569197       0.00000000
In      -1.32616796       1.44942144       5.75890637        6       0.03230910       0.04569197       0.00000000
In      -1.80858362       7.41699495       1.91963545        7      -0.03230910      -0.04569197       0.00000000
In       4.46091953       0.17055970       4.13468897        8      -0.03230910       0.02284599       0.03957041
In      -1.56737579       4.43320819      -0.00000000        9      -0.00000000      -0.00000000       0.00000000
In       4.46091953       6.82037198       0.29541805       10      -0.03230910       0.02284599       0.03957041
In      -1.32616796      -2.38716379       7.38312377       11       0.03230910      -0.02284599      -0.03957041
In       4.46091953       2.98378676       1.91963545       12      -0.03230910      -0.04569197       0.00000000
In       1.80858362       5.37095055       2.21505351       13       0.03230910      -0.02284599       0.03957041
In       4.70212736       0.00000000      -0.00000000       14      -0.00000000      -0.00000000      -0.00000000
In       1.56737579       2.21660410       3.83927091       15       0.00000000       0.00000000      -0.00000000
O        1.03352023       4.45010272       4.14658794       16       0.03211956       0.01007960      -0.05706502
O       -2.10123134       3.58260324       5.59061677       17       0.03211956      -0.05445956       0.01980333
O       -0.44152299       2.40901220      -0.05520577       18      -0.03113531      -0.00973161      -0.05766775
O       -1.03352023      -0.83371043       2.05866288       19      -0.03211956      -0.04437996      -0.03726170
O        4.07812117       5.23504556       2.11386865       20      -0.06205148       0.01108547       0.02040606
O        2.19138198       3.00346293       1.75134585       21       0.06205148      -0.01212943       0.01980333
O        2.19138198       6.66479083       0.36252279       22       0.06205148       0.02321490       0.00060273
O       -2.41841282       6.26308009       3.78406514       23      -0.00120339       0.03259852      -0.05766775
O        3.57627456       2.02419599       7.73374759       24       0.03113531       0.00973161       0.05766775
O        5.55316439      -1.82987189       3.89447668       25       0.00120339      -0.03259852       0.05766775
O        6.71102614       3.37330060       1.72540226       26       0.03113531      -0.05480754      -0.02040606
O        3.85109033       2.36216060       4.20179371       27      -0.00120339      -0.06624100       0.00060273
O        0.71633876       4.67438389       7.37122480       28      -0.00120339       0.03364248       0.05706502
O        2.41841281      -0.24117570       0.30731703       29       0.00120339      -0.03364248      -0.05706502
O       -3.57627457       1.05990759       5.95313956       30      -0.03113531       0.05480754       0.02040606
O        5.23598292       0.85060496       2.08792506       31      -0.03211956       0.05445956      -0.01980333
O        0.94336959       1.42974527       5.92719597       32      -0.06205148       0.01212943      -0.01980333
O        3.57627456      -0.96428840       5.89793379       33       0.03113531       0.04507593      -0.03726170
O        2.10123134      -0.01689453       3.53195389       34      -0.03211956      -0.01007960       0.05706502
O        0.94336959      -2.23158263       7.31601903       35      -0.06205148      -0.02321490      -0.00060273
O       -0.71633876       2.07104759       3.47674812       36       0.00120339       0.06624100      -0.00060273
O       -0.94336959      -0.80183736       5.56467318       37       0.06205148      -0.01108547      -0.02040606
O       -0.44152299       5.39749659       1.78060803       38      -0.03113531      -0.04507593       0.03726170
O        4.16827181       5.26691863       5.61987895       39       0.03211956       0.04437996       0.03726170
40
Lattice="9.404254726270883 7.370791644742533e-10 1.703417726242762e-14 -3.1347515761185516 8.866416385023346 -1.2766798096729152e-09 -3.134751575076181 -4.43320819177458 7.678541830811914" Properties=species:S:1:pos:R:3:spacegroup_kinds:I:1:forces:R:3 spacegroup="P 1" unit_cell=conventional occupancy="_JSON {\"0\": {\"In\": 1}, \"1\": {\"In\": 1}, \"2\": {\"In\": 1}, \"3\": {\"In\": 1}, \"4\": {\"In\": 1}, \"5\": {\"In\": 1}, \"6\": {\"In\": 1}, \"7\": {\"In\": 1}, \"8\": {\"In\": 1}, \"9\": {\"In\": 1}, \"10\": {\"In\": 1}, \"11\": {\"In\": 1}, \"12\": {\"In\": 1}, \"13\": {\"In\": 1}, \"14\": {\"In\": 1}, \"15\": {\"In\": 1}, \"16\": {\"O\": 1}, \"17\": {\"O\": 1}, \"18\": {\"O\": 1}, \"19\": {\"O\": 1}, \"20\": {\"O\": 1}, \"21\": {\"O\": 1}, \"22\": {\"O\": 1}, \"23\": {\"O\": 1}, \"24\": {\"O\": 1}, \"25\": {\"O\": 1}, \"26\": {\"O\": 1}, \"27\": {\"O\": 1}, \"28\": {\"O\": 1}, \"29\": {\"O\": 1}, \"30\": {\"O\": 1}, \"31\": {\"O\": 1}, \"32\": {\"O\": 1}, \"33\": {\"O\": 1}, \"34\": {\"O\": 1}, \"35\": {\"O\": 1}, \"36\": {\"O\": 1}, \"37\": {\"O\": 1}, \"38\": {\"O\": 1}, \"39\": {\"O\": 1}}" n_minim_iter=2 energy=-45146.51173581398 stress="0.09480114571654641 -3.67981981259398e-13 -1.1442510025548953e-13 -3.67981981259398e-13 0.0948011457173236 -3.465227231079914e-13 -1.1442510025548953e-13 -3.465227231079914e-13 0.0948011457171265" free_energy=-45146.51173581398 pbc="T T T"
In      -4.45656381       3.15126649       6.05965907        0      -0.00427509       0.00302295      -0.00523590
In       7.59131538       1.28194170       1.61888275        1       0.00427509      -0.00302295       0.00523590
In       1.32181223      -0.93466239       5.45815367        2       0.00427509      -0.00302295       0.00523590
In      -1.56737579      -2.21660409       3.83927091        3      -0.00000000       0.00000000      -0.00000000
In      -1.32181224       4.25956854       3.53851821        4      -0.00427509       0.00302295       0.00523590
In       4.94769092      -2.97762683       5.75890637        5      -0.00427509      -0.00604589       0.00000000
In      -1.32181224       1.45558136       5.75890637        6      -0.00427509      -0.00604589      -0.00000000
In      -1.81293934       7.41083503       1.91963545        7       0.00427509       0.00604589      -0.00000000
In       4.45656381       0.17363966       4.14002362        8       0.00427509      -0.00302295      -0.00523590
In      -1.56737579       4.43320819      -0.00000000        9       0.00000000      -0.00000000      -0.00000000
In       4.45656381       6.82345194       0.30075270       10       0.00427509      -0.00302295      -0.00523590
In      -1.32181224      -2.39024375       7.37778913       11      -0.00427509       0.00302295       0.00523590
In       4.45656381       2.97762684       1.91963545       12       0.00427509       0.00604589      -0.00000000
In       1.81293934       5.36787059       2.22038816       13      -0.00427509       0.00302295      -0.00523590
In       4.70212736       0.00000000      -0.00000000       14      -0.00000000       0.00000000       0.00000000
In       1.56737579       2.21660410       3.83927091       15       0.00000000      -0.00000000       0.00000000
O        1.03785040       4.45146159       4.13889477       16       0.03061599      -0.00754427       0.01391558
O       -2.09690118       3.57526132       5.59328653       17       0.03061599       0.01582338      -0.00042426
O       -0.44572047       2.40770025      -0.06298019       18       0.01801095       0.02473649      -0.01586222
O       -1.03785040      -0.83969347       2.05363948       19      -0.03061599       0.00827911       0.01349132
O        4.06975576       5.23654004       2.11661967       20       0.00471310      -0.01743717       0.02935354
O        2.19974739       3.00182771       1.75401562       21      -0.00471310      -0.03413949      -0.00042426
O        2.19974739       6.66792052       0.36260405       22      -0.00471309       0.01670232       0.02977780
O       -2.41857505       6.26747483       3.77629072       23      -0.01731813      -0.02522638      -0.01586222
O        3.58047204       2.02550795       7.74152202       24      -0.01801095      -0.02473649       0.01586222
O        5.55332662      -1.83426663       3.90225110       25       0.01731813       0.02522638       0.01586222
O        6.71522361       3.36591178       1.72265124       26      -0.01801095      -0.00136884      -0.02935354
O        3.85092810       2.35323039       4.20187496       27      -0.01731813      -0.00112389       0.02977780
O        0.71617652       4.67891937       7.37891797       28      -0.01731813       0.02635028      -0.01391558
O        2.41857505      -0.24571117       0.29962386       29       0.01731813      -0.02635028       0.01391558
O       -3.58047204       1.06729642       5.95589058       30       0.01801095       0.00136884       0.02935354
O        5.23165275       0.85794687       2.08525529       31      -0.03061599      -0.01582338       0.00042426
O        0.93500418       1.43138049       5.92452621       32       0.00471310       0.03413949       0.00042426
O        3.58047204      -0.95821153       5.89291039       33      -0.01801095       0.02610533       0.01349132
O        2.09690117      -0.01825340       3.53964705       34      -0.03061599       0.00754427      -0.01391558
O        0.93500418      -2.23471233       7.31593778       35       0.00471310      -0.01670233      -0.02977780
O       -0.71617653       2.07997781       3.47666686       36       0.01731813       0.00112389      -0.02977780
O       -0.93500418      -0.80333184       5.56192216       37      -0.00471310       0.01743717      -0.02935354
O       -0.44572047       5.39141972       1.78563143       38       0.01801095      -0.02610533      -0.01349132
O        4.17260197       5.27290167       5.62490235       39       0.03061599      -0.00827911      -0.01349132
40
Lattice="9.404254726270898 7.370791644742546e-10 1.7034177262427577e-14 -3.134751576118557 8.866416385023362 -1.2766798096729174e-09 -3.1347515750761863 -4.433208191774588 7.6785418308119295" Properties=species:S:1:pos:R:3:spacegroup_kinds:I:1:forces:R:3 spacegroup="P 1" unit_cell=conventional occupancy="_JSON {\"0\": {\"In\": 1}, \"1\": {\"In\": 1}, \"2\": {\"In\": 1}, \"3\": {\"In\": 1}, \"4\": {\"In\": 1}, \"5\": {\"In\": 1}, \"6\": {\"In\": 1}, \"7\": {\"In\": 1}, \"8\": {\"In\": 1}, \"9\": {\"In\": 1}, \"10\": {\"In\": 1}, \"11\": {\"In\": 1}, \"12\": {\"In\": 1}, \"13\": {\"In\": 1}, \"14\": {\"In\": 1}, \"15\": {\"In\": 1}, \"16\": {\"O\": 1}, \"17\": {\"O\": 1}, \"18\": {\"O\": 1}, \"19\": {\"O\": 1}, \"20\": {\"O\": 1}, \"21\": {\"O\": 1}, \"22\": {\"O\": 1}, \"23\": {\"O\": 1}, \"24\": {\"O\": 1}, \"25\": {\"O\": 1}, \"26\": {\"O\": 1}, \"27\": {\"O\": 1}, \"28\": {\"O\": 1}, \"29\": {\"O\": 1}, \"30\": {\"O\": 1}, \"31\": {\"O\": 1}, \"32\": {\"O\": 1}, \"33\": {\"O\": 1}, \"34\": {\"O\": 1}, \"35\": {\"O\": 1}, \"36\": {\"O\": 1}, \"37\": {\"O\": 1}, \"38\": {\"O\": 1}, \"39\": {\"O\": 1}}" n_minim_iter=3 energy=-45146.51650946611 stress="0.09462030652996409 -1.845603191253759e-14 4.300388306392541e-13 -1.845603191253759e-14 0.09462030652994836 2.6249893218276517e-13 4.300388306392541e-13 2.6249893218276517e-13 0.09462030653014841" free_energy=-45146.51650946611 pbc="T T T"
In      -4.45718180       3.15170348       6.05890219        0       0.00296309      -0.00209522       0.00362903
In       7.59193337       1.28150472       1.61963963        1      -0.00296309       0.00209522      -0.00362903
In       1.32243022      -0.93509938       5.45891055        2      -0.00296309       0.00209522      -0.00362903
In      -1.56737579      -2.21660409       3.83927091        3      -0.00000000      -0.00000000       0.00000000
In      -1.32243023       4.26000553       3.53927509        4       0.00296309      -0.00209522      -0.00362903
In       4.94707292      -2.97850080       5.75890637        5       0.00296309       0.00419044       0.00000000
In      -1.32243023       1.45470739       5.75890637        6       0.00296309       0.00419044      -0.00000000
In      -1.81232135       7.41170900       1.91963545        7      -0.00296309      -0.00419044       0.00000000
In       4.45718180       0.17320267       4.13926673        8      -0.00296309       0.00209522       0.00362903
In      -1.56737579       4.43320819      -0.00000000        9      -0.00000000      -0.00000000      -0.00000000
In       4.45718180       6.82301496       0.29999582       10      -0.00296309       0.00209522       0.00362903
In      -1.32243023      -2.38980676       7.37854601       11       0.00296309      -0.00209522      -0.00362903
In       4.45718180       2.97850081       1.91963545       12      -0.00296309      -0.00419044       0.00000000
In       1.81232135       5.36830757       2.21963128       13       0.00296309      -0.00209522       0.00362903
In       4.70212736       0.00000000      -0.00000000       14       0.00000000      -0.00000000       0.00000000
In       1.56737579       2.21660410       3.83927091       15      -0.00000000      -0.00000000      -0.00000000
O        1.04753339       4.44943457       4.14186607       16       0.01520953       0.02573367      -0.01734794
O       -2.08721818       3.57884806       5.59355634       17       0.01520953      -0.02789059      -0.01361204
O       -0.44102230       2.41481178      -0.06881552       18       0.00303628      -0.01928280      -0.02852117
O       -1.04753339      -0.83813376       2.05688059       19      -0.01520953      -0.00215692      -0.03095998
O        4.06990970       5.23161130       2.12569610       20      -0.03136535      -0.01430978      -0.00243881
O        2.19959345       2.99150292       1.75428542       21       0.03136535      -0.00504282      -0.01361204
O        2.19959345       6.67331658       0.37141067       22       0.03136535      -0.00926696       0.01117323
O       -2.42371381       6.26067484       3.77045539       23       0.01919209       0.00356497      -0.02852117
O        3.57577387       2.01839642       7.74735734       24      -0.00303628       0.01928280       0.02852117
O        5.55846539      -1.82746664       3.90808643       25      -0.01919209      -0.00356497       0.02852117
O        6.71052544       3.36441400       1.71357481       26      -0.00303628      -0.03434146       0.00243881
O        3.84578934       2.35157684       4.21068159       27       0.01919209      -0.02648255       0.01117323
O        0.71103776       4.68737291       7.37594667       28       0.01919209       0.02291758       0.01734794
O        2.42371381      -0.25416471       0.30259516       29      -0.01919209      -0.02291758      -0.01734794
O       -3.57577387       1.06879419       5.96496702       30       0.00303628       0.03434146      -0.00243881
O        5.22196976       0.85436014       2.08498549       31      -0.01520953       0.02789059       0.01361204
O        0.93515812       1.44170528       5.92425640       32      -0.03136535       0.00504282       0.01361204
O        3.57577387      -0.94960222       5.89615150       33      -0.00303628       0.01505866      -0.03095998
O        2.08721818      -0.01622637       3.53667575       34      -0.01520953      -0.02573367       0.01734794
O        0.93515812      -2.24010838       7.30713115       35      -0.03136535       0.00926696      -0.01117323
O       -0.71103777       2.08163136       3.46786023       36      -0.01919209       0.02648255      -0.01117323
O       -0.93515812      -0.79840311       5.55284572       37       0.03136535       0.01430978       0.00243881
O       -0.44102230       5.38281041       1.78239032       38       0.00303628      -0.01505866       0.03095998
O        4.18228497       5.27134196       5.62166124       39       0.01520953       0.00215692       0.03095998
40
Lattice="9.404254726270905 7.370791644742551e-10 1.7034177262427625e-14 -3.13475157611856 8.866416385023372 -1.276679809672919e-09 -3.1347515750761894 -4.433208191774593 7.678541830811938" Properties=species:S:1:pos:R:3:spacegroup_kinds:I:1:forces:R:3 spacegroup="P 1" unit_cell=conventional occupancy="_JSON {\"0\": {\"In\": 1}, \"1\": {\"In\": 1}, \"2\": {\"In\": 1}, \"3\": {\"In\": 1}, \"4\": {\"In\": 1}, \"5\": {\"In\": 1}, \"6\": {\"In\": 1}, \"7\": {\"In\": 1}, \"8\": {\"In\": 1}, \"9\": {\"In\": 1}, \"10\": {\"In\": 1}, \"11\": {\"In\": 1}, \"12\": {\"In\": 1}, \"13\": {\"In\": 1}, \"14\": {\"In\": 1}, \"15\": {\"In\": 1}, \"16\": {\"O\": 1}, \"17\": {\"O\": 1}, \"18\": {\"O\": 1}, \"19\": {\"O\": 1}, \"20\": {\"O\": 1}, \"21\": {\"O\": 1}, \"22\": {\"O\": 1}, \"23\": {\"O\": 1}, \"24\": {\"O\": 1}, \"25\": {\"O\": 1}, \"26\": {\"O\": 1}, \"27\": {\"O\": 1}, \"28\": {\"O\": 1}, \"29\": {\"O\": 1}, \"30\": {\"O\": 1}, \"31\": {\"O\": 1}, \"32\": {\"O\": 1}, \"33\": {\"O\": 1}, \"34\": {\"O\": 1}, \"35\": {\"O\": 1}, \"36\": {\"O\": 1}, \"37\": {\"O\": 1}, \"38\": {\"O\": 1}, \"39\": {\"O\": 1}}" n_minim_iter=4 energy=-45146.51840488208 stress="0.09395881090053843 -6.354569563399264e-13 1.4671170060444854e-13 -6.354569563399264e-13 0.09395881090057565 -2.520646967238699e-13 1.4671170060444854e-13 -2.520646967238699e-13 0.09395881090078964" free_energy=-45146.51840488208 pbc="T T T"
In      -4.45602532       3.15088572       6.06031859        0      -0.00702987       0.00497087      -0.00860980
In       7.59077689       1.28232248       1.61822324        1       0.00702987      -0.00497087       0.00860980
In       1.32127374      -0.93428162       5.45749415        2       0.00702987      -0.00497087       0.00860980
In      -1.56737579      -2.21660409       3.83927091        3       0.00000000       0.00000000       0.00000000
In      -1.32127374       4.25918777       3.53785869        4      -0.00702987       0.00497087       0.00860980
In       4.94822941      -2.97686529       5.75890637        5      -0.00702987      -0.00994174      -0.00000000
In      -1.32127374       1.45634290       5.75890637        6      -0.00702987      -0.00994174      -0.00000000
In      -1.81347784       7.41007349       1.91963545        7       0.00702987       0.00994174      -0.00000000
In       4.45602532       0.17402043       4.14068313        8       0.00702987      -0.00497087      -0.00860980
In      -1.56737579       4.43320819      -0.00000000        9       0.00000000       0.00000000      -0.00000000
In       4.45602532       6.82383272       0.30141222       10       0.00702987      -0.00497087      -0.00860980
In      -1.32127374      -2.39062452       7.37712961       11      -0.00702987       0.00497087       0.00860980
In       4.45602532       2.97686530       1.91963545       12       0.00702987       0.00994174      -0.00000000
In       1.81347783       5.36748982       2.22104767       13      -0.00702987       0.00497087      -0.00860980
In       4.70212736       0.00000000      -0.00000000       14       0.00000000       0.00000000      -0.00000000
In       1.56737579       2.21660410       3.83927091       15       0.00000000      -0.00000000       0.00000000
O        1.05361089       4.44935299       4.14049153       16       0.00744220       0.02977198      -0.00554083
O       -2.08114068       3.57769846       5.59431426       17       0.00744220      -0.01968449      -0.02301288
O       -0.44015723       2.41734793      -0.07444150       18       0.01199131      -0.02290120      -0.01744137
O       -1.05361090      -0.83936494       2.05626396       19      -0.00744220       0.01008749      -0.02855370
O        4.06680001       5.22959432       2.13070546       20      -0.02103944      -0.02015727      -0.01111233
O        2.20270314       2.98615620       1.75504335       21       0.02103944      -0.00045507      -0.02301288
O        2.20270314       6.67664632       0.37566211       22       0.02103944      -0.01970220       0.01190054
O       -2.42581656       6.25901386       3.76482941       23       0.02558856      -0.00367178      -0.01744137
O        3.57490880       2.01586027       7.75298333       24      -0.01199131       0.02290120       0.01744137
O        5.56056813      -1.82580566       3.91371241       25      -0.02558856       0.00367178       0.01744137
O        6.70966038       3.36080983       1.70856545       26      -0.01199131      -0.02655527       0.01111233
O        3.84368659       2.34753508       4.21493303       27       0.02558856      -0.01326878       0.01190054
O        0.70893501       4.69307564       7.37732121       28       0.02558856       0.01694056       0.00554083
O        2.42581656      -0.25986744       0.30122062       29      -0.02558856      -0.01694056      -0.00554083
O       -3.57490880       1.07239836       5.96997638       30       0.01199131       0.02655527      -0.01111233
O        5.21589225       0.85550974       2.08422756       31      -0.00744220       0.01968449       0.02301288
O        0.93204844       1.44705200       5.92349848       32      -0.02103944       0.00045507       0.02301288
O        3.57490880      -0.94346190       5.89553488       33      -0.01199131       0.00365407      -0.02855370
O        2.08114068      -0.01614479       3.53805029       34      -0.00744220      -0.02977198       0.00554083
O        0.93204844      -2.24343812       7.30287971       35      -0.02103944       0.01970220      -0.01190054
O       -0.70893502       2.08567311       3.46360880       36      -0.02558856       0.01326878      -0.01190054
O       -0.93204844      -0.79638612       5.54783636       37       0.02103944       0.02015727       0.01111233
O       -0.44015723       5.37667010       1.78300695       38       0.01199131      -0.00365407       0.02855370
O        4.18836247       5.27257314       5.62227786       39       0.00744220      -0.01008749       0.02855370
40
Lattice="9.404254726270906 7.370791644742554e-10 1.7034177262427675e-14 -3.134751576118562 8.866416385023376 -1.2766798096729195e-09 -3.134751575076191 -4.433208191774595 7.67854183081194" Properties=species:S:1:pos:R:3:spacegroup_kinds:I:1:forces:R:3 spacegroup="P 1" unit_cell=conventional occupancy="_JSON {\"0\": {\"In\": 1}, \"1\": {\"In\": 1}, \"2\": {\"In\": 1}, \"3\": {\"In\": 1}, \"4\": {\"In\": 1}, \"5\": {\"In\": 1}, \"6\": {\"In\": 1}, \"7\": {\"In\": 1}, \"8\": {\"In\": 1}, \"9\": {\"In\": 1}, \"10\": {\"In\": 1}, \"11\": {\"In\": 1}, \"12\": {\"In\": 1}, \"13\": {\"In\": 1}, \"14\": {\"In\": 1}, \"15\": {\"In\": 1}, \"16\": {\"O\": 1}, \"17\": {\"O\": 1}, \"18\": {\"O\": 1}, \"19\": {\"O\": 1}, \"20\": {\"O\": 1}, \"21\": {\"O\": 1}, \"22\": {\"O\": 1}, \"23\": {\"O\": 1}, \"24\": {\"O\": 1}, \"25\": {\"O\": 1}, \"26\": {\"O\": 1}, \"27\": {\"O\": 1}, \"28\": {\"O\": 1}, \"29\": {\"O\": 1}, \"30\": {\"O\": 1}, \"31\": {\"O\": 1}, \"32\": {\"O\": 1}, \"33\": {\"O\": 1}, \"34\": {\"O\": 1}, \"35\": {\"O\": 1}, \"36\": {\"O\": 1}, \"37\": {\"O\": 1}, \"38\": {\"O\": 1}, \"39\": {\"O\": 1}}" n_minim_iter=5 energy=-45146.51902183861 stress="0.09360381942096938 1.7055361563390535e-13 2.9107239055043357e-14 1.7055361563390535e-13 0.09360381942043047 1.0686598887261146e-13 2.9107239055043357e-14 1.0686598887261146e-13 0.09360381942013661" free_energy=-45146.51902183861 pbc="T T T"
In      -4.45559831       3.15058378       6.06084157        0      -0.01151647       0.00814337      -0.01410474
In       7.59034988       1.28262442       1.61770026        1       0.01151647      -0.00814337       0.01410474
In       1.32084673      -0.93397968       5.45697117        2       0.01151647      -0.00814337       0.01410474
In      -1.56737579      -2.21660409       3.83927091        3      -0.00000000      -0.00000000      -0.00000000
In      -1.32084673       4.25888583       3.53733572        4      -0.01151647       0.00814337       0.01410474
In       4.94865642      -2.97626141       5.75890637        5      -0.01151647      -0.01628675      -0.00000000
In      -1.32084673       1.45694678       5.75890637        6      -0.01151647      -0.01628675      -0.00000000
In      -1.81390485       7.40946961       1.91963545        7       0.01151647       0.01628675      -0.00000000
In       4.45559831       0.17432237       4.14120611        8       0.01151647      -0.00814337      -0.01410474
In      -1.56737579       4.43320819      -0.00000000        9       0.00000000       0.00000000       0.00000000
In       4.45559831       6.82413466       0.30193519       10       0.01151647      -0.00814337      -0.01410474
In      -1.32084673      -2.39092646       7.37660663       11      -0.01151647       0.00814337       0.01410474
In       4.45559831       2.97626141       1.91963545       12       0.01151647       0.01628675       0.00000000
In       1.81390484       5.36718788       2.22157065       13      -0.01151647       0.00814337      -0.01410474
In       4.70212736       0.00000000      -0.00000000       14      -0.00000000      -0.00000000      -0.00000000
In       1.56737579       2.21660410       3.83927091       15      -0.00000000       0.00000000      -0.00000000
O        1.05685040       4.44978044       4.13978131       16       0.00361415       0.02620214       0.00063545
O       -2.07790118       3.57686966       5.59429918       17       0.00361415      -0.01255075      -0.02300944
O       -0.43945578       2.41831381      -0.07756505       18       0.01407537      -0.01994795      -0.01019712
O       -1.05685040      -0.83976628       2.05553867       19      -0.00361415       0.01365139      -0.02237399
O        4.06493878       5.22819228       2.13310372       20      -0.01303768      -0.01953870      -0.01217687
O        2.20456437       2.98337823       1.75502827       21       0.01303768       0.00077613      -0.02300944
O        2.20456437       6.67802224       0.37807545       22       0.01303768      -0.02031483       0.01083257
O       -2.42649339       6.25803057       3.76170586       23       0.02349889      -0.00662107      -0.01019712
O        3.57420735       2.01489439       7.75610688       24      -0.01407537       0.01994795       0.01019712
O        5.56124496      -1.82482237       3.91683596       25      -0.02349889       0.00662107       0.01019712
O        6.70895893       3.35858770       1.70616719       26      -0.01407537      -0.01880494       0.01217687
O        3.84300976       2.34532166       4.21734636       27       0.02349889      -0.00552043       0.01083257
O        0.70825819       4.69627236       7.37803143       28       0.02349889       0.01214150      -0.00063545
O        2.42649338      -0.26306416       0.30051040       29      -0.02349889      -0.01214150       0.00063545
O       -3.57420735       1.07462050       5.97237463       30       0.01407537       0.01880494      -0.01217687
O        5.21265275       0.85633853       2.08424264       31      -0.00361415       0.01255075       0.02300944
O        0.93018720       1.44982997       5.92351356       32      -0.01303768      -0.00077613       0.02300944
O        3.57420735      -0.94027389       5.89480958       33      -0.01407537      -0.00114301      -0.02237399
O        2.07790117      -0.01657225       3.53876051       34      -0.00361415      -0.02620214      -0.00063545
O        0.93018720      -2.24481405       7.30046638       35      -0.01303768       0.02031483      -0.01083257
O       -0.70825819       2.08788654       3.46119546       36      -0.02349889       0.00552043      -0.01083257
O       -0.93018721      -0.79498408       5.54543811       37       0.01303768       0.01953870       0.01217687
O       -0.43945578       5.37348208       1.78373224       38       0.01407537       0.00114301       0.02237399
O        4.19160197       5.27297448       5.62300316       39       0.00361415      -0.01365139       0.02237399
40