40
Lattice="8.27322986143215 6.484358285058875e-10 2.0212114517430892e-14 -2.757743287755402 7.800075916228806 -1.123129112894467e-09 -2.757743286838392 -3.900037957465967 6.755063895650072" Properties=species:S:1:pos:R:3:spacegroup_kinds:I:1:forces:R:3 spacegroup="P 1" unit_cell=conventional occupancy="_JSON {\"0\": {\"In\": 1}, \"1\": {\"In\": 1}, \"2\": {\"In\": 1}, \"3\": {\"In\": 1}, \"4\": {\"In\": 1}, \"5\": {\"In\": 1}, \"6\": {\"In\": 1}, \"7\": {\"In\": 1}, \"8\": {\"In\": 1}, \"9\": {\"In\": 1}, \"10\": {\"In\": 1}, \"11\": {\"In\": 1}, \"12\": {\"In\": 1}, \"13\": {\"In\": 1}, \"14\": {\"In\": 1}, \"15\": {\"In\": 1}, \"16\": {\"O\": 1}, \"17\": {\"O\": 1}, \"18\": {\"O\": 1}, \"19\": {\"O\": 1}, \"20\": {\"O\": 1}, \"21\": {\"O\": 1}, \"22\": {\"O\": 1}, \"23\": {\"O\": 1}, \"24\": {\"O\": 1}, \"25\": {\"O\": 1}, \"26\": {\"O\": 1}, \"27\": {\"O\": 1}, \"28\": {\"O\": 1}, \"29\": {\"O\": 1}, \"30\": {\"O\": 1}, \"31\": {\"O\": 1}, \"32\": {\"O\": 1}, \"33\": {\"O\": 1}, \"34\": {\"O\": 1}, \"35\": {\"O\": 1}, \"36\": {\"O\": 1}, \"37\": {\"O\": 1}, \"38\": {\"O\": 1}, \"39\": {\"O\": 1}}" n_minim_iter=5 energy=-45141.09320184744 stress="-0.27106120650987137 2.2761674148214725e-14 -1.0514404108400566e-13 2.2761674148214725e-14 -0.27106120651015336 -5.44507187296509e-13 -1.0514404108400566e-13 -5.44507187296509e-13 -0.2710612065105657" free_energy=-45141.09320184744 pbc="T T T"
In      -3.93898473       2.78528281       5.30834450        0      -0.00365668       0.00258566      -0.00447850
In       6.69672801       1.11475515       1.44671939        1       0.00365668      -0.00258566       0.00447850
In       1.18124144      -0.83526383       4.82425134        2       0.00365668      -0.00258566       0.00447850
In      -1.37887164      -1.95001898       3.37753195        3      -0.00000000       0.00000000       0.00000000
In      -1.18124144       3.76029230       3.13548536        4      -0.00365668       0.00258566       0.00447850
In       4.33424514      -2.64553715       5.06629792        5      -0.00365668      -0.00517132      -0.00000000
In      -1.18124144       1.25450081       5.06629792        6      -0.00365668      -0.00517132       0.00000000
In      -1.57650185       6.54557511       1.68876597        7       0.00365668       0.00517132      -0.00000000
In       3.93898472       0.13974566       3.61957853        8       0.00365668      -0.00258566      -0.00447850
In      -1.37887165       3.90003796      -0.00000000        9      -0.00000000       0.00000000       0.00000000
In       3.93898472       5.98980260       0.24204658       10       0.00365668      -0.00258566      -0.00447850
In      -1.18124144      -2.08976464       6.51301731       11      -0.00365668       0.00258566       0.00447850
In       3.93898472       2.64553715       1.68876597       12       0.00365668       0.00517132      -0.00000000
In       1.57650185       4.73530179       1.93081255       13      -0.00365668       0.00258566      -0.00447850
In       4.13661493       0.00000000      -0.00000000       14      -0.00000000      -0.00000000      -0.00000000
In       1.37887164       1.95001898       3.37753195       15       0.00000000       0.00000000       0.00000000
O        0.78559145       3.89091684       3.71955715       16       0.00450714      -0.00220694       0.00713741
O       -1.97215184       3.22579154       4.90318444       17       0.00450714       0.00728465      -0.00165744
O       -0.38242128       2.10168228       0.09513490       18       0.00628969       0.00602420       0.00052573
O       -0.78559145      -0.68336753       1.86767769       19      -0.00450714       0.00507771       0.00547997
O        3.69868938       4.63833166       1.77254279       20       0.00536565      -0.00477418       0.00495425
O        1.81679720       2.73411772       1.52565249       21      -0.00536565      -0.00667759      -0.00165744
O        1.81679720       5.80425190       0.24689030       22      -0.00536565       0.00190341       0.00661168
O       -2.10895881       5.51004642       3.47266685       23      -0.00358311      -0.00793804       0.00052573
O        3.14016456       1.79835568       6.65992899       24      -0.00628969      -0.00602420      -0.00052573
O        4.86670210      -1.61000845       3.28239704       25       0.00358311       0.00793804      -0.00052573
O        5.89790785       3.08324936       1.60498915       26      -0.00628969       0.00346739      -0.00495425
O        3.40652776       2.20241348       3.62442225       27      -0.00358311       0.00442431       0.00661168
O        0.64878447       3.98765398       6.41303869       28      -0.00358311       0.00351373      -0.00713741
O        2.10895881      -0.08761602       0.34202520       29       0.00358311      -0.00351373       0.00713741
O       -3.14016456       0.81678860       5.15007474       30       0.00628969      -0.00346739       0.00495425
O        4.72989513       0.67424642       1.85187945       31      -0.00450714      -0.00728465       0.00165744
O        0.94094609       1.16592024       5.22941140       32       0.00536565       0.00667759       0.00165744
O        3.14016456      -0.98156708       5.24520964       33      -0.00628969       0.00255681       0.00547997
O        1.97215184       0.00912112       3.03550674       34      -0.00450714       0.00220694      -0.00713741
O        0.94094609      -1.90421393       6.50817359       35       0.00536565      -0.00190341      -0.00661168
O       -0.64878448       1.69762448       3.13064164       36       0.00358311      -0.00442431      -0.00661168
O       -0.94094609      -0.73829369       4.98252110       37      -0.00536565       0.00477418      -0.00495425
O       -0.38242128       4.88160504       1.50985425       38       0.00628969      -0.00255681      -0.00547997
O        3.54333473       4.58340550       4.88738620       39       0.00450714      -0.00507771      -0.00547997
