40
Lattice="9.337079185085448 7.318142202226448e-10 1.6606400840326316e-14 -3.1123597290517777 8.8030826774223 -1.267556565056282e-09 -3.1123597280168513 -4.401541337979326 7.623693231107479" Properties=species:S:1:pos:R:3:spacegroup_kinds:I:1:forces:R:3 spacegroup="P 1" unit_cell=conventional occupancy="_JSON {\"0\": {\"In\": 1}, \"1\": {\"In\": 1}, \"2\": {\"In\": 1}, \"3\": {\"In\": 1}, \"4\": {\"In\": 1}, \"5\": {\"In\": 1}, \"6\": {\"In\": 1}, \"7\": {\"In\": 1}, \"8\": {\"In\": 1}, \"9\": {\"In\": 1}, \"10\": {\"In\": 1}, \"11\": {\"In\": 1}, \"12\": {\"In\": 1}, \"13\": {\"In\": 1}, \"14\": {\"In\": 1}, \"15\": {\"In\": 1}, \"16\": {\"O\": 1}, \"17\": {\"O\": 1}, \"18\": {\"O\": 1}, \"19\": {\"O\": 1}, \"20\": {\"O\": 1}, \"21\": {\"O\": 1}, \"22\": {\"O\": 1}, \"23\": {\"O\": 1}, \"24\": {\"O\": 1}, \"25\": {\"O\": 1}, \"26\": {\"O\": 1}, \"27\": {\"O\": 1}, \"28\": {\"O\": 1}, \"29\": {\"O\": 1}, \"30\": {\"O\": 1}, \"31\": {\"O\": 1}, \"32\": {\"O\": 1}, \"33\": {\"O\": 1}, \"34\": {\"O\": 1}, \"35\": {\"O\": 1}, \"36\": {\"O\": 1}, \"37\": {\"O\": 1}, \"38\": {\"O\": 1}, \"39\": {\"O\": 1}}" n_minim_iter=6 energy=-45148.874321661424 stress="0.07795929291050821 -3.55225712867618e-14 1.8073144831592e-13 -3.55225712867618e-14 0.07795929291040139 -2.4086711109753755e-13 1.8073144831592e-13 -2.4086711109753755e-13 0.07795929291011744" free_energy=-45148.874321661424 pbc="T T T"
In      -4.43396095       3.13528386       6.00506891        0       0.00294333      -0.00208125       0.00360483
In       7.54632068       1.26625748       1.61862432        1      -0.00294333       0.00208125      -0.00360483
In       1.32160122      -0.93451318       5.43047093        2      -0.00294333       0.00208125      -0.00360483
In      -1.55617987      -2.20077067       3.81184661        3       0.00000000      -0.00000000      -0.00000000
In      -1.32160122       4.23566919       3.52454762        4       0.00294333      -0.00208125      -0.00360483
In       4.90311823      -2.96941171       5.71776992        5       0.00294333       0.00416250      -0.00000000
In      -1.32160122       1.43212963       5.71776992        6       0.00294333       0.00416250      -0.00000000
In      -1.79075851       7.37095305       1.90592330        7      -0.00294333      -0.00416250       0.00000000
In       4.43396095       0.16587215       4.09914560        8      -0.00294333       0.00208125       0.00360483
In      -1.55617987       4.40154134      -0.00000000        9      -0.00000000      -0.00000000      -0.00000000
In       4.43396095       6.76818416       0.28729898       10      -0.00294333       0.00208125       0.00360483
In      -1.32160122      -2.36664281       7.33639424       11       0.00294333      -0.00208125      -0.00360483
In       4.43396095       2.96941171       1.90592330       12      -0.00294333      -0.00416250      -0.00000000
In       1.79075850       5.33605453       2.19322229       13       0.00294333      -0.00208125       0.00360483
In       4.66853959       0.00000000      -0.00000000       14      -0.00000000       0.00000000       0.00000000
In       1.55617986       2.20077067       3.81184661       15      -0.00000000       0.00000000       0.00000000
O        1.00256259       4.41545757       4.12307957       16      -0.00013955      -0.00397075       0.00814902
O       -2.10979714       3.56373354       5.55010163       17      -0.00013955       0.00904263      -0.00063574
O       -0.44258490       2.38483645      -0.03168196       18       0.00473530       0.00559559       0.00533471
O       -1.00256260      -0.82389157       2.04948797       19       0.00013955       0.00507188       0.00751328
O        4.06318591       5.20714133       2.08116993       20       0.00857199      -0.00199189       0.00217857
O        2.16153355       3.00199531       1.73825502       21      -0.00857199      -0.00288264      -0.00063574
O        2.16153355       6.60668736       0.34291490       22      -0.00857199       0.00089075       0.00281431
O       -2.39597367       6.22463957       3.78016466       23      -0.00369714      -0.00632968       0.00533471
O        3.55494462       2.01670489       7.65537518       24      -0.00473530      -0.00559559      -0.00533471
O        5.50833340      -1.82309822       3.84352857       25       0.00369714       0.00632968      -0.00533471
O        6.66730435       3.36575152       1.73067668       26      -0.00473530       0.00741779      -0.00217857
O        3.82874579       2.36216952       4.15476152       27      -0.00369714       0.00778483       0.00281431
O        0.71638606       4.61781494       7.31246027       28      -0.00369714      -0.00145515      -0.00814902
O        2.39597367      -0.21627360       0.31123295       29       0.00369714       0.00145515       0.00814902
O       -3.55494462       1.03578982       5.89301654       30       0.00473530      -0.00741779       0.00217857
O        5.22215686       0.83780781       2.07359159       31       0.00013955      -0.00904263       0.00063574
O        0.95082618       1.39954604       5.88543821       32       0.00857199       0.00288264       0.00063574
O        3.55494462      -0.98091506       5.86133459       33      -0.00473530      -0.00182220       0.00751328
O        2.10979713      -0.01391623       3.50061366       34       0.00013955       0.00397075      -0.00814902
O        0.95082618      -2.20514602       7.28077832       35       0.00857199      -0.00089075      -0.00281431
O       -0.71638606       2.03937183       3.46893170       36       0.00369714      -0.00778483      -0.00281431
O       -0.95082618      -0.80559999       5.54252330       37      -0.00857199       0.00199189      -0.00217857
O       -0.44258490       5.38245641       1.76235864       38       0.00473530       0.00182220      -0.00751328
O        4.11492232       5.22543292       5.57420525       39      -0.00013955      -0.00507188      -0.00751328
