40
Lattice="9.268922892595127 7.264712728599013e-10 1.4354086830617348e-14 -3.089640964883302 8.738824308623498 -1.2583010005584954e-09 -3.0896409638559246 -4.36941215358527 7.568043851315801" Properties=species:S:1:pos:R:3:spacegroup_kinds:I:1:forces:R:3 spacegroup="P 1" unit_cell=conventional occupancy="_JSON {\"0\": {\"In\": 1}, \"1\": {\"In\": 1}, \"2\": {\"In\": 1}, \"3\": {\"In\": 1}, \"4\": {\"In\": 1}, \"5\": {\"In\": 1}, \"6\": {\"In\": 1}, \"7\": {\"In\": 1}, \"8\": {\"In\": 1}, \"9\": {\"In\": 1}, \"10\": {\"In\": 1}, \"11\": {\"In\": 1}, \"12\": {\"In\": 1}, \"13\": {\"In\": 1}, \"14\": {\"In\": 1}, \"15\": {\"In\": 1}, \"16\": {\"O\": 1}, \"17\": {\"O\": 1}, \"18\": {\"O\": 1}, \"19\": {\"O\": 1}, \"20\": {\"O\": 1}, \"21\": {\"O\": 1}, \"22\": {\"O\": 1}, \"23\": {\"O\": 1}, \"24\": {\"O\": 1}, \"25\": {\"O\": 1}, \"26\": {\"O\": 1}, \"27\": {\"O\": 1}, \"28\": {\"O\": 1}, \"29\": {\"O\": 1}, \"30\": {\"O\": 1}, \"31\": {\"O\": 1}, \"32\": {\"O\": 1}, \"33\": {\"O\": 1}, \"34\": {\"O\": 1}, \"35\": {\"O\": 1}, \"36\": {\"O\": 1}, \"37\": {\"O\": 1}, \"38\": {\"O\": 1}, \"39\": {\"O\": 1}}" n_minim_iter=8 energy=-45149.865523925175 stress="0.0671461055037165 -6.876087045107873e-15 3.478733250391072e-13 -6.876087045107873e-15 0.0671461055035078 -1.0440872100710906e-14 3.478733250391072e-13 -1.0440872100710906e-14 0.06714610550293569" free_energy=-45149.865523925175 pbc="T T T"
In      -4.40469060       3.11458659       5.95744355        0       0.00130878      -0.00092545       0.00160292
In       7.49433156       1.25482557       1.61060029        1      -0.00130878       0.00092545      -0.00160292
In       1.31504963      -0.92988051       5.39462222        2      -0.00130878       0.00092545      -0.00160292
In      -1.54482048      -2.18470608       3.78402192        3      -0.00000000      -0.00000000       0.00000000
In      -1.31504964       4.20693963       3.50261126        4       0.00130878      -0.00092545      -0.00160292
In       4.86423229      -2.95211406       5.67603289        5       0.00130878       0.00185090      -0.00000000
In      -1.31504964       1.41729809       5.67603289        6       0.00130878       0.00185090       0.00000000
In      -1.77459133       7.32152622       1.89201096        7      -0.00130878      -0.00185090       0.00000000
In       4.40469060       0.16247253       4.06543259        8      -0.00130878       0.00092545       0.00160292
In      -1.54482048       4.36941216      -0.00000000        9       0.00000000       0.00000000       0.00000000
In       4.40469060       6.71659076       0.28141066       10      -0.00130878       0.00092545       0.00160292
In      -1.31504964      -2.34717860       7.28663318       11       0.00130878      -0.00092545      -0.00160292
In       4.40469060       2.95211407       1.89201096       12      -0.00130878      -0.00185090       0.00000000
In       1.77459133       5.29929267       2.17342163       13       0.00130878      -0.00092545       0.00160292
In       4.63446144       0.00000000      -0.00000000       14      -0.00000000       0.00000000       0.00000000
In       1.54482048       2.18470608       3.78402192       15       0.00000000      -0.00000000      -0.00000000
O        0.97447354       4.38008290       4.10164363       16       0.00077085      -0.00003085      -0.00798940
O       -2.11516743       3.54679221       5.50798090       17       0.00077085      -0.00690360       0.00402142
O       -0.44068854       2.36275683      -0.00925352       18      -0.00628091      -0.00191725      -0.00461519
O       -0.97447354      -0.81194920       2.04158068       19      -0.00077085      -0.00693445      -0.00396798
O        4.04900357       5.17601884       2.05083420       20      -0.00676572       0.00426987       0.00064721
O        2.13027835       2.99664098       1.72395897       21       0.00676572       0.00157443       0.00402142
O        2.13027835       6.54879001       0.32687522       22       0.00676572       0.00269543      -0.00337421
O       -2.37452469       6.18201776       3.77476840       23      -0.00028604       0.00656078      -0.00461519
O        3.53032950       2.00665532       7.57729737       24       0.00628091       0.00191725       0.00461519
O        5.46416565      -1.81260560       3.79327544       25       0.00028604      -0.00656078       0.00461519
O        6.61997046       3.35807071       1.73318772       26       0.00628091      -0.00495550      -0.00064721
O        3.80475724       2.36274254       4.11089715       27      -0.00028604      -0.00727726      -0.00337421
O        0.71511628       4.56347618       7.25042214       28      -0.00028604       0.00071648       0.00798940
O        2.37452468      -0.19406402       0.31762170       29       0.00028604      -0.00071648      -0.00798940
O       -3.53032950       1.01134144       5.83485612       30      -0.00628091       0.00495550       0.00064721
O        5.20480839       0.82261995       2.06006295       31      -0.00077085       0.00690360      -0.00402142
O        0.95936261       1.37277118       5.84408487       32      -0.00676572      -0.00157443      -0.00402142
O        3.53032950      -0.99531388       5.82560260       33       0.00628091       0.00303825      -0.00396798
O        2.11516742      -0.01067074       3.46640022       34      -0.00077085       0.00003085       0.00798940
O        0.95936261      -2.17937785       7.24116862       35      -0.00676572      -0.00269543       0.00337421
O       -0.71511628       2.00666962       3.45714670       36       0.00028604       0.00727726       0.00337421
O       -0.95936261      -0.80660668       5.51720965       37       0.00676572      -0.00426987      -0.00064721
O       -0.44068854       5.36472604       1.74244124       38      -0.00628091      -0.00303825       0.00396798
O        4.06411450       5.18136136       5.52646317       39       0.00077085       0.00693445       0.00396798
