40
Lattice="9.12951941594643 7.155453636184955e-10 9.242239007370101e-15 -3.0431731393234327 8.607393450414776 -1.2393709927972778e-09 -3.043173138311505 -4.303696724491838 7.454221389253235" Properties=species:S:1:pos:R:3:spacegroup_kinds:I:1:forces:R:3 spacegroup="P 1" unit_cell=conventional occupancy="_JSON {\"0\": {\"In\": 1}, \"1\": {\"In\": 1}, \"2\": {\"In\": 1}, \"3\": {\"In\": 1}, \"4\": {\"In\": 1}, \"5\": {\"In\": 1}, \"6\": {\"In\": 1}, \"7\": {\"In\": 1}, \"8\": {\"In\": 1}, \"9\": {\"In\": 1}, \"10\": {\"In\": 1}, \"11\": {\"In\": 1}, \"12\": {\"In\": 1}, \"13\": {\"In\": 1}, \"14\": {\"In\": 1}, \"15\": {\"In\": 1}, \"16\": {\"O\": 1}, \"17\": {\"O\": 1}, \"18\": {\"O\": 1}, \"19\": {\"O\": 1}, \"20\": {\"O\": 1}, \"21\": {\"O\": 1}, \"22\": {\"O\": 1}, \"23\": {\"O\": 1}, \"24\": {\"O\": 1}, \"25\": {\"O\": 1}, \"26\": {\"O\": 1}, \"27\": {\"O\": 1}, \"28\": {\"O\": 1}, \"29\": {\"O\": 1}, \"30\": {\"O\": 1}, \"31\": {\"O\": 1}, \"32\": {\"O\": 1}, \"33\": {\"O\": 1}, \"34\": {\"O\": 1}, \"35\": {\"O\": 1}, \"36\": {\"O\": 1}, \"37\": {\"O\": 1}, \"38\": {\"O\": 1}, \"39\": {\"O\": 1}}" n_minim_iter=7 energy=-45151.341337253114 stress="0.039490710805124125 1.3946739995132602e-13 9.02858284288697e-14 1.3946739995132602e-13 0.039490710804866616 2.5004242278324714e-13 9.02858284288697e-14 2.5004242278324714e-13 0.03949071080537709" free_energy=-45151.341337253114 pbc="T T T"
In      -4.35232700       3.07755994       5.85084191        0       0.00381644      -0.00269863       0.00467417
In       7.39550013       1.22613679       1.60337947        1      -0.00381644       0.00269863      -0.00467417
In       1.30915386      -0.92571157       5.33049017        2      -0.00381644       0.00269863      -0.00467417
In      -1.52158657      -2.15184836       3.72711069        3      -0.00000000      -0.00000000       0.00000000
In      -1.30915386       4.15348412       3.46693482        4       0.00381644      -0.00269863      -0.00467417
In       4.77719242      -2.92734732       5.59066604        5       0.00381644       0.00539727       0.00000000
In      -1.30915386       1.37634940       5.59066604        6       0.00381644       0.00539727      -0.00000000
In      -1.73401928       7.23104405       1.86355534        7      -0.00381644      -0.00539727      -0.00000000
In       4.35232700       0.15021261       3.98728656        8      -0.00381644       0.00269863       0.00467417
In      -1.52158657       4.30369673      -0.00000000        9      -0.00000000      -0.00000000       0.00000000
In       4.35232700       6.60575770       0.26017587       10      -0.00381644       0.00269863       0.00467417
In      -1.30915386      -2.30206097       7.19404551       11       0.00381644      -0.00269863      -0.00467417
In       4.35232700       2.92734733       1.86355534       12      -0.00381644      -0.00539727       0.00000000
In       1.73401928       5.22940830       2.12373122       13       0.00381644      -0.00269863       0.00467417
In       4.56475971       0.00000000      -0.00000000       14      -0.00000000      -0.00000000       0.00000000
In       1.52158657       2.15184836       3.72711069       15       0.00000000       0.00000000      -0.00000000
O        0.92296389       4.30893597       4.04549066       16      -0.00086871       0.00116757       0.00584416
O       -2.12020925       3.50087806       5.42693874       17      -0.00086871       0.00447741      -0.00393323
O       -0.44431046       2.31583866       0.02526579       18       0.00503257       0.00030458       0.00329433
O       -0.92296390      -0.79757942       2.01820801       19       0.00086871       0.00564498       0.00191093
O        4.00739590       5.11586336       1.99294221       20       0.00451091      -0.00374300      -0.00138339
O        2.07895037       2.98384146       1.69982804       21      -0.00451091      -0.00067345      -0.00393323
O        2.07895037       6.43571863       0.29311417       22      -0.00451091      -0.00306955       0.00254984
O       -2.33149712       6.10249879       3.75237649       23       0.00139037      -0.00484628       0.00329433
O        3.48748359       1.98785807       7.42895559       24      -0.00503257      -0.00030457      -0.00329433
O        5.37467025      -1.79880206       3.70184490       25      -0.00139037       0.00484628      -0.00329433
O        6.53065673       3.33164852       1.73416848       26      -0.00503257       0.00300526       0.00138339
O        3.75484916       2.35025234       4.02022486       27       0.00139037       0.00527611       0.00254984
O        0.71167602       4.45833906       7.13584142       28       0.00139037      -0.00042983      -0.00584416
O        2.33149711      -0.15464233       0.31837996       29      -0.00139037       0.00042983       0.00584416
O       -3.48748360       0.97204821       5.72005291       30       0.00503257      -0.00300526      -0.00138339
O        5.16338238       0.80281867       2.02728265       31       0.00086871      -0.00447741       0.00393323
O        0.96422276       1.31985527       5.75439334       32       0.00451091       0.00067345       0.00393323
O        3.48748359      -1.01580985       5.74531870       33      -0.00503257      -0.00270068       0.00191093
O        2.12020924      -0.00523924       3.40873073       34       0.00086871      -0.00116757      -0.00584416
O        0.96422276      -2.13202190       7.16110722       35       0.00451091       0.00306955      -0.00254984
O       -0.71167602       1.95344439       3.43399652       36      -0.00139037      -0.00527611      -0.00254984
O       -0.96422277      -0.81216663       5.46127917       37      -0.00451091       0.00374300       0.00138339
O       -0.44431046       5.31950658       1.70890268       38       0.00503257       0.00270068      -0.00191093
O        3.96613703       5.10127615       5.43601337       39      -0.00086871      -0.00564498      -0.00191093
