40
Lattice="8.760985541254037 6.866630084411439e-10 7.718696056225893e-15 -2.920328514398736 8.259936381235145 -1.1893352855391234e-09 -2.9203285134276564 -4.129968189930913 7.153314740585829" Properties=species:S:1:pos:R:3:spacegroup_kinds:I:1:forces:R:3 spacegroup="P 1" unit_cell=conventional occupancy="_JSON {\"0\": {\"In\": 1}, \"1\": {\"In\": 1}, \"2\": {\"In\": 1}, \"3\": {\"In\": 1}, \"4\": {\"In\": 1}, \"5\": {\"In\": 1}, \"6\": {\"In\": 1}, \"7\": {\"In\": 1}, \"8\": {\"In\": 1}, \"9\": {\"In\": 1}, \"10\": {\"In\": 1}, \"11\": {\"In\": 1}, \"12\": {\"In\": 1}, \"13\": {\"In\": 1}, \"14\": {\"In\": 1}, \"15\": {\"In\": 1}, \"16\": {\"O\": 1}, \"17\": {\"O\": 1}, \"18\": {\"O\": 1}, \"19\": {\"O\": 1}, \"20\": {\"O\": 1}, \"21\": {\"O\": 1}, \"22\": {\"O\": 1}, \"23\": {\"O\": 1}, \"24\": {\"O\": 1}, \"25\": {\"O\": 1}, \"26\": {\"O\": 1}, \"27\": {\"O\": 1}, \"28\": {\"O\": 1}, \"29\": {\"O\": 1}, \"30\": {\"O\": 1}, \"31\": {\"O\": 1}, \"32\": {\"O\": 1}, \"33\": {\"O\": 1}, \"34\": {\"O\": 1}, \"35\": {\"O\": 1}, \"36\": {\"O\": 1}, \"37\": {\"O\": 1}, \"38\": {\"O\": 1}, \"39\": {\"O\": 1}}" n_minim_iter=6 energy=-45151.746997147784 stress="-0.024202295318105898 1.19709909993383e-13 9.44625511154672e-13 1.19709909993383e-13 -0.02420229531712316 -5.941316310023589e-13 9.44625511154672e-13 -5.941316310023589e-13 -0.02420229531701334" free_energy=-45151.746997147784 pbc="T T T"
In      -4.18364061       2.95828064       5.60607973        0      -0.00501132       0.00354354      -0.00613759
In       7.10396912       1.17168755       1.54723500        1       0.00501132      -0.00354354       0.00613759
In       1.26331209      -0.89329654       5.12389237        2       0.00501132      -0.00354354       0.00613759
In      -1.46016426      -2.06498409       3.57665737        3      -0.00000000       0.00000000       0.00000000
In      -1.26331209       3.99077269       3.33556369        4      -0.00501132       0.00354354       0.00613759
In       4.57734493      -2.81908514       5.36498605        5      -0.00501132      -0.00708708      -0.00000000
In      -1.26331209       1.31088305       5.36498605        6      -0.00501132      -0.00708708      -0.00000000
In      -1.65701642       6.94905333       1.78832868        7       0.00501132       0.00708708      -0.00000000
In       4.18364060       0.13919550       3.81775105        8       0.00501132      -0.00354354      -0.00613759
In      -1.46016426       4.12996819      -0.00000000        9      -0.00000000       0.00000000      -0.00000000
In       4.18364060       6.33414779       0.24109368       10       0.00501132      -0.00354354      -0.00613759
In      -1.26331209      -2.20417959       6.91222106       11      -0.00501132       0.00354354       0.00613759
In       4.18364060       2.81908514       1.78832868       12       0.00501132       0.00708708      -0.00000000
In       1.65701642       5.02326474       2.02942236       13      -0.00501132       0.00354354      -0.00613759
In       4.38049277       0.00000000      -0.00000000       14      -0.00000000       0.00000000      -0.00000000
In       1.46016426       2.06498410       3.57665737       15      -0.00000000      -0.00000000      -0.00000000
O        0.85294610       4.12838650       3.89852734       16      -0.00186606      -0.00562630      -0.00467499
O       -2.06738242       3.37701456       5.20542086       17      -0.00186606      -0.00123551       0.00721001
O       -0.42706736       2.21713667       0.06107357       18      -0.00709139       0.00245936       0.00081031
O       -0.85294610      -0.75453532       1.95063346       19       0.00186606      -0.00686181       0.00253502
O        3.87300733       4.91976436       1.88955989       20      -0.00054283       0.00732964       0.00172472
O        1.96764969       2.88845941       1.62876349       21       0.00054283       0.00217117       0.00721001
O        1.96764969       6.16127314       0.26079640       22       0.00054283       0.00515847      -0.00548529
O       -2.23269228       5.85854970       3.63773094       23      -0.00468251       0.00586604       0.00081031
O        3.34739587       1.91283153       7.09224117       24       0.00709139      -0.00245936      -0.00081031
O        5.15302079      -1.72858151       3.51558380       25       0.00468251      -0.00586604      -0.00081031
O        6.26772438       3.22644369       1.68709748       26       0.00709139       0.00193143      -0.00172472
O        3.60796475       2.28607665       3.83745377       27      -0.00468251      -0.00223127      -0.00548529
O        0.68763623       4.24527822       6.83144477       28      -0.00468251      -0.00363477       0.00467499
O        2.23269228      -0.11531003       0.32186997       29       0.00468251       0.00363477      -0.00467499
O       -3.34739587       0.90352450       5.46621726       30      -0.00709139      -0.00193143       0.00172472
O        4.98771093       0.75295363       1.94789388       31       0.00186606       0.00123551      -0.00721001
O        0.95267882       1.24150879       5.52455125       32      -0.00054283      -0.00217117      -0.00721001
O        3.34739587      -1.00930702       5.52729083       33       0.00709139       0.00052793       0.00253502
O        2.06738241       0.00158170       3.25478740       34       0.00186606       0.00562630       0.00467499
O        0.95267882      -2.03130495       6.89251834       35      -0.00054283      -0.00515847       0.00548529
O       -0.68763624       1.84389154       3.31586097       36       0.00468251       0.00223127       0.00548529
O       -0.95267882      -0.78979616       5.26375485       37       0.00054283      -0.00732964      -0.00172472
O       -0.42706736       5.13927522       1.62602391       38      -0.00709139      -0.00052793      -0.00253502
O        3.77327461       4.88450352       5.20268128       39      -0.00186606       0.00686181      -0.00253502
