40
Lattice="8.683450629496722 6.805845028699957e-10 1.0164483452752099e-14 -2.8944835438072345 8.186835765394106 -1.1788107572454725e-09 -2.8944835428447515 -4.093417882016468 7.090007750228184" Properties=species:S:1:pos:R:3:spacegroup_kinds:I:1:forces:R:3 spacegroup="P 1" unit_cell=conventional occupancy="_JSON {\"0\": {\"In\": 1}, \"1\": {\"In\": 1}, \"2\": {\"In\": 1}, \"3\": {\"In\": 1}, \"4\": {\"In\": 1}, \"5\": {\"In\": 1}, \"6\": {\"In\": 1}, \"7\": {\"In\": 1}, \"8\": {\"In\": 1}, \"9\": {\"In\": 1}, \"10\": {\"In\": 1}, \"11\": {\"In\": 1}, \"12\": {\"In\": 1}, \"13\": {\"In\": 1}, \"14\": {\"In\": 1}, \"15\": {\"In\": 1}, \"16\": {\"O\": 1}, \"17\": {\"O\": 1}, \"18\": {\"O\": 1}, \"19\": {\"O\": 1}, \"20\": {\"O\": 1}, \"21\": {\"O\": 1}, \"22\": {\"O\": 1}, \"23\": {\"O\": 1}, \"24\": {\"O\": 1}, \"25\": {\"O\": 1}, \"26\": {\"O\": 1}, \"27\": {\"O\": 1}, \"28\": {\"O\": 1}, \"29\": {\"O\": 1}, \"30\": {\"O\": 1}, \"31\": {\"O\": 1}, \"32\": {\"O\": 1}, \"33\": {\"O\": 1}, \"34\": {\"O\": 1}, \"35\": {\"O\": 1}, \"36\": {\"O\": 1}, \"37\": {\"O\": 1}, \"38\": {\"O\": 1}, \"39\": {\"O\": 1}}" n_minim_iter=7 energy=-45151.23455650537 stress="-0.051584128581606055 -1.2218136279497316e-13 -8.077707817088992e-14 -1.2218136279497316e-13 -0.05158412858154706 -3.835640458827484e-15 -8.077707817088992e-14 -3.835640458827484e-15 -0.05158412858147285" free_energy=-45151.23455650537 pbc="T T T"
In      -4.14528956       2.93116236       5.55808950        0      -0.00198630       0.00140452      -0.00243271
In       7.03977310       1.16225553       1.53191824        1       0.00198630      -0.00140452       0.00243271
In       1.25080601      -0.88445341       5.07692212        2       0.00198630      -0.00140452       0.00243271
In      -1.44724177      -2.04670894       3.54500387        3       0.00000000       0.00000000       0.00000000
In      -1.25080601       3.95451683       3.30442018        4      -0.00198630       0.00140452       0.00243271
In       4.53816107      -2.79226129       5.31750581        5      -0.00198630      -0.00280905       0.00000000
In      -1.25080601       1.30115659       5.31750581        6      -0.00198630      -0.00280905      -0.00000000
In      -1.64367753       6.88567918       1.77250193        7       0.00198630       0.00280905       0.00000000
In       4.14528955       0.13890106       3.78558756        8       0.00198630      -0.00140452      -0.00243271
In      -1.44724177       4.09341788      -0.00000000        9       0.00000000      -0.00000000       0.00000000
In       4.14528955       6.27902788       0.24058369       10       0.00198630      -0.00140452      -0.00243271
In      -1.25080601      -2.18561000       6.84942406       11      -0.00198630       0.00140452       0.00243271
In       4.14528955       2.79226130       1.77250193       12       0.00198630       0.00280905      -0.00000000
In       1.64367753       4.97787130       2.01308562       13      -0.00198630       0.00140452      -0.00243271
In       4.34172531       0.00000000      -0.00000000       14      -0.00000000       0.00000000      -0.00000000
In       1.44724177       2.04670894       3.54500387       15       0.00000000      -0.00000000      -0.00000000
O        0.83975085       4.09017576       3.87150152       16      -0.00242355      -0.00383474      -0.00252615
O       -2.05473270       3.35443973       5.15706475       17      -0.00242355      -0.00027034       0.00458406
O       -0.41985504       2.19840665       0.06936502       18      -0.00467816       0.00132391       0.00182274
O       -0.83975085      -0.74222027       1.93855852       19       0.00242355      -0.00410508       0.00205791
O        3.84750700       4.87568608       1.86919349       20       0.00055297       0.00515744       0.00023517
O        1.94146008       2.86578293       1.61206087       21      -0.00055297       0.00237506       0.00458406
O        1.94146008       6.10332103       0.25713262       22      -0.00055297       0.00278238      -0.00434889
O       -2.21262935       5.80316773       3.61436890       23      -0.00280758       0.00396931       0.00182274
O        3.31433858       1.89501123       7.02064272       24       0.00467816      -0.00132391      -0.00182274
O        5.10711289      -1.70974985       3.47563885       25       0.00280758      -0.00396931      -0.00182274
O        6.20882212       3.20598414       1.67581038       26       0.00467816       0.00224050      -0.00023517
O        3.57633774       2.27526036       3.80213649       27      -0.00280758      -0.00040611      -0.00434889
O        0.68185419       4.20182556       6.76351010       28      -0.00280758      -0.00356320       0.00252615
O        2.21262935      -0.10840767       0.32649764       29       0.00280758       0.00356320      -0.00252615
O       -3.31433858       0.88743374       5.41419737       30      -0.00467816      -0.00224050       0.00023517
O        4.94921624       0.73897815       1.93294300       31       0.00242355       0.00027034      -0.00458406
O        0.95302346       1.22763496       5.47794687       32       0.00055297      -0.00237506      -0.00458406
O        3.31433858      -1.00757749       5.48356239       33       0.00467816      -0.00091659       0.00205791
O        2.05473269       0.00324213       3.21850623       34       0.00242355       0.00383474       0.00252615
O        0.95302346      -2.00990315       6.83287513       35       0.00055297      -0.00278238       0.00434889
O       -0.68185420       1.81815752       3.28787125       36       0.00280758       0.00040611       0.00434889
O       -0.95302346      -0.78226819       5.22081425       37      -0.00055297      -0.00515744      -0.00023517
O       -0.41985504       5.10099538       1.60644535       38      -0.00467816       0.00091659      -0.00205791
O        3.73423439       4.83563816       5.15144922       39      -0.00242355       0.00410508      -0.00205791
