1
Lattice="3.597929630429965 0.41174563838063816 -3.2324461915774926e-10 0.6597702677198973 3.560805427158889 -7.477300381114548e-10 -2.1288499489301405 -1.9862755323443915 2.1534482814317903" Properties=species:S:1:pos:R:3:spacegroup_kinds:I:1:forces:R:3 spacegroup="P 1" unit_cell=conventional occupancy="_JSON {\"0\": {\"In\": 1}}" n_minim_iter=1 energy=-1970.8934009772008 stress="-0.09494758366496144 0.007594161387428693 -1.8119181510483227e-12 0.007594161387428693 -0.09600129090181507 -2.1678485064634805e-12 -1.8119181510483227e-12 -2.1678485064634805e-12 -0.10308685226834857" free_energy=-1970.8934009772008 pbc="T T T"
In       0.00000000       0.00000000       0.00000000        0      -0.00000000       0.00000000      -0.00000000
