1
Lattice="3.3725351073912373 0.14041136099579776 -2.544925192277674e-10 0.37348710836113513 3.3547303588770214 -6.877738757468903e-10 -1.873011107728396 -1.7475708595022224 2.198075040172156" Properties=species:S:1:pos:R:3:spacegroup_kinds:I:1:forces:R:3 spacegroup="P 1" unit_cell=conventional occupancy="_JSON {\"0\": {\"In\": 1}}" n_minim_iter=2 energy=-1970.446883623089 stress="-0.24296230828237195 0.001325741904063444 -4.693991744607264e-13 0.001325741904063444 -0.24314625799923054 -2.1348138976675827e-13 -4.693991744607264e-13 -2.1348138976675827e-13 -0.2443832116472311" free_energy=-1970.446883623089 pbc="T T T"
In       0.00000000       0.00000000       0.00000000        0       0.00000000      -0.00000000       0.00000000
