1
Lattice="4.092637987589834 0.6108299161859525 -3.9583643266523737e-10 0.8926158268142252 4.040548956477555 -8.581513123418031e-10 -2.492626907044333 -2.32568943586847 2.345373879393114" Properties=species:S:1:pos:R:3:spacegroup_kinds:I:1:forces:R:3 spacegroup="P 1" unit_cell=conventional occupancy="_JSON {\"0\": {\"In\": 1}}" n_minim_iter=1 energy=-1970.647621102261 stress="0.06703124896396291 0.007769977680903348 -1.895729760111493e-12 0.007769977680903348 0.06595314681399006 -1.928878010644215e-12 -1.895729760111493e-12 -1.928878010644215e-12 0.058703544011649816" free_energy=-1970.647621102261 pbc="T T T"
In       0.00000000       0.00000000       0.00000000        0       0.00000000      -0.00000000       0.00000000
