1
Lattice="3.8398376640258167 0.48097980301467436 -3.5318463777760455e-10 0.7455808211137378 3.797341714432168 -8.002217118026519e-10 -2.292709242417295 -2.13916075827545 2.267855911862125" Properties=species:S:1:pos:R:3:spacegroup_kinds:I:1:forces:R:3 spacegroup="P 1" unit_cell=conventional occupancy="_JSON {\"0\": {\"In\": 1}}" n_minim_iter=1 energy=-1970.9189102628675 stress="0.05194054262245825 -0.011816913105779382 3.188031349137159e-12 -0.011816913105779382 0.053580166304436884 2.974698711870564e-12 3.188031349137159e-12 2.974698711870564e-12 0.0646056711257257" free_energy=-1970.9189102628675 pbc="T T T"
In       0.00000000       0.00000000       0.00000000        0       0.00000000       0.00000000      -0.00000000
1
Lattice="3.891969977151071 0.5808800343813089 -3.7642334151003906e-10 0.8488495707720074 3.8424349472161943 -8.160724503017472e-10 -2.370409773811577 -2.2116574903581823 2.2303767769032268" Properties=species:S:1:pos:R:3:spacegroup_kinds:I:1:forces:R:3 spacegroup="P 1" unit_cell=conventional occupancy="_JSON {\"0\": {\"In\": 1}}" n_minim_iter=2 energy=-1970.9298906883166 stress="0.04582576166578323 0.0028600815850847784 -9.104144533796684e-13 0.0028600815850847784 0.04542891881369642 -6.555415896025582e-13 -9.104144533796684e-13 -6.555415896025582e-13 0.042760384060533785" free_energy=-1970.9298906883166 pbc="T T T"
In       0.00000000       0.00000000       0.00000000        0       0.00000000       0.00000000      -0.00000000
