1
Lattice="4.065169790912881 0.6067302630221887 -3.9317973226385263e-10 0.8866249360581304 4.013430361147128 -8.523917340215444e-10 -2.4758973633288672 -2.3100803116244837 2.32963264080922" Properties=species:S:1:pos:R:3:spacegroup_kinds:I:1:forces:R:3 spacegroup="P 1" unit_cell=conventional occupancy="_JSON {\"0\": {\"In\": 1}}" n_minim_iter=1 energy=-1970.647621102261 stress="0.06703124896396291 0.007769977680903348 -1.895729760111493e-12 0.007769977680903348 0.06595314681399006 -1.928878010644215e-12 -1.895729760111493e-12 -1.928878010644215e-12 0.058703544011649816" free_energy=-1970.647621102261 pbc="T T T"
In       0.00000000       0.00000000       0.00000000        0       0.00000000      -0.00000000       0.00000000
