1
Lattice="3.50044804929168 0.2770149704503217 -2.900784853126237e-10 0.5186159872610858 3.472882275200343 -7.208717001369373e-10 -2.0095320181294407 -1.8749486223936378 2.1854570622962006" Properties=species:S:1:pos:R:3:spacegroup_kinds:I:1:forces:R:3 spacegroup="P 1" unit_cell=conventional occupancy="_JSON {\"0\": {\"In\": 1}}" n_minim_iter=2 energy=-1970.716434447819 stress="-0.1413268120245384 -0.0009084683652320976 -1.569942240298211e-15 -0.0009084683652320976 -0.1412007599638135 5.79539156305316e-13 -1.569942240298211e-15 5.79539156305316e-13 -0.14035313400041538" free_energy=-1970.716434447819 pbc="T T T"
In       0.00000000       0.00000000       0.00000000        0      -0.00000000       0.00000000      -0.00000000
