1
Lattice="3.3029783771272485 0.1375154518794237 -2.492436933901899e-10 0.36578413679045463 3.2855408420149366 -6.735886969703188e-10 -1.8343812568141096 -1.7115281465219476 2.15274091975509" Properties=species:S:1:pos:R:3:spacegroup_kinds:I:1:forces:R:3 spacegroup="P 1" unit_cell=conventional occupancy="_JSON {\"0\": {\"In\": 1}}" n_minim_iter=1 energy=-1969.8995747242643 stress="-0.4972335031933417 -0.016153841712283686 4.598138383509096e-12 -0.016153841712283686 -0.49499212076299365 4.592956312296564e-12 4.598138383509096e-12 4.592956312296564e-12 -0.4799201423130914" free_energy=-1969.8995747242643 pbc="T T T"
In       0.00000000       0.00000000       0.00000000        0      -0.00000000       0.00000000       0.00000000
1
Lattice="3.343856221117145 0.2279762923770287 -2.6986104259000405e-10 0.4588572106228135 3.3200598906720433 -6.866651033314187e-10 -1.9013567157278088 -1.7740180911068606 2.114485769489154" Properties=species:S:1:pos:R:3:spacegroup_kinds:I:1:forces:R:3 spacegroup="P 1" unit_cell=conventional occupancy="_JSON {\"0\": {\"In\": 1}}" n_minim_iter=2 energy=-1969.9158677881367 stress="-0.4366679821976088 -0.0006322284504970718 2.4672340569941647e-13 -0.0006322284504970718 -0.43658025905636133 2.3012144128732187e-13 2.4672340569941647e-13 2.3012144128732187e-13 -0.4359903725282532" free_energy=-1969.9158677881367 pbc="T T T"
In       0.00000000       0.00000000       0.00000000        0      -0.00000000       0.00000000       0.00000000
