20
Lattice="5.698116324439697 5.512483473269796e-62 -2.1561823537871618e-44 -1.8966984704773301e-62 5.747962317961015 -1.0485844730055668e-17 -7.118387160015674e-44 -3.485952976121401e-18 8.239684057565798" Properties=species:S:1:pos:R:3:spacegroup_kinds:I:1:forces:R:3 spacegroup="P 1" unit_cell=conventional occupancy="_JSON {\"0\": {\"In\": 1}, \"1\": {\"In\": 1}, \"2\": {\"In\": 1}, \"3\": {\"In\": 1}, \"4\": {\"In\": 1}, \"5\": {\"In\": 1}, \"6\": {\"In\": 1}, \"7\": {\"In\": 1}, \"8\": {\"O\": 1}, \"9\": {\"O\": 1}, \"10\": {\"O\": 1}, \"11\": {\"O\": 1}, \"12\": {\"O\": 1}, \"13\": {\"O\": 1}, \"14\": {\"O\": 1}, \"15\": {\"O\": 1}, \"16\": {\"O\": 1}, \"17\": {\"O\": 1}, \"18\": {\"O\": 1}, \"19\": {\"O\": 1}}" n_minim_iter=6 energy=-22574.7944681263 stress="0.026098942989971896 -6.264100767454943e-13 -8.019779590016622e-15 -6.264100767454943e-13 0.026298035417929428 -2.985700761157817e-13 -8.019779590016622e-15 -2.985700761157817e-13 0.025985092323156316" free_energy=-22574.7944681263 pbc="T T T"
In       1.41033531       3.02387639       0.95035313        0      -0.00039786       0.00104087       0.00055299
In       1.43872285       0.14989523       3.16948890        1       0.00039786       0.00104087      -0.00055299
In       1.43872285       2.72408593       5.07019515        2       0.00039786      -0.00104087       0.00055299
In       1.41033531       5.59806708       7.28933093        3      -0.00039786      -0.00104087      -0.00055299
In       4.28778101       2.72408593       7.28933093        4       0.00039786      -0.00104087      -0.00055299
In       4.25939348       5.59806708       5.07019515        5      -0.00039786      -0.00104087       0.00055299
In       4.25939348       3.02387639       3.16948890        6      -0.00039786       0.00104087      -0.00055299
In       4.28778101       0.14989523       0.95035313        7       0.00039786       0.00104087       0.00055299
O        2.22496465       3.46437638       6.99815526        8      -0.00158644      -0.00565054       0.00392879
O        0.62409351       0.59039522       5.36137082        9       0.00158644      -0.00565054      -0.00392879
O        0.62409351       2.28358594       2.87831324       10       0.00158644       0.00565054       0.00392879
O        2.22496465       5.15756710       1.24152879       11      -0.00158644       0.00565054      -0.00392879
O        3.47315168       2.28358594       1.24152879       12       0.00158644       0.00565054      -0.00392879
O        5.07402281       5.15756710       2.87831324       13      -0.00158644       0.00565054       0.00392879
O        5.07402281       3.46437638       5.36137082       14      -0.00158644      -0.00565054      -0.00392879
O        3.47315168       0.59039522       6.99815526       15       0.00158644      -0.00565054       0.00392879
O        5.45503413       4.31097174       0.00000000       16      -0.00118204      -0.00000000      -0.00000000
O        3.09214035       1.43699058       4.11984203       17       0.00118204      -0.00000000       0.00000000
O        0.24308219       1.43699058       0.00000000       18       0.00118204       0.00000000       0.00000000
O        2.60597597       4.31097174       4.11984203       19      -0.00118204      -0.00000000      -0.00000000
